INSANE! Membrane UpperLeaflet>M3.DOPC:M3.DOPA=75.0:25.0 LowerLeaflet>M3.DOPC:M3.DOPA=75.0:25.0
56928
    1DOPC   NC3    1  20.002   1.255  15.699  0.1036 -0.2159  0.2889
    1DOPC   PO4    2  20.322   1.481  15.630  0.0010  0.0224  0.4547
    1DOPC   GL1    3  20.307   1.500  15.179 -0.1452  0.2987  0.0376
    1DOPC   GL2    4  20.069   1.329  15.150 -0.0676  0.0690 -0.1620
    1DOPC   C1A    5  20.521   1.669  14.861 -0.0323 -0.0860  0.1961
    1DOPC   D2A    6  20.768   1.694  14.468  0.1056  0.2855 -0.0361
    1DOPC   C3A    7  20.831   1.655  14.033 -0.0037  0.2312 -0.1011
    1DOPC   C4A    8  20.814   1.704  13.546  0.3152 -0.1780  0.0511
    1DOPC   C1B    9  20.075   1.373  14.764  0.3522 -0.0539  0.3211
    1DOPC   D2B   10  19.966   1.444  14.273  0.0141 -0.2245 -0.1343
    1DOPC   C3B   11  19.656   1.103  14.078 -0.1885 -0.5156 -0.1509
    1DOPC   C4B   12  19.351   0.846  13.752  0.1761  0.1660  0.1659
    2DOPC   NC3   13  27.597   6.926  15.510  0.0857  0.2973 -0.0935
    2DOPC   PO4   14  27.442   6.908  15.165  0.2553  0.1848 -0.1630
    2DOPC   GL1   15  27.664   6.902  14.831  0.0890  0.2991 -0.0386
    2DOPC   GL2   16  27.609   7.146  14.796 -0.0571  0.1963  0.2134
    2DOPC   C1A   17  27.700   6.692  14.358 -0.0933  0.0018  0.0601
    2DOPC   D2A   18  27.598   6.889  13.952  0.3333  0.0403  0.0198
    2DOPC   C3A   19  27.564   7.269  13.731 -0.0736 -0.0077  0.1826
    2DOPC   C4A   20  27.607   7.718  13.587  0.0147 -0.0724  0.0084
    2DOPC   C1B   21  27.448   7.166  14.388  0.4231  0.0133  0.0283
    2DOPC   D2B   22  27.122   7.071  13.970 -0.0731  0.4265 -0.1132
    2DOPC   C3B   23  26.728   7.223  13.761 -0.0203  0.0443  0.0273
    2DOPC   C4B   24  26.282   7.347  13.599 -0.0498 -0.0593 -0.1137
    3DOPC   NC3   25   0.045   3.300  15.444  0.4012  0.0843 -0.1178
    3DOPC   PO4   26   0.339   3.364  15.220  0.3009 -0.1519  0.2563
    3DOPC   GL1   27   0.164   3.317  14.726 -0.0599 -0.3505  0.0405
    3DOPC   GL2   28   0.231   3.594  14.787 -0.2064  0.4180  0.2593
    3DOPC   C1A   29  -0.021   3.355  14.291 -0.0311  0.1491  0.2318
    3DOPC   D2A   30  -0.204   3.326  13.824 -0.1110  0.2030 -0.0250
    3DOPC   C3A   31  -0.538   3.490  13.528  0.1931 -0.4405 -0.1097
    3DOPC   C4A   32  -1.002   3.579  13.379  0.1633  0.0406 -0.0637
    3DOPC   C1B   33   0.144   3.815  14.409 -0.1025 -0.2209 -0.2623
    3DOPC   D2B   34   0.179   4.031  13.970 -0.1625 -0.2674  0.0484
    3DOPC   C3B   35  -0.066   4.417  14.104  0.1213  0.0828 -0.0600
    3DOPC   C4B   36  -0.572   4.487  14.066  0.1339 -0.0577 -0.0615
    4DOPC   NC3   37  16.313   5.516  14.464 -0.2514  0.1009  0.3316
    4DOPC   PO4   38  16.042   5.641  14.718 -0.3713  0.1014  0.0060
    4DOPC   GL1   39  15.721   5.692  14.347  0.1643  0.0086  0.3726
    4DOPC   GL2   40  15.895   5.449  14.182  0.2267  0.2785  0.0558
    4DOPC   C1A   41  15.748   5.990  13.964  0.3615 -0.1352 -0.1832
    4DOPC   D2A   42  15.718   5.922  13.469  0.2669 -0.4044  0.1124
    4DOPC   C3A   43  16.093   5.885  13.148 -0.0392 -0.1972 -0.1552
    4DOPC   C4A   44  16.524   5.863  12.834  0.0091  0.1678 -0.1650
    4DOPC   C1B   45  15.857   5.592  13.752 -0.0093  0.2814 -0.0312
    4DOPC   D2B   46  15.660   5.450  13.276 -0.0177  0.0028  0.1585
    4DOPC   C3B   47  15.317   5.465  12.958 -0.1167 -0.0074  0.2217
    4DOPC   C4B   48  14.877   5.683  12.773  0.1381  0.0387  0.0343
    5DOPC   NC3   49  14.489   5.240  15.236  0.4103 -0.0341 -0.1043
    5DOPC   PO4   50  14.114   5.245  15.102  0.1468  0.1113 -0.2415
    5DOPC   GL1   51  14.226   5.312  14.677  0.2040 -0.1149 -0.4155
    5DOPC   GL2   52  14.508   5.329  14.753  0.3394  0.0076 -0.1226
    5DOPC   C1A   53  14.183   5.112  14.301  0.1020 -0.0231 -0.1549
    5DOPC   D2A   54  14.047   5.023  13.819 -0.2294  0.1081  0.1337
    5DOPC   C3A   55  13.771   5.065  13.447  0.1672 -0.2272 -0.1788
    5DOPC   C4A   56  13.744   4.849  13.013 -0.0762  0.1430  0.1131
    5DOPC   C1B   57  14.644   5.627  14.468 -0.1072 -0.0195 -0.0635
    5DOPC   D2B   58  14.676   5.888  14.055 -0.0645 -0.1501 -0.1202
    5DOPC   C3B   59  14.765   5.931  13.587 -0.0823 -0.0196  0.0752
    5DOPC   C4B   60  14.687   6.115  13.177  0.4565  0.0135  0.3253
    6DOPC   NC3   61  15.120   6.634  14.422  0.3373  0.2731  0.3038
    6DOPC   PO4   62  15.342   6.858  14.651  0.2562  0.1528 -0.1567
    6DOPC   GL1   63  15.349   7.175  14.321 -0.0189 -0.2708  0.5010
    6DOPC   GL2   64  15.099   7.086  14.185  0.2950 -0.1293  0.3347
    6DOPC   C1A   65  15.477   7.071  13.911  0.1421  0.1062 -0.4101
    6DOPC   D2A   66  15.412   6.846  13.441 -0.0682  0.1412 -0.1576
    6DOPC   C3A   67  15.485   6.542  13.091 -0.0875 -0.2442 -0.0541
    6DOPC   C4A   68  15.497   6.335  12.666 -0.4550 -0.2793 -0.2452
    6DOPC   C1B   69  14.981   6.892  13.757  0.0315  0.0414  0.1483
    6DOPC   D2B   70  14.838   6.596  13.354  0.1595  0.0248  0.1770
    6DOPC   C3B   71  15.036   6.415  12.975  0.1254  0.2268 -0.0882
    6DOPC   C4B   72  15.044   6.195  12.606 -0.1231 -0.2531  0.2230
    7DOPC   NC3   73  15.658   2.069  15.064 -0.2479  0.0337  0.0548
    7DOPC   PO4   74  16.003   2.315  15.027  0.2702 -0.0680 -0.1040
    7DOPC   GL1   75  16.232   2.500  14.788 -0.1787  0.0333  0.2395
    7DOPC   GL2   76  16.031   2.805  14.777  0.0575  0.1634  0.0981
    7DOPC   C1A   77  16.562   2.375  14.395  0.0737 -0.0449  0.4358
    7DOPC   D2A   78  16.635   2.050  13.983 -0.0343  0.0492 -0.0873
    7DOPC   C3A   79  16.485   1.998  13.640  0.0929  0.0720  0.1813
    7DOPC   C4A   80  16.254   1.975  13.194  0.0157 -0.0245 -0.0360
    7DOPC   C1B   81  15.965   3.051  14.386  0.2119  0.1391  0.0035
    7DOPC   D2B   82  15.679   3.253  14.032  0.1804 -0.0651  0.1463
    7DOPC   C3B   83  15.777   2.999  13.648 -0.0472 -0.1053 -0.4167
    7DOPC   C4B   84  15.628   2.711  13.237  0.2746 -0.0571 -0.1969
    8DOPC   NC3   85  23.978   7.071  15.605 -0.1806  0.1016  0.2926
    8DOPC   PO4   86  23.871   7.415  15.502 -0.3413 -0.1832  0.1022
    8DOPC   GL1   87  23.662   7.515  15.281 -0.2233 -0.1190  0.0472
    8DOPC   GL2   88  23.415   7.476  15.217 -0.1285 -0.0338 -0.1093
    8DOPC   C1A   89  23.874   7.671  14.884  0.3085  0.2308  0.2154
    8DOPC   D2A   90  24.061   7.767  14.458  0.0064 -0.0600 -0.0749
    8DOPC   C3A   91  23.878   7.784  14.034  0.2712  0.2033  0.1839
    8DOPC   C4A   92  23.841   7.436  13.625  0.1405  0.0424 -0.0400
    8DOPC   C1B   93  23.353   7.585  14.819 -0.1313  0.1324 -0.2198
    8DOPC   D2B   94  23.529   7.837  14.397  0.1040 -0.4382  0.3321
    8DOPC   C3B   95  23.394   7.942  13.953  0.2698  0.3326  0.2437
    8DOPC   C4B   96  23.143   8.244  13.674 -0.0224  0.2620 -0.2096
    9DOPC   NC3   97  17.077   3.050  15.127  0.1884 -0.1660  0.2390
    9DOPC   PO4   98  16.780   3.289  15.068  0.1972  0.1858 -0.0147
    9DOPC   GL1   99  16.714   3.420  14.653 -0.0806  0.1664 -0.1075
    9DOPC   GL2  100  16.987   3.560  14.724 -0.0157  0.1119  0.1683
    9DOPC   C1A  101  16.755   3.212  14.260 -0.0619  0.1165 -0.1128
    9DOPC   D2A  102  16.645   3.004  13.803 -0.5076  0.1509  0.1155
    9DOPC   C3A  103  16.791   2.900  13.361 -0.1060  0.2084  0.0654
    9DOPC   C4A  104  16.953   2.878  12.941  0.1688  0.1765 -0.0095
    9DOPC   C1B  105  17.248   3.300  14.451  0.1539 -0.2251  0.2068
    9DOPC   D2B  106  17.309   2.999  14.057  0.0087  0.0247 -0.2418
    9DOPC   C3B  107  17.483   2.727  13.729  0.0490 -0.1037 -0.1457
    9DOPC   C4B  108  17.553   2.430  13.321 -0.1262  0.0528 -0.4093
   10DOPC   NC3  109   3.389   7.610  15.131  0.0983  0.0474 -0.2006
   10DOPC   PO4  110   3.189   7.899  15.273  0.0537 -0.2543  0.0458
   10DOPC   GL1  111   2.985   7.858  14.957  0.1180  0.3412  0.2602
   10DOPC   GL2  112   2.984   7.974  14.773  0.2700  0.2700 -0.3545
   10DOPC   C1A  113   2.694   7.621  14.830 -0.0186 -0.1750  0.1356
   10DOPC   D2A  114   2.513   7.458  14.466  0.1663  0.0270  0.0365
   10DOPC   C3A  115   2.536   7.595  13.960  0.2020 -0.0564 -0.1887
   10DOPC   C4A  116   2.401   7.653  13.444 -0.3910  0.1226 -0.0256
   10DOPC   C1B  117   2.603   8.190  14.705  0.2772  0.0249 -0.1135
   10DOPC   D2B  118   2.279   8.443  14.454 -0.1590 -0.1200 -0.2606
   10DOPC   C3B  119   2.092   8.257  14.077  0.1772  0.1522 -0.0363
   10DOPC   C4B  120   2.194   8.109  13.658 -0.1543  0.0891  0.2867
   11DOPC   NC3  121   2.421   0.668  15.127  0.1481 -0.1833  0.1799
   11DOPC   PO4  122   2.311   1.039  15.163  0.0136  0.0960 -0.0161
   11DOPC   GL1  123   2.297   1.429  14.998  0.2739  0.1289 -0.2124
   11DOPC   GL2  124   2.000   1.504  14.998  0.0098 -0.2117  0.0158
   11DOPC   C1A  125   2.622   1.605  14.762 -0.1557  0.1621  0.2815
   11DOPC   D2A  126   2.987   1.852  14.566 -0.0928  0.0269 -0.1027
   11DOPC   C3A  127   3.077   1.785  14.123  0.1918  0.2873 -0.0883
   11DOPC   C4A  128   3.090   1.683  13.641 -0.0268  0.0273  0.1272
   11DOPC   C1B  129   1.671   1.456  14.658 -0.1003 -0.2570  0.2502
   11DOPC   D2B  130   1.327   1.523  14.298  0.0036 -0.1391  0.0791
   11DOPC   C3B  131   1.508   1.516  13.868 -0.2081 -0.0950  0.0212
   11DOPC   C4B  132   1.644   1.511  13.376 -0.0476 -0.0010  0.1863
   12DOPC   NC3  133   8.348   7.360  15.217 -0.0093 -0.4240  0.1666
   12DOPC   PO4  134   8.415   7.021  15.109 -0.0645 -0.0797  0.1477
   12DOPC   GL1  135   8.297   6.768  14.728 -0.2250  0.0231 -0.0920
   12DOPC   GL2  136   8.586   6.778  14.687  0.1847 -0.1378 -0.1178
   12DOPC   C1A  137   8.110   7.083  14.491 -0.0208  0.3766 -0.0046
   12DOPC   D2A  138   7.697   7.308  14.517 -0.1386  0.2834 -0.1676
   12DOPC   C3A  139   7.398   7.597  14.638  0.0194  0.0439 -0.1559
   12DOPC   C4A  140   7.261   8.055  14.793 -0.2475  0.0450  0.0543
   12DOPC   C1B  141   8.584   6.477  14.405  0.0188  0.0822 -0.0137
   12DOPC   D2B  142   8.419   6.523  13.976 -0.0869 -0.1246  0.1063
   12DOPC   C3B  143   8.126   6.888  13.981 -0.1568  0.1456  0.1021
   12DOPC   C4B  144   7.917   7.346  14.058 -0.2231 -0.1352  0.0950
   13DOPC   NC3  145   7.802   1.733  16.109 -0.1109  0.0468  0.2821
   13DOPC   PO4  146   7.811   1.706  15.700 -0.0562 -0.0806  0.2915
   13DOPC   GL1  147   7.717   1.769  15.347  0.0177  0.0066  0.0742
   13DOPC   GL2  148   7.605   2.045  15.398  0.1289 -0.1914  0.2313
   13DOPC   C1A  149   7.561   1.694  14.939  0.1775 -0.1092  0.0324
   13DOPC   D2A  150   7.163   1.706  14.687 -0.1009 -0.0416  0.1170
   13DOPC   C3A  151   7.091   1.867  14.273 -0.3251 -0.1422 -0.1474
   13DOPC   C4A  152   7.189   1.796  13.793 -0.0412  0.0082  0.0602
   13DOPC   C1B  153   7.712   2.198  15.011 -0.0752 -0.0619  0.2166
   13DOPC   D2B  154   7.876   2.462  14.644 -0.0418 -0.2140  0.0568
   13DOPC   C3B  155   7.638   2.451  14.227  0.0288 -0.1482  0.1651
   13DOPC   C4B  156   7.410   2.345  13.810 -0.1877 -0.2032 -0.2860
   14DOPC   NC3  157  12.543   1.732  15.433 -0.2560 -0.1824  0.0453
   14DOPC   PO4  158  12.926   1.726  15.325  0.0485  0.2456  0.2996
   14DOPC   GL1  159  13.089   1.788  14.932  0.0040  0.0071  0.0515
   14DOPC   GL2  160  12.982   1.526  14.876  0.2765 -0.0262  0.5402
   14DOPC   C1A  161  13.379   1.735  14.581 -0.0602  0.0279  0.1041
   14DOPC   D2A  162  13.438   2.012  14.226  0.1225 -0.2879 -0.2347
   14DOPC   C3A  163  13.071   2.266  14.040 -0.1697  0.2281 -0.2599
   14DOPC   C4A  164  12.670   2.241  13.817 -0.0456  0.1700 -0.0167
   14DOPC   C1B  165  12.874   1.552  14.470  0.2974  0.0648 -0.0683
   14DOPC   D2B  166  13.014   1.671  14.001 -0.2918  0.0906 -0.0038
   14DOPC   C3B  167  12.709   1.551  13.677  0.0361  0.0320 -0.1104
   14DOPC   C4B  168  12.439   1.262  13.381 -0.0443 -0.0906 -0.0206
   15DOPC   NC3  169  24.144   3.218  15.749  0.2650 -0.1133  0.0029
   15DOPC   PO4  170  23.954   3.359  15.445  0.0718 -0.1301 -0.1380
   15DOPC   GL1  171  24.023   3.447  15.170  0.2298 -0.1045  0.1840
   15DOPC   GL2  172  24.301   3.525  15.065 -0.2254 -0.0118 -0.0006
   15DOPC   C1A  173  23.846   3.348  14.834  0.0309  0.3899 -0.1058
   15DOPC   D2A  174  23.561   3.301  14.405  0.2420 -0.0051 -0.2342
   15DOPC   C3A  175  23.600   2.957  14.024  0.2138 -0.1355 -0.1280
   15DOPC   C4A  176  23.920   2.696  13.721 -0.1829 -0.2196 -0.2415
   15DOPC   C1B  177  24.375   3.790  14.751  0.0474  0.0275 -0.1056
   15DOPC   D2B  178  24.465   3.578  14.353  0.0895 -0.2301  0.0253
   15DOPC   C3B  179  24.422   3.182  14.149  0.0149  0.0696 -0.0642
   15DOPC   C4B  180  24.324   2.774  13.997 -0.0544 -0.3482 -0.3318
   16DOPC   NC3  181  26.711   6.529  15.314  0.4092 -0.0485  0.1050
   16DOPC   PO4  182  26.405   6.420  15.520  0.0716 -0.2074 -0.0792
   16DOPC   GL1  183  26.124   6.312  15.147  0.1472  0.0900  0.3409
   16DOPC   GL2  184  26.384   6.443  15.024 -0.1394 -0.2283  0.1448
   16DOPC   C1A  185  26.025   6.356  14.732  0.2625  0.0683  0.2799
   16DOPC   D2A  186  26.133   6.399  14.217 -0.3926  0.0516 -0.1674
   16DOPC   C3A  187  26.142   6.038  13.967 -0.1520  0.3260 -0.3616
   16DOPC   C4A  188  26.310   5.791  13.546 -0.1590 -0.0994 -0.2170
   16DOPC   C1B  189  26.494   6.347  14.639  0.2434 -0.0773 -0.0246
   16DOPC   D2B  190  26.690   6.572  14.210  0.1158 -0.0628 -0.0614
   16DOPC   C3B  191  26.488   6.359  13.849 -0.2575  0.2130 -0.2535
   16DOPC   C4B  192  26.028   6.449  13.632  0.0313 -0.0401  0.0530
   17DOPC   NC3  193  18.558   7.790  15.133 -0.3356  0.1580 -0.1307
   17DOPC   PO4  194  18.363   8.086  14.956  0.0968  0.2995  0.0136
   17DOPC   GL1  195  18.366   8.093  14.507 -0.3690  0.1422  0.0928
   17DOPC   GL2  196  18.545   7.905  14.557 -0.3453 -0.0446  0.2909
   17DOPC   C1A  197  18.153   8.130  14.070  0.2049  0.2366 -0.0167
   17DOPC   D2A  198  18.117   8.382  13.643  0.0132 -0.0828 -0.1049
   17DOPC   C3A  199  17.864   8.594  13.271 -0.1509 -0.2006 -0.1516
   17DOPC   C4A  200  17.578   8.953  13.075 -0.2205  0.1717  0.2179
   17DOPC   C1B  201  18.634   7.911  14.090  0.0157 -0.0458  0.0099
   17DOPC   D2B  202  18.611   7.856  13.620 -0.0214 -0.0944  0.1534
   17DOPC   C3B  203  18.466   7.822  13.197  0.0371 -0.1140 -0.0270
   17DOPC   C4B  204  18.295   7.903  12.780  0.1778 -0.2019  0.1635
   18DOPC   NC3  205   5.854   0.487  15.104  0.3368 -0.1441  0.2435
   18DOPC   PO4  206   5.564   0.184  15.163 -0.0834  0.1602  0.1547
   18DOPC   GL1  207   5.463   0.030  14.771  0.3263 -0.0012 -0.2561
   18DOPC   GL2  208   5.690   0.219  14.633 -0.1577 -0.1569  0.0398
   18DOPC   C1A  209   5.151  -0.021  14.490  0.0336 -0.1656 -0.1979
   18DOPC   D2A  210   4.873   0.144  14.125 -0.1179  0.1808  0.0767
   18DOPC   C3A  211   4.689   0.027  13.765  0.3141 -0.2202 -0.0783
   18DOPC   C4A  212   4.390  -0.212  13.544  0.1483 -0.1028 -0.0829
   18DOPC   C1B  213   5.663   0.368  14.210 -0.1759  0.0707 -0.1409
   18DOPC   D2B  214   5.309   0.330  13.854  0.3090 -0.0195  0.0254
   18DOPC   C3B  215   5.096   0.294  13.437 -0.1302  0.1065  0.0513
   18DOPC   C4B  216   4.769   0.307  13.036  0.3194 -0.3919 -0.0953
   19DOPC   NC3  217   0.895   1.790  15.632  0.1868  0.1644 -0.2250
   19DOPC   PO4  218   1.004   2.051  15.362  0.0068  0.0872 -0.2031
   19DOPC   GL1  219   0.654   2.248  15.023  0.1099 -0.0184  0.1303
   19DOPC   GL2  220   0.877   2.017  14.981  0.0199 -0.0626  0.0937
   19DOPC   C1A  221   0.527   2.224  14.602 -0.5116  0.1929 -0.1654
   19DOPC   D2A  222   0.432   2.214  14.191  0.0227 -0.1212  0.0378
   19DOPC   C3A  223   0.416   2.544  13.858  0.1416  0.1590  0.2871
   19DOPC   C4A  224   0.204   2.463  13.382 -0.0770 -0.1720 -0.0557
   19DOPC   C1B  225   0.905   1.952  14.464 -0.3908 -0.1243  0.1934
   19DOPC   D2B  226   0.878   1.889  13.992  0.2275 -0.3128  0.1493
   19DOPC   C3B  227   0.471   1.982  13.781 -0.1619  0.0516 -0.0757
   19DOPC   C4B  228   0.029   2.149  13.747  0.0730 -0.0087 -0.0604
   20DOPC   NC3  229   8.089   0.224  15.521  0.0944 -0.0310 -0.2732
   20DOPC   PO4  230   8.151   0.542  15.328 -0.0460  0.1455 -0.0343
   20DOPC   GL1  231   8.059   0.456  14.915 -0.1825  0.2215 -0.3974
   20DOPC   GL2  232   7.833   0.601  14.939 -0.1729  0.3543 -0.0294
   20DOPC   C1A  233   8.321   0.294  14.512 -0.2647  0.1551  0.0435
   20DOPC   D2A  234   8.578   0.105  14.071  0.0921 -0.1467 -0.2406
   20DOPC   C3A  235   8.788   0.383  13.690 -0.2716 -0.1062  0.0137
   20DOPC   C4A  236   9.198   0.663  13.675  0.2750  0.2029 -0.1975
   20DOPC   C1B  237   7.520   0.698  14.720  0.1458 -0.1364  0.0558
   20DOPC   D2B  238   7.303   0.898  14.358  0.2394 -0.0063  0.1831
   20DOPC   C3B  239   7.215   0.751  13.980 -0.1409 -0.0842  0.0262
   20DOPC   C4B  240   7.357   0.638  13.542  0.1276 -0.0777  0.0703
   21DOPC   NC3  241   8.315   0.989  15.589 -0.3703  0.1883 -0.3075
   21DOPC   PO4  242   8.686   0.886  15.433 -0.0408  0.0431  0.0263
   21DOPC   GL1  243   8.795   0.753  15.031 -0.1054  0.1100 -0.0768
   21DOPC   GL2  244   8.927   0.975  14.979 -0.0095  0.5119 -0.1351
   21DOPC   C1A  245   8.479   0.777  14.707  0.1044  0.2953  0.0913
   21DOPC   D2A  246   8.408   1.011  14.302 -0.0794  0.2952 -0.0347
   21DOPC   C3A  247   8.115   0.993  13.976 -0.0150 -0.4200 -0.2073
   21DOPC   C4A  248   8.124   1.122  13.496 -0.1458 -0.0739 -0.2737
   21DOPC   C1B  249   8.773   1.258  14.672  0.1198  0.0244  0.1647
   21DOPC   D2B  250   8.571   1.507  14.225  0.3374  0.1559 -0.2580
   21DOPC   C3B  251   8.581   1.774  13.807  0.2242  0.1327 -0.1436
   21DOPC   C4B  252   8.528   2.075  13.408  0.5722 -0.1296  0.2145
   22DOPC   NC3  253   6.440   3.034  15.079  0.1696  0.1330 -0.0740
   22DOPC   PO4  254   6.574   2.869  15.420 -0.1061  0.1134 -0.2044
   22DOPC   GL1  255   6.945   2.678  15.371 -0.0735 -0.4613 -0.2441
   22DOPC   GL2  256   6.793   2.434  15.320 -0.1379  0.3875  0.4863
   22DOPC   C1A  257   6.994   2.828  14.960 -0.0495  0.1165 -0.1438
   22DOPC   D2A  258   6.914   2.758  14.464  0.2058 -0.0313 -0.0881
   22DOPC   C3A  259   6.683   2.807  14.037 -0.5273  0.0374  0.0394
   22DOPC   C4A  260   6.528   2.732  13.609  0.1756 -0.0297 -0.1843
   22DOPC   C1B  261   6.854   2.370  14.857  0.0786  0.0792 -0.0224
   22DOPC   D2B  262   6.622   2.355  14.420  0.1493 -0.1841 -0.1375
   22DOPC   C3B  263   6.358   2.416  14.094 -0.2807 -0.1969  0.0009
   22DOPC   C4B  264   6.155   2.341  13.606 -0.0080 -0.5031  0.1095
   23DOPC   NC3  265  31.089   6.690  15.361 -0.0495 -0.1931 -0.2770
   23DOPC   PO4  266  31.435   6.928  15.339 -0.0028  0.0340 -0.1418
   23DOPC   GL1  267  31.538   7.061  14.957 -0.1711  0.3853 -0.1683
   23DOPC   GL2  268  31.599   6.764  14.938 -0.1029 -0.2164  0.1658
   23DOPC   C1A  269  31.650   7.250  14.536  0.0050  0.0475  0.0291
   23DOPC   D2A  270  31.692   7.557  14.101  0.0185  0.1495  0.2052
   23DOPC   C3A  271  31.710   7.976  13.860 -0.0296 -0.3414 -0.2287
   23DOPC   C4A  272  31.685   8.477  13.859  0.3379 -0.0851 -0.0053
   23DOPC   C1B  273  31.603   6.714  14.488  0.1441 -0.0277  0.1193
   23DOPC   D2B  274  31.683   6.988  14.037 -0.1888  0.4693 -0.0823
   23DOPC   C3B  275  32.027   6.772  13.813  0.2066 -0.4074  0.2225
   23DOPC   C4B  276  32.202   6.347  13.793 -0.0237  0.1276 -0.0191
   24DOPC   NC3  277  14.134   6.901  14.772 -0.0648  0.0286 -0.3170
   24DOPC   PO4  278  14.516   6.795  14.926 -0.2136 -0.0789  0.1821
   24DOPC   GL1  279  14.720   6.935  14.618  0.1244 -0.0628  0.3799
   24DOPC   GL2  280  14.518   7.099  14.518 -0.0085 -0.0800  0.4923
   24DOPC   C1A  281  14.698   6.840  14.158 -0.2966  0.0116  0.1317
   24DOPC   D2A  282  14.426   6.465  13.974  0.2104 -0.0254  0.2569
   24DOPC   C3A  283  14.435   6.401  13.497 -0.1717 -0.1312  0.0751
   24DOPC   C4A  284  14.411   6.633  13.018 -0.2860 -0.1101  0.0701
   24DOPC   C1B  285  14.208   7.110  14.204 -0.1596  0.0481 -0.0494
   24DOPC   D2B  286  13.773   7.158  13.934  0.2274  0.1578 -0.1069
   24DOPC   C3B  287  13.842   7.058  13.491 -0.2081 -0.0877  0.0139
   24DOPC   C4B  288  13.789   6.649  13.208 -0.1008 -0.1717 -0.1841
   25DOPC   NC3  289   9.265   1.039  15.284  0.0734 -0.2769 -0.3528
   25DOPC   PO4  290   9.326   0.662  15.229  0.0043 -0.2056 -0.0144
   25DOPC   GL1  291   9.331   0.794  14.826  0.2808  0.1210  0.0610
   25DOPC   GL2  292   9.617   0.945  14.888  0.1729  0.2233  0.2558
   25DOPC   C1A  293   9.102   0.876  14.525  0.1695  0.2330  0.1676
   25DOPC   D2A  294   8.832   1.053  14.222  0.0165 -0.3250  0.0890
   25DOPC   C3A  295   8.782   0.920  13.781  0.0567 -0.3293 -0.2383
   25DOPC   C4A  296   8.592   0.838  13.328  0.0832 -0.1508  0.1184
   25DOPC   C1B  297   9.810   0.656  14.643  0.3805 -0.1006  0.3035
   25DOPC   D2B  298  10.125   0.491  14.331  0.0961 -0.0812  0.3433
   25DOPC   C3B  299   9.876   0.103  14.193  0.2478 -0.1023  0.0632
   25DOPC   C4B  300   9.948  -0.217  13.766  0.1205 -0.4723  0.1745
   26DOPC   NC3  301  16.464   3.660  15.035 -0.2156  0.0158 -0.2010
   26DOPC   PO4  302  16.222   3.702  14.741 -0.1643  0.1161 -0.0272
   26DOPC   GL1  303  16.130   3.522  14.450  0.0170  0.2734  0.1475
   26DOPC   GL2  304  16.351   3.297  14.389  0.2460 -0.2483  0.0229
   26DOPC   C1A  305  16.031   3.700  14.046  0.0119 -0.1791 -0.0420
   26DOPC   D2A  306  16.152   3.905  13.607  0.0325  0.2395 -0.0570
   26DOPC   C3A  307  16.235   3.638  13.193  0.0149 -0.1225  0.2002
   26DOPC   C4A  308  16.232   3.369  12.789 -0.1887  0.2223  0.4816
   26DOPC   C1B  309  16.214   3.209  13.985 -0.1098  0.1770 -0.0248
   26DOPC   D2B  310  16.250   3.044  13.504  0.3389  0.0454  0.3788
   26DOPC   C3B  311  15.938   3.100  13.142  0.1112 -0.1367  0.2612
   26DOPC   C4B  312  15.485   3.307  13.165  0.0892 -0.1171  0.3077
   27DOPC   NC3  313  29.421   1.448  15.029 -0.1487  0.1302  0.2419
   27DOPC   PO4  314  29.251   1.123  15.208  0.0406 -0.0278 -0.4292
   27DOPC   GL1  315  29.150   0.885  14.922 -0.5177 -0.2996  0.2989
   27DOPC   GL2  316  29.087   1.147  14.774 -0.1681 -0.0692 -0.1180
   27DOPC   C1A  317  29.434   0.758  14.654  0.2096  0.2469  0.2102
   27DOPC   D2A  318  29.716   0.903  14.259 -0.3316 -0.0231 -0.3446
   27DOPC   C3A  319  29.400   0.830  13.955 -0.0871 -0.1460  0.0944
   27DOPC   C4A  320  29.163   0.817  13.513 -0.2501  0.0992 -0.0506
   27DOPC   C1B  321  29.055   0.966  14.399 -0.0157 -0.0813  0.2056
   27DOPC   D2B  322  28.947   0.624  14.026 -0.3503  0.0362 -0.1403
   27DOPC   C3B  323  29.289   0.327  13.854  0.1453  0.3368 -0.2288
   27DOPC   C4B  324  29.560  -0.046  13.603  0.1028  0.2208 -0.2101
   28DOPC   NC3  325   7.304   3.423  15.532  0.1444 -0.3618  0.0207
   28DOPC   PO4  326   6.961   3.521  15.688  0.1636  0.1055  0.2733
   28DOPC   GL1  327   6.724   3.694  15.348  0.1230  0.5892  0.1343
   28DOPC   GL2  328   6.985   3.779  15.223 -0.0261 -0.1059  0.1121
   28DOPC   C1A  329   6.402   3.612  15.012 -0.1020  0.2171  0.0624
   28DOPC   D2A  330   6.164   3.597  14.517  0.0590  0.0479 -0.0738
   28DOPC   C3A  331   5.914   3.212  14.312 -0.0188 -0.0462 -0.0892
   28DOPC   C4A  332   5.588   2.823  14.456 -0.0804 -0.0382 -0.3578
   28DOPC   C1B  333   6.780   3.900  14.871  0.1965 -0.1210 -0.1691
   28DOPC   D2B  334   6.443   4.049  14.575 -0.2773  0.0425 -0.1976
   28DOPC   C3B  335   6.416   4.521  14.440 -0.3262 -0.3394  0.1199
   28DOPC   C4B  336   6.328   5.042  14.383 -0.1721 -0.1462  0.1143
   29DOPC   NC3  337   3.750   3.264  15.153  0.1180  0.1128 -0.4871
   29DOPC   PO4  338   4.027   3.547  15.224 -0.1287 -0.4225 -0.1070
   29DOPC   GL1  339   4.100   3.488  14.879 -0.1081  0.1002  0.4208
   29DOPC   GL2  340   4.353   3.468  14.857 -0.0720 -0.2539  0.2521
   29DOPC   C1A  341   3.960   3.519  14.446  0.3395  0.1219 -0.0741
   29DOPC   D2A  342   3.673   3.697  14.059 -0.0496  0.0383  0.2319
   29DOPC   C3A  343   3.984   4.022  13.869 -0.2536  0.1157  0.1041
   29DOPC   C4A  344   3.980   4.381  13.531 -0.2065  0.0593  0.1548
   29DOPC   C1B  345   4.428   3.525  14.407  0.0201  0.1466  0.0846
   29DOPC   D2B  346   4.356   3.531  13.895  0.0521 -0.3497  0.0208
   29DOPC   C3B  347   4.063   3.669  13.565  0.1139  0.1674  0.2527
   29DOPC   C4B  348   3.532   3.747  13.526  0.4261  0.1150  0.1423
   30DOPC   NC3  349  23.699   1.472  15.687 -0.1723 -0.1231 -0.2531
   30DOPC   PO4  350  23.323   1.598  15.632 -0.1557 -0.2071 -0.0250
   30DOPC   GL1  351  23.068   1.492  15.302 -0.0295  0.3909  0.2032
   30DOPC   GL2  352  23.345   1.732  15.217  0.0191 -0.0742  0.2110
   30DOPC   C1A  353  22.910   1.418  14.903 -0.2928 -0.3224  0.0300
   30DOPC   D2A  354  22.640   1.282  14.478  0.2620 -0.0481 -0.0669
   30DOPC   C3A  355  22.529   1.466  14.071  0.0133  0.0184  0.1477
   30DOPC   C4A  356  22.794   1.488  13.632 -0.0199  0.0515 -0.2914
   30DOPC   C1B  357  23.398   1.565  14.812  0.0841 -0.1466  0.1626
   30DOPC   D2B  358  23.513   1.559  14.314  0.1302  0.1657 -0.0223
   30DOPC   C3B  359  23.679   1.579  13.923 -0.5110  0.0651  0.0921
   30DOPC   C4B  360  23.930   1.309  13.546  0.3233 -0.0472  0.3870
   31DOPC   NC3  361  21.373   2.862  16.121 -0.2083 -0.0376 -0.1222
   31DOPC   PO4  362  21.240   2.555  15.913  0.0642 -0.0193  0.2511
   31DOPC   GL1  363  21.472   2.463  15.531 -0.0706 -0.0285  0.3851
   31DOPC   GL2  364  21.652   2.590  15.654 -0.0149  0.2758 -0.1476
   31DOPC   C1A  365  21.388   2.670  15.227  0.2127  0.1814  0.3577
   31DOPC   D2A  366  21.294   2.941  14.810 -0.4129  0.0159  0.1591
   31DOPC   C3A  367  21.456   3.048  14.434  0.0050 -0.1735  0.0180
   31DOPC   C4A  368  21.672   2.938  13.976 -0.0959 -0.0893 -0.0339
   31DOPC   C1B  369  21.961   2.607  15.314 -0.0608  0.2065  0.1173
   31DOPC   D2B  370  22.075   2.510  14.812 -0.0195 -0.0262  0.0473
   31DOPC   C3B  371  21.979   2.686  14.401  0.1030  0.1062 -0.3570
   31DOPC   C4B  372  22.189   2.923  14.008  0.0098  0.0418  0.0734
   32DOPC   NC3  373  25.336   3.551  15.344  0.2098 -0.5097 -0.2236
   32DOPC   PO4  374  25.421   3.915  15.443 -0.1204 -0.0699  0.1817
   32DOPC   GL1  375  25.265   4.052  15.163 -0.2578 -0.3836 -0.1276
   32DOPC   GL2  376  24.977   3.952  15.284 -0.0618  0.4109 -0.2343
   32DOPC   C1A  377  25.191   4.236  14.720 -0.0792 -0.1207 -0.1559
   32DOPC   D2A  378  25.282   4.273  14.247  0.1888 -0.2051  0.0931
   32DOPC   C3A  379  25.122   4.222  13.810 -0.1325  0.1492 -0.0473
   32DOPC   C4A  380  25.343   4.033  13.432 -0.2699 -0.2518  0.0906
   32DOPC   C1B  381  24.757   4.148  14.993 -0.1584 -0.2185  0.0963
   32DOPC   D2B  382  24.579   4.260  14.636 -0.1488 -0.1673  0.1771
   32DOPC   C3B  383  24.807   4.476  14.264 -0.1514 -0.0594 -0.1974
   32DOPC   C4B  384  25.221   4.676  13.956  0.1863  0.0439 -0.0660
   33DOPC   NC3  385  26.909   4.642  15.347  0.0281 -0.1465 -0.0523
   33DOPC   PO4  386  26.549   4.534  15.356  0.0825 -0.1642  0.0621
   33DOPC   GL1  387  26.376   4.468  15.018 -0.3476 -0.1938  0.1225
   33DOPC   GL2  388  26.553   4.707  14.914 -0.2610 -0.4599  0.0852
   33DOPC   C1A  389  26.325   4.167  14.709 -0.2407 -0.1453  0.0551
   33DOPC   D2A  390  26.257   3.765  14.429 -0.2147 -0.0522 -0.0060
   33DOPC   C3A  391  26.110   3.835  13.963 -0.0830 -0.2355  0.0263
   33DOPC   C4A  392  26.027   4.009  13.523  0.1424 -0.1444  0.3620
   33DOPC   C1B  393  26.672   4.808  14.526 -0.1557  0.0943  0.0181
   33DOPC   D2B  394  27.075   4.807  14.256  0.1510  0.2594  0.2194
   33DOPC   C3B  395  26.971   4.953  13.774 -0.2529  0.0351  0.0178
   33DOPC   C4B  396  26.759   5.107  13.395  0.2222 -0.0480  0.1775
   34DOPC   NC3  397   7.522   4.869  15.019 -0.0311  0.0396  0.1640
   34DOPC   PO4  398   7.824   5.038  14.883 -0.0769 -0.1630  0.1342
   34DOPC   GL1  399   7.907   5.124  14.466  0.2589  0.0081 -0.1050
   34DOPC   GL2  400   8.118   5.189  14.534  0.2787 -0.2095  0.0086
   34DOPC   C1A  401   7.829   5.161  14.040 -0.0244 -0.0108  0.0465
   34DOPC   D2A  402   7.954   5.152  13.549  0.1255  0.3508 -0.1177
   34DOPC   C3A  403   8.259   5.360  13.272 -0.1889 -0.0005 -0.1410
   34DOPC   C4A  404   8.659   5.533  13.052 -0.4485  0.3625  0.0451
   34DOPC   C1B  405   8.289   5.320  14.169  0.4072 -0.0973 -0.0882
   34DOPC   D2B  406   8.477   5.269  13.693 -0.1755 -0.0978  0.1518
   34DOPC   C3B  407   8.514   5.712  13.467 -0.2723  0.2050  0.0084
   34DOPC   C4B  408   8.617   6.022  13.068 -0.1417 -0.0245  0.0159
   35DOPC   NC3  409  26.987   0.099  15.444  0.0064 -0.0424 -0.2697
   35DOPC   PO4  410  26.963   0.462  15.328  0.0160  0.0126  0.1251
   35DOPC   GL1  411  26.736   0.465  14.982 -0.1510  0.0229 -0.1311
   35DOPC   GL2  412  26.734   0.169  14.951 -0.0329 -0.1556  0.0734
   35DOPC   C1A  413  26.672   0.516  14.575 -0.0690 -0.0582 -0.0744
   35DOPC   D2A  414  26.654   0.258  14.187  0.0106 -0.1208  0.1452
   35DOPC   C3A  415  26.295   0.446  13.989  0.1403  0.1886  0.2724
   35DOPC   C4A  416  26.048   0.581  13.606  0.2186 -0.0082 -0.1584
   35DOPC   C1B  417  26.962   0.023  14.612 -0.2978 -0.0165 -0.2338
   35DOPC   D2B  418  26.832  -0.257  14.231 -0.1095 -0.1297  0.0814
   35DOPC   C3B  419  26.964  -0.168  13.790 -0.1762  0.0381 -0.0247
   35DOPC   C4B  420  27.176  -0.414  13.397  0.2443 -0.0564 -0.3269
   36DOPC   NC3  421  26.259   0.536  15.780  0.2517  0.1210 -0.0769
   36DOPC   PO4  422  26.149   0.147  15.671  0.1398  0.1950 -0.1198
   36DOPC   GL1  423  26.501   0.071  15.387 -0.0967 -0.0505 -0.0515
   36DOPC   GL2  424  26.467   0.325  15.326 -0.0203  0.2427  0.1258
   36DOPC   C1A  425  26.317  -0.123  15.002  0.0703 -0.0636  0.3849
   36DOPC   D2A  426  26.319   0.032  14.508 -0.2109  0.0249 -0.0491
   36DOPC   C3A  427  26.043   0.037  14.131  0.0408 -0.0409 -0.0031
   36DOPC   C4A  428  25.724   0.229  13.777  0.3479  0.0972  0.2001
   36DOPC   C1B  429  26.312   0.353  14.901  0.1683  0.0330  0.0055
   36DOPC   D2B  430  26.145   0.545  14.473 -0.0452  0.0668 -0.1047
   36DOPC   C3B  431  26.440   0.839  14.205 -0.2146 -0.0911 -0.1855
   36DOPC   C4B  432  26.362   1.219  13.839  0.0214 -0.0532 -0.0846
   37DOPC   NC3  433  17.814   0.165  14.891 -0.3009  0.0043 -0.1157
   37DOPC   PO4  434  17.794   0.557  14.958 -0.0685 -0.2594  0.0109
   37DOPC   GL1  435  17.759   0.819  14.645  0.1686 -0.0877 -0.0425
   37DOPC   GL2  436  18.056   0.695  14.632 -0.4396  0.3855  0.0178
   37DOPC   C1A  437  17.842   0.870  14.198 -0.0915  0.1899 -0.0443
   37DOPC   D2A  438  17.893   1.018  13.739 -0.2426 -0.0034 -0.1512
   37DOPC   C3A  439  17.943   1.375  13.480  0.1532 -0.1202 -0.1821
   37DOPC   C4A  440  18.275   1.728  13.372 -0.3351  0.0707  0.1924
   37DOPC   C1B  441  18.377   0.714  14.267  0.0599  0.2007 -0.0099
   37DOPC   D2B  442  18.579   0.524  13.825 -0.1235  0.0171 -0.2062
   37DOPC   C3B  443  18.554   0.530  13.391  0.4919 -0.0086 -0.2203
   37DOPC   C4B  444  18.668   0.458  12.943 -0.1918  0.1309  0.0109
   38DOPC   NC3  445  11.389   1.472  15.528 -0.3668  0.0970 -0.1086
   38DOPC   PO4  446  11.666   1.680  15.337  0.0399  0.2755 -0.2565
   38DOPC   GL1  447  11.600   1.427  14.993 -0.0904  0.0806  0.0007
   38DOPC   GL2  448  11.565   1.704  14.868  0.1109 -0.0786 -0.0981
   38DOPC   C1A  449  11.908   1.288  14.770  0.1449  0.1467 -0.2068
   38DOPC   D2A  450  12.206   1.161  14.403  0.2651  0.0857 -0.1209
   38DOPC   C3A  451  12.105   1.370  13.969  0.1323 -0.0355 -0.2316
   38DOPC   C4A  452  11.887   1.388  13.512 -0.2327  0.2016 -0.0239
   38DOPC   C1B  453  11.505   1.858  14.458  0.3398 -0.0454 -0.1634
   38DOPC   D2B  454  11.466   2.279  14.234 -0.4548 -0.0821 -0.1625
   38DOPC   C3B  455  11.354   2.607  13.993  0.1022  0.4616 -0.5160
   38DOPC   C4B  456  11.187   2.544  13.543 -0.0436 -0.1913 -0.1881
   39DOPC   NC3  457   9.037   3.488  15.098  0.0497  0.1185 -0.0456
   39DOPC   PO4  458   9.252   3.227  15.276  0.1411  0.1384 -0.0299
   39DOPC   GL1  459   9.206   2.813  15.219 -0.1552  0.1685 -0.2133
   39DOPC   GL2  460   8.940   2.857  15.172 -0.2562  0.3931  0.1258
   39DOPC   C1A  461   9.474   2.431  15.056  0.2340 -0.5022 -0.0539
   39DOPC   D2A  462   9.866   2.177  14.885  0.1434 -0.0564  0.0509
   39DOPC   C3A  463  10.322   2.363  14.838 -0.0477 -0.1191  0.0725
   39DOPC   C4A  464  10.847   2.359  14.785 -0.0964  0.0423  0.1180
   39DOPC   C1B  465   8.695   2.937  14.766  0.0865  0.2341 -0.0217
   39DOPC   D2B  466   8.639   2.949  14.266  0.1029 -0.1267  0.1097
   39DOPC   C3B  467   8.906   2.987  13.856  0.0519  0.0462  0.0331
   39DOPC   C4B  468   9.111   2.971  13.414  0.3172 -0.0261  0.3706
   40DOPC   NC3  469  10.927   5.841  15.122  0.0706  0.0077  0.0962
   40DOPC   PO4  470  10.548   5.723  15.156 -0.0387  0.0507 -0.1620
   40DOPC   GL1  471  10.649   5.723  14.745  0.0846  0.2772  0.3707
   40DOPC   GL2  472  10.434   5.922  14.781 -0.0126  0.2237  0.4042
   40DOPC   C1A  473  10.658   5.493  14.375  0.3094 -0.3125  0.1281
   40DOPC   D2A  474  10.910   5.603  13.985 -0.1615 -0.4141 -0.0889
   40DOPC   C3A  475  10.933   5.254  13.620  0.0058  0.0005 -0.3252
   40DOPC   C4A  476  10.943   4.834  13.353  0.1557  0.1801  0.0550
   40DOPC   C1B  477  10.232   5.895  14.400 -0.0896  0.1272 -0.2072
   40DOPC   D2B  478   9.851   5.618  14.110 -0.1826 -0.1202 -0.3244
   40DOPC   C3B  479   9.839   5.251  13.801  0.2452  0.1554 -0.1820
   40DOPC   C4B  480   9.775   5.006  13.425  0.1398  0.0790  0.1007
   41DOPC   NC3  481   1.044   1.408  15.222 -0.2112  0.1641  0.0505
   41DOPC   PO4  482   0.686   1.451  15.388 -0.1911  0.1663 -0.3182
   41DOPC   GL1  483   0.418   1.296  15.062  0.0590 -0.1028 -0.0329
   41DOPC   GL2  484   0.708   1.313  14.950 -0.0883  0.0440 -0.1795
   41DOPC   C1A  485   0.109   0.923  14.832 -0.4829  0.2274 -0.0644
   41DOPC   D2A  486  -0.222   0.583  14.751 -0.0928  0.4289 -0.2446
   41DOPC   C3A  487  -0.134   0.309  14.366 -0.0501  0.0138  0.2499
   41DOPC   C4A  488  -0.028   0.072  13.880  0.0864  0.0907  0.1665
   41DOPC   C1B  489   0.546   1.723  14.815  0.1560 -0.0502  0.2845
   41DOPC   D2B  490   0.484   1.676  14.333 -0.4438  0.2327 -0.3585
   41DOPC   C3B  491   0.400   1.513  13.876 -0.1806 -0.0754 -0.0680
   41DOPC   C4B  492   0.430   1.578  13.419 -0.0535  0.3972 -0.0161
   42DOPC   NC3  493   3.217   2.961  15.279  0.0309  0.0655 -0.0853
   42DOPC   PO4  494   2.996   3.271  15.132 -0.0757  0.0726 -0.1988
   42DOPC   GL1  495   2.999   3.550  14.814  0.1293  0.1141  0.1177
   42DOPC   GL2  496   3.083   3.740  14.807 -0.1112  0.3283 -0.0606
   42DOPC   C1A  497   3.022   3.382  14.403 -0.0928  0.0062  0.3414
   42DOPC   D2A  498   3.084   3.283  13.894 -0.1803 -0.1753  0.1062
   42DOPC   C3A  499   3.076   3.355  13.409  0.1006 -0.3761 -0.1606
   42DOPC   C4A  500   3.028   3.331  12.932 -0.0704  0.0406 -0.1062
   42DOPC   C1B  501   2.755   3.910  14.428  0.1121  0.0751  0.2317
   42DOPC   D2B  502   2.573   4.173  14.068  0.0795 -0.0153 -0.0178
   42DOPC   C3B  503   2.502   4.134  13.612 -0.0385  0.1784  0.1351
   42DOPC   C4B  504   2.369   4.010  13.114 -0.1732 -0.2059  0.1025
   43DOPC   NC3  505  26.643   1.482  15.761  0.2181 -0.0114 -0.1378
   43DOPC   PO4  506  26.481   1.248  15.511  0.5170 -0.0886 -0.0024
   43DOPC   GL1  507  26.640   1.371  15.096  0.1843  0.0987 -0.3465
   43DOPC   GL2  508  26.337   1.415  15.054 -0.1172 -0.2670 -0.2040
   43DOPC   C1A  509  26.770   1.535  14.748 -0.0880  0.1255  0.1810
   43DOPC   D2A  510  26.818   1.647  14.256 -0.0152 -0.1297 -0.0935
   43DOPC   C3A  511  26.732   1.998  13.927  0.2780  0.1376  0.1038
   43DOPC   C4A  512  26.447   2.021  13.533  0.3851  0.0397 -0.2503
   43DOPC   C1B  513  26.303   1.688  14.695  0.0076  0.1551 -0.0978
   43DOPC   D2B  514  26.340   1.848  14.259 -0.0745 -0.0085 -0.0250
   43DOPC   C3B  515  26.094   1.626  13.928  0.0131  0.0252  0.1197
   43DOPC   C4B  516  25.815   1.345  13.677  0.0388  0.0149  0.1313
   44DOPC   NC3  517  12.942   3.849  14.627  0.1295  0.0502  0.1482
   44DOPC   PO4  518  13.142   4.194  14.642  0.0328  0.0544  0.0172
   44DOPC   GL1  519  13.039   4.205  14.181  0.1507  0.0017  0.0869
   44DOPC   GL2  520  13.217   4.037  14.161 -0.0117 -0.4249 -0.0443
   44DOPC   C1A  521  12.972   4.464  13.926 -0.0093  0.0597 -0.1144
   44DOPC   D2A  522  12.846   4.681  13.525 -0.0373 -0.0555 -0.1331
   44DOPC   C3A  523  13.104   4.451  13.265  0.2751  0.1548 -0.0940
   44DOPC   C4A  524  13.484   4.362  13.024  0.0114 -0.0381 -0.2411
   44DOPC   C1B  525  13.352   3.735  13.829  0.2202 -0.0073 -0.0179
   44DOPC   D2B  526  13.323   3.357  13.448  0.1206 -0.0509  0.4754
   44DOPC   C3B  527  13.261   2.914  13.389 -0.0359  0.1003 -0.1814
   44DOPC   C4B  528  13.114   2.531  13.121  0.2873  0.3036  0.1195
   45DOPC   NC3  529  17.905   4.805  15.056 -0.2160  0.1260  0.0207
   45DOPC   PO4  530  18.228   5.058  15.061  0.0367 -0.2428 -0.0604
   45DOPC   GL1  531  18.439   5.174  14.673 -0.3961  0.5333  0.0225
   45DOPC   GL2  532  18.691   5.002  14.798  0.2229 -0.2552  0.3162
   45DOPC   C1A  533  18.408   5.106  14.275  0.0445 -0.2114 -0.0244
   45DOPC   D2A  534  18.235   4.988  13.855 -0.0490  0.0805  0.1627
   45DOPC   C3A  535  18.278   4.699  13.480  0.1262 -0.3323  0.1368
   45DOPC   C4A  536  18.152   4.541  13.007  0.1709 -0.0491 -0.0836
   45DOPC   C1B  537  19.054   5.044  14.487  0.0954  0.3291  0.0085
   45DOPC   D2B  538  19.379   5.256  14.205 -0.0679 -0.4495  0.0002
   45DOPC   C3B  539  19.523   5.388  13.834  0.2301  0.1283  0.1220
   45DOPC   C4B  540  19.797   5.678  13.472 -0.2090  0.1242  0.0538
   46DOPC   NC3  541  18.508   4.285  15.471 -0.3046  0.0338  0.1041
   46DOPC   PO4  542  18.924   4.172  15.438 -0.2125 -0.1642  0.1830
   46DOPC   GL1  543  18.813   4.176  15.064  0.3275 -0.2051  0.0866
   46DOPC   GL2  544  19.098   4.278  15.072  0.0308 -0.0840 -0.0526
   46DOPC   C1A  545  18.842   4.025  14.668 -0.2181 -0.0808  0.1958
   46DOPC   D2A  546  18.693   4.003  14.221  0.2311 -0.0250  0.0874
   46DOPC   C3A  547  18.923   3.821  13.862 -0.2958 -0.2004 -0.0084
   46DOPC   C4A  548  18.990   3.682  13.356 -0.5134 -0.0161  0.0807
   46DOPC   C1B  549  19.404   4.284  14.726 -0.1281 -0.2114 -0.2626
   46DOPC   D2B  550  19.680   4.259  14.335  0.1053 -0.2898 -0.0238
   46DOPC   C3B  551  20.081   4.143  14.079 -0.0722  0.1687  0.1436
   46DOPC   C4B  552  20.384   3.787  13.896  0.0404 -0.0758 -0.1624
   47DOPC   NC3  553  21.469   7.769  15.935  0.2817 -0.0793 -0.0218
   47DOPC   PO4  554  21.467   7.386  15.857 -0.0097  0.0645  0.0193
   47DOPC   GL1  555  21.569   7.171  15.604  0.2767 -0.0474  0.0138
   47DOPC   GL2  556  21.847   7.173  15.615 -0.1064  0.2827  0.1226
   47DOPC   C1A  557  21.579   7.178  15.166  0.0235 -0.1953 -0.0214
   47DOPC   D2A  558  21.753   7.383  14.712 -0.1637  0.0767  0.0481
   47DOPC   C3A  559  21.516   7.618  14.375  0.0618  0.3797 -0.1219
   47DOPC   C4A  560  21.347   7.872  13.999 -0.0744 -0.0692  0.0525
   47DOPC   C1B  561  21.967   7.410  15.206 -0.3699 -0.3626  0.0835
   47DOPC   D2B  562  22.262   7.728  14.910  0.0719  0.0204  0.1657
   47DOPC   C3B  563  22.614   8.093  14.739 -0.1607 -0.2654  0.0732
   47DOPC   C4B  564  23.019   7.950  14.558 -0.2300 -0.2813  0.1164
   48DOPC   NC3  565   5.289   7.569  15.250 -0.1025  0.2208  0.1012
   48DOPC   PO4  566   5.171   7.262  15.021 -0.0845  0.1700  0.1883
   48DOPC   GL1  567   5.133   7.212  14.616 -0.0932 -0.2914 -0.0789
   48DOPC   GL2  568   5.415   7.357  14.562  0.0334  0.0586  0.0529
   48DOPC   C1A  569   5.025   7.147  14.190  0.1959  0.1143  0.3218
   48DOPC   D2A  570   5.096   6.988  13.745  0.1594  0.0366 -0.1508
   48DOPC   C3A  571   4.761   7.162  13.455  0.0106  0.3795 -0.0763
   48DOPC   C4A  572   4.418   7.169  13.117 -0.0361  0.0856  0.1611
   48DOPC   C1B  573   5.555   7.206  14.140  0.0240  0.0193 -0.2162
   48DOPC   D2B  574   5.495   7.208  13.601 -0.0145 -0.1537 -0.0696
   48DOPC   C3B  575   5.199   7.434  13.430 -0.1774  0.2517  0.1770
   48DOPC   C4B  576   4.817   7.604  13.237 -0.1525  0.1073 -0.1588
   49DOPC   NC3  577   3.710   5.452  15.137 -0.3030  0.0382 -0.0559
   49DOPC   PO4  578   3.937   5.808  15.263 -0.2647  0.0474 -0.1315
   49DOPC   GL1  579   4.047   5.706  14.890  0.1733  0.2420  0.1915
   49DOPC   GL2  580   3.747   5.767  14.788  0.1497 -0.2611  0.1662
   49DOPC   C1A  581   4.279   5.953  14.611 -0.0899 -0.0399  0.1036
   49DOPC   D2A  582   4.669   6.226  14.397  0.0384 -0.2437  0.2474
   49DOPC   C3A  583   4.686   6.343  13.987  0.0241  0.1686 -0.1473
   49DOPC   C4A  584   4.660   6.531  13.545 -0.2314  0.1732 -0.3510
   49DOPC   C1B  585   3.791   6.097  14.520  0.0819 -0.2296 -0.1822
   49DOPC   D2B  586   3.580   6.110  14.109  0.0403  0.3575  0.4227
   49DOPC   C3B  587   3.571   6.379  13.780  0.3080 -0.2037  0.3876
   49DOPC   C4B  588   3.697   6.817  13.550 -0.2101 -0.0841  0.0804
   50DOPC   NC3  589  23.087   6.952  15.617 -0.1745  0.2093 -0.0664
   50DOPC   PO4  590  23.392   7.019  15.358  0.0212 -0.1515  0.1226
   50DOPC   GL1  591  23.470   7.049  14.956 -0.0047  0.1706  0.0745
   50DOPC   GL2  592  23.272   6.771  14.911 -0.1068  0.1385 -0.4118
   50DOPC   C1A  593  23.651   7.250  14.683 -0.2427 -0.1484  0.3375
   50DOPC   D2A  594  23.848   7.379  14.272 -0.0705  0.0368 -0.3174
   50DOPC   C3A  595  23.486   7.426  13.971 -0.3451  0.0913 -0.0958
   50DOPC   C4A  596  23.084   7.412  13.713  0.1165  0.1783 -0.0751
   50DOPC   C1B  597  23.371   6.563  14.585 -0.3372  0.0521  0.3555
   50DOPC   D2B  598  23.278   6.467  14.122  0.0245  0.1207  0.0543
   50DOPC   C3B  599  23.605   6.487  13.790  0.0798  0.1825  0.0826
   50DOPC   C4B  600  23.909   6.612  13.376  0.1470  0.0526 -0.4293
   51DOPC   NC3  601  15.292   5.293  15.034  0.0659  0.3549  0.0221
   51DOPC   PO4  602  15.529   5.347  14.720  0.2193 -0.0791 -0.0342
   51DOPC   GL1  603  15.391   5.213  14.404 -0.0413  0.2184  0.0567
   51DOPC   GL2  604  15.665   5.032  14.332 -0.1504 -0.0863  0.2036
   51DOPC   C1A  605  15.404   5.465  14.004 -0.3898  0.0951  0.1272
   51DOPC   D2A  606  15.352   5.182  13.629  0.0258 -0.2053 -0.0446
   51DOPC   C3A  607  15.443   4.969  13.207 -0.3052 -0.1131 -0.1944
   51DOPC   C4A  608  15.604   4.674  12.833  0.1247 -0.2790  0.0972
   51DOPC   C1B  609  15.817   5.065  13.961  0.2316  0.2023  0.1369
   51DOPC   D2B  610  15.831   4.938  13.503  0.0753 -0.2826  0.1702
   51DOPC   C3B  611  15.956   4.592  13.200  0.0302 -0.0582  0.1667
   51DOPC   C4B  612  16.254   4.159  13.131  0.1522 -0.0517 -0.1631
   52DOPC   NC3  613  12.961   1.245  15.245 -0.0935 -0.1711  0.1334
   52DOPC   PO4  614  13.307   1.400  15.142 -0.2941 -0.1208 -0.0135
   52DOPC   GL1  615  13.480   1.279  14.759  0.0569 -0.1273 -0.3393
   52DOPC   GL2  616  13.659   1.521  14.839 -0.0446 -0.0495  0.1313
   52DOPC   C1A  617  13.379   1.292  14.314 -0.0872 -0.0568  0.1488
   52DOPC   D2A  618  13.407   1.316  13.818  0.0005 -0.1975  0.0642
   52DOPC   C3A  619  13.205   1.673  13.539 -0.0665  0.1213  0.0168
   52DOPC   C4A  620  12.976   2.089  13.427 -0.1096 -0.0884  0.1494
   52DOPC   C1B  621  13.808   1.551  14.424  0.1768  0.0799 -0.0804
   52DOPC   D2B  622  14.031   1.494  13.930  0.2427 -0.0853 -0.0313
   52DOPC   C3B  623  14.178   1.865  13.790  0.3015 -0.1147  0.0110
   52DOPC   C4B  624  14.362   2.182  13.471 -0.0017  0.0612  0.0071
   53DOPC   NC3  625  27.552   0.873  15.563  0.0582 -0.0636  0.1135
   53DOPC   PO4  626  27.885   0.753  15.372  0.1381  0.1605  0.1904
   53DOPC   GL1  627  27.745   0.818  15.009  0.0362 -0.1998  0.4208
   53DOPC   GL2  628  27.907   0.530  15.026  0.1414  0.0802 -0.0117
   53DOPC   C1A  629  27.648   0.713  14.648  0.1525 -0.1864 -0.1010
   53DOPC   D2A  630  27.732   0.638  14.156 -0.1674 -0.0076 -0.0074
   53DOPC   C3A  631  27.997   0.859  13.862  0.0730  0.0596 -0.0359
   53DOPC   C4A  632  28.222   0.842  13.420 -0.0048  0.0701  0.2520
   53DOPC   C1B  633  27.917   0.235  14.729  0.0204  0.1971 -0.0695
   53DOPC   D2B  634  28.112  -0.170  14.499 -0.2866  0.1567 -0.0204
   53DOPC   C3B  635  28.436  -0.337  14.129  0.0064 -0.2453 -0.3419
   53DOPC   C4B  636  28.519  -0.147  13.680 -0.0833  0.1996  0.2447
   54DOPC   NC3  637   1.528   5.943  15.433  0.2253  0.0821  0.0353
   54DOPC   PO4  638   1.932   6.002  15.332  0.0664  0.0983  0.0768
   54DOPC   GL1  639   2.033   5.949  14.925 -0.0621 -0.1293  0.0582
   54DOPC   GL2  640   2.043   6.124  14.781 -0.2492  0.1583  0.1867
   54DOPC   C1A  641   2.018   5.565  14.655 -0.2000  0.1115  0.1106
   54DOPC   D2A  642   1.925   5.117  14.357 -0.0871  0.0131 -0.0028
   54DOPC   C3A  643   1.951   5.241  13.873  0.0379  0.2179  0.1802
   54DOPC   C4A  644   1.994   5.392  13.425 -0.1918 -0.1177  0.1282
   54DOPC   C1B  645   2.158   6.152  14.374  0.1254 -0.2522  0.3552
   54DOPC   D2B  646   2.266   6.048  13.878  0.1126 -0.0002  0.0238
   54DOPC   C3B  647   2.742   5.833  13.903 -0.0175  0.1023 -0.0999
   54DOPC   C4B  648   2.874   5.868  13.454 -0.1907  0.0007  0.0951
   55DOPC   NC3  649  28.151   2.169  15.275 -0.0287 -0.1941 -0.1858
   55DOPC   PO4  650  28.157   1.769  15.325 -0.2005 -0.3441  0.2812
   55DOPC   GL1  651  28.050   1.506  14.935  0.0036 -0.2146  0.1345
   55DOPC   GL2  652  28.047   1.790  14.856  0.2651  0.2575 -0.0038
   55DOPC   C1A  653  27.811   1.216  14.807 -0.1333 -0.1622  0.0222
   55DOPC   D2A  654  27.340   1.124  14.724  0.0963  0.1045 -0.0665
   55DOPC   C3A  655  27.325   0.931  14.260  0.0281  0.1350  0.0272
   55DOPC   C4A  656  27.318   0.680  13.828 -0.0763  0.0279 -0.1441
   55DOPC   C1B  657  28.343   2.071  14.661  0.0322  0.0493 -0.0874
   55DOPC   D2B  658  28.722   2.368  14.534 -0.1151  0.0119 -0.1656
   55DOPC   C3B  659  28.718   2.508  14.109 -0.2540 -0.0988 -0.0369
   55DOPC   C4B  660  28.477   2.605  13.732  0.0151 -0.2193  0.1093
   56DOPC   NC3  661  29.340   3.116  15.405 -0.1120 -0.0870  0.0345
   56DOPC   PO4  662  29.282   2.782  15.197 -0.1232  0.0650  0.0939
   56DOPC   GL1  663  29.114   2.768  14.875  0.1722 -0.0534  0.2716
   56DOPC   GL2  664  28.834   2.733  14.950  0.3391 -0.0613  0.0595
   56DOPC   C1A  665  29.157   2.710  14.445  0.0562 -0.1301  0.0324
   56DOPC   D2A  666  29.155   2.836  13.968  0.1713 -0.0626  0.2513
   56DOPC   C3A  667  29.439   2.688  13.591 -0.0717 -0.0264  0.0419
   56DOPC   C4A  668  29.575   2.551  13.115 -0.1067 -0.1882 -0.0840
   56DOPC   C1B  669  28.658   2.832  14.562  0.1348 -0.3683  0.0577
   56DOPC   D2B  670  28.309   2.817  14.160  0.0692  0.0663  0.3559
   56DOPC   C3B  671  27.844   2.824  14.236  0.1829 -0.0978  0.0474
   56DOPC   C4B  672  27.757   2.953  14.697 -0.1203  0.2469 -0.1150
   57DOPC   NC3  673   6.277   7.214  15.758  0.0550  0.1805 -0.0384
   57DOPC   PO4  674   6.533   7.319  15.446  0.2287  0.1693 -0.2948
   57DOPC   GL1  675   6.509   7.273  14.970  0.0305  0.0416 -0.2017
   57DOPC   GL2  676   6.609   7.005  14.958 -0.0599 -0.3423  0.0818
   57DOPC   C1A  677   6.762   7.396  14.676 -0.0114  0.0649  0.4242
   57DOPC   D2A  678   6.715   7.242  14.205  0.0742 -0.0345 -0.1907
   57DOPC   C3A  679   6.804   7.223  13.797  0.0989  0.0376 -0.1970
   57DOPC   C4A  680   6.986   7.418  13.418  0.1811  0.0415  0.1607
   57DOPC   C1B  681   6.839   6.872  14.600 -0.0342  0.0063  0.0031
   57DOPC   D2B  682   6.926   6.773  14.113  0.4689  0.1046 -0.0086
   57DOPC   C3B  683   7.321   6.720  14.009  0.0742  0.0397 -0.0592
   57DOPC   C4B  684   7.793   6.585  13.862  0.0788 -0.1116 -0.0947
   58DOPC   NC3  685  27.116   5.791  15.588 -0.1132 -0.0746 -0.0320
   58DOPC   PO4  686  26.883   6.057  15.391 -0.0960  0.1589  0.1648
   58DOPC   GL1  687  26.834   6.208  14.987  0.2347  0.0772  0.2347
   58DOPC   GL2  688  26.586   6.097  15.112 -0.1471  0.1100  0.0744
   58DOPC   C1A  689  26.995   6.370  14.607 -0.1709  0.0038  0.0533
   58DOPC   D2A  690  27.182   6.559  14.231 -0.2942 -0.1698  0.0948
   58DOPC   C3A  691  27.015   6.579  13.809  0.0498  0.1175 -0.2646
   58DOPC   C4A  692  27.115   6.343  13.346 -0.0494  0.1231  0.0738
   58DOPC   C1B  693  26.294   5.876  14.936 -0.3322 -0.1469  0.1477
   58DOPC   D2B  694  26.080   5.559  14.697 -0.2440  0.1889  0.0880
   58DOPC   C3B  695  25.939   5.504  14.265  0.1643 -0.1452 -0.1332
   58DOPC   C4B  696  25.594   5.250  14.013 -0.0997 -0.1153 -0.2889
   59DOPC   NC3  697   3.238   2.143  15.787  0.2116 -0.1540  0.1326
   59DOPC   PO4  698   3.024   2.106  15.408 -0.0012 -0.0770 -0.1968
   59DOPC   GL1  699   3.132   1.955  15.115  0.1348 -0.2716  0.2701
   59DOPC   GL2  700   3.036   1.661  15.081 -0.0583 -0.6104 -0.0853
   59DOPC   C1A  701   3.441   1.927  14.763  0.0117  0.3507 -0.3973
   59DOPC   D2A  702   3.619   1.907  14.340  0.2433 -0.0468 -0.0085
   59DOPC   C3A  703   3.896   1.695  14.166 -0.1894  0.1444 -0.0116
   59DOPC   C4A  704   4.151   1.326  13.912  0.1512  0.2381  0.1469
   59DOPC   C1B  705   3.103   1.473  14.775 -0.1015  0.0025  0.0066
   59DOPC   D2B  706   2.825   1.435  14.336 -0.3307  0.2751  0.0149
   59DOPC   C3B  707   2.498   1.741  14.313  0.2871  0.0598  0.0629
   59DOPC   C4B  708   2.222   2.125  14.136  0.1504  0.0426 -0.1459
   60DOPC   NC3  709  20.943   1.173  15.297 -0.1269 -0.1931  0.1921
   60DOPC   PO4  710  21.222   1.354  15.525  0.0062 -0.3172 -0.1637
   60DOPC   GL1  711  21.371   1.559  15.237 -0.0120 -0.0096  0.0747
   60DOPC   GL2  712  21.231   1.821  15.346  0.0099 -0.1065  0.1138
   60DOPC   C1A  713  21.462   1.799  14.935 -0.1213  0.0993 -0.2778
   60DOPC   D2A  714  21.587   2.009  14.528  0.0033 -0.0194 -0.0987
   60DOPC   C3A  715  21.669   2.089  14.084  0.0593  0.2013  0.2951
   60DOPC   C4A  716  21.479   1.992  13.584 -0.2198 -0.2436  0.1358
   60DOPC   C1B  717  20.907   2.049  15.082  0.0994  0.1515  0.1321
   60DOPC   D2B  718  20.622   2.124  14.665  0.1579  0.1626  0.0835
   60DOPC   C3B  719  20.719   2.183  14.234  0.1735  0.0292  0.0561
   60DOPC   C4B  720  20.720   2.157  13.697 -0.0425  0.0124  0.0083
   61DOPC   NC3  721  27.262   3.807  15.265 -0.3184 -0.0565  0.1627
   61DOPC   PO4  722  26.893   3.637  15.252  0.0137 -0.1546 -0.0565
   61DOPC   GL1  723  26.922   3.401  14.884 -0.0763 -0.1349  0.0955
   61DOPC   GL2  724  27.021   3.689  14.893 -0.3522  0.0224  0.0182
   61DOPC   C1A  725  26.598   3.287  14.735  0.3148 -0.0689  0.2410
   61DOPC   D2A  726  26.129   3.186  14.540  0.1798 -0.0549  0.1291
   61DOPC   C3A  727  25.775   2.933  14.343  0.1409 -0.2382 -0.3416
   61DOPC   C4A  728  25.352   2.743  14.034 -0.1156  0.3698  0.0297
   61DOPC   C1B  729  26.840   3.635  14.483  0.1011 -0.2722 -0.0521
   61DOPC   D2B  730  26.733   3.292  14.157  0.0389 -0.2497 -0.0748
   61DOPC   C3B  731  26.302   3.380  14.104 -0.0658  0.0735 -0.2925
   61DOPC   C4B  732  25.851   3.507  14.231  0.1606  0.0476 -0.0533
   62DOPC   NC3  733   6.299   2.449  15.685 -0.0052 -0.2844  0.0739
   62DOPC   PO4  734   6.544   2.132  15.615 -0.0461  0.1705  0.2212
   62DOPC   GL1  735   6.636   2.060  15.216 -0.0199  0.0590 -0.0722
   62DOPC   GL2  736   6.892   1.976  15.230 -0.0722  0.0672 -0.2615
   62DOPC   C1A  737   6.439   2.119  14.866 -0.2180  0.0526  0.0300
   62DOPC   D2A  738   6.365   2.619  14.709 -0.3632  0.0140  0.1282
   62DOPC   C3A  739   6.067   2.695  14.369 -0.0774 -0.1480 -0.1165
   62DOPC   C4A  740   6.171   2.899  13.967 -0.3132 -0.0434  0.2096
   62DOPC   C1B  741   7.225   2.075  14.996  0.1620 -0.0988 -0.1120
   62DOPC   D2B  742   7.480   2.104  14.560 -0.1478 -0.3324  0.1342
   62DOPC   C3B  743   7.616   1.792  14.259 -0.0366 -0.2010  0.2725
   62DOPC   C4B  744   7.676   1.557  13.820  0.2487  0.1457 -0.1752
   63DOPC   NC3  745  11.150   4.055  15.343 -0.2730  0.2233  0.0166
   63DOPC   PO4  746  11.413   3.776  15.267 -0.2202 -0.0017  0.0409
   63DOPC   GL1  747  11.589   3.611  14.916 -0.1767  0.0676  0.1942
   63DOPC   GL2  748  11.357   3.743  14.759  0.0601 -0.1740  0.2498
   63DOPC   C1A  749  11.685   3.217  14.860  0.0897 -0.4640 -0.3902
   63DOPC   D2A  750  11.725   2.819  14.694 -0.1913 -0.2759 -0.0943
   63DOPC   C3A  751  11.749   2.709  14.275  0.1077 -0.2657 -0.0651
   63DOPC   C4A  752  11.783   2.566  13.789  0.1230 -0.1766 -0.0223
   63DOPC   C1B  753  11.292   3.969  14.349  0.1411 -0.1112 -0.1106
   63DOPC   D2B  754  11.201   3.724  13.902  0.1222  0.1138  0.0648
   63DOPC   C3B  755  10.825   3.469  13.818  0.0433  0.0458  0.3713
   63DOPC   C4B  756  10.355   3.363  13.607 -0.3097 -0.0028 -0.1950
   64DOPC   NC3  757  11.178   7.454  14.855  0.0016 -0.1408  0.1302
   64DOPC   PO4  758  11.212   7.077  14.878  0.2624 -0.0628  0.1240
   64DOPC   GL1  759  10.955   6.972  14.569  0.1562  0.0274  0.1698
   64DOPC   GL2  760  10.920   6.706  14.650 -0.1050  0.2215 -0.1797
   64DOPC   C1A  761  10.905   7.052  14.109 -0.0083  0.2963 -0.1196
   64DOPC   D2A  762  10.823   7.226  13.687 -0.0121  0.2112  0.2599
   64DOPC   C3A  763  10.528   7.548  13.561  0.0659  0.0214  0.0283
   64DOPC   C4A  764  10.131   7.481  13.307  0.0959 -0.0419 -0.1348
   64DOPC   C1B  765  10.895   6.503  14.262  0.0368 -0.0278 -0.5723
   64DOPC   D2B  766  10.891   6.147  13.879 -0.1585 -0.1164 -0.2772
   64DOPC   C3B  767  11.244   5.997  13.704 -0.1127  0.1411  0.0729
   64DOPC   C4B  768  11.781   5.931  13.778  0.5078  0.2421 -0.0272
   65DOPC   NC3  769   1.648   3.183  14.939  0.3403 -0.1738 -0.3348
   65DOPC   PO4  770   1.356   3.012  15.157  0.0548 -0.0277  0.0479
   65DOPC   GL1  771   1.196   3.048  14.798 -0.1235  0.0917 -0.0982
   65DOPC   GL2  772   1.281   2.786  14.800 -0.0196 -0.0236  0.1328
   65DOPC   C1A  773   1.344   3.363  14.463 -0.2329  0.0664  0.0991
   65DOPC   D2A  774   1.746   3.624  14.338  0.1927 -0.0356 -0.3859
   65DOPC   C3A  775   2.075   3.457  14.055 -0.1578  0.1365 -0.0184
   65DOPC   C4A  776   2.174   3.261  13.576 -0.0541 -0.1593 -0.0324
   65DOPC   C1B  777   1.393   2.603  14.394  0.2288  0.2060 -0.1500
   65DOPC   D2B  778   1.281   2.785  13.945 -0.0553  0.2302  0.2010
   65DOPC   C3B  779   0.814   2.868  13.889 -0.0177 -0.0098  0.1447
   65DOPC   C4B  780   0.529   2.832  13.506 -0.0116 -0.0159 -0.4097
   66DOPC   NC3  781  15.888   6.818  15.226  0.2460  0.3077  0.2404
   66DOPC   PO4  782  16.153   6.672  14.950  0.2225 -0.0117 -0.0191
   66DOPC   GL1  783  16.251   6.780  14.566  0.1897  0.5362 -0.1761
   66DOPC   GL2  784  16.127   6.474  14.475 -0.0206 -0.0942  0.2559
   66DOPC   C1A  785  16.463   6.750  14.212  0.0882 -0.1895 -0.2845
   66DOPC   D2A  786  16.803   6.815  13.833  0.1179  0.0802  0.2417
   66DOPC   C3A  787  16.799   6.676  13.416  0.1049 -0.1663  0.0820
   66DOPC   C4A  788  16.904   6.392  12.970 -0.1097 -0.1939 -0.2438
   66DOPC   C1B  789  16.067   6.443  14.026 -0.3017 -0.1001 -0.2729
   66DOPC   D2B  790  16.272   6.406  13.554 -0.4202 -0.1410  0.1754
   66DOPC   C3B  791  16.449   6.298  13.109  0.0190 -0.2237  0.0281
   66DOPC   C4B  792  16.548   6.424  12.627 -0.0016 -0.2300  0.0554
   67DOPC   NC3  793  13.082   4.624  14.896 -0.0637 -0.1259 -0.2085
   67DOPC   PO4  794  12.764   4.396  14.849 -0.2679  0.1855 -0.0818
   67DOPC   GL1  795  12.667   4.267  14.477  0.4038  0.1061  0.0553
   67DOPC   GL2  796  12.536   3.973  14.502  0.0048 -0.0963 -0.3183
   67DOPC   C1A  797  12.554   4.581  14.252  0.0289 -0.0106 -0.3877
   67DOPC   D2A  798  12.062   4.653  14.034 -0.3735 -0.0622 -0.3721
   67DOPC   C3A  799  11.913   4.277  13.838 -0.2481  0.1570 -0.0221
   67DOPC   C4A  800  12.127   3.855  13.638  0.1356 -0.3437 -0.1220
   67DOPC   C1B  801  12.348   3.652  14.178  0.2796 -0.3532  0.3697
   67DOPC   D2B  802  12.023   3.439  13.954  0.5125  0.5017  0.0577
   67DOPC   C3B  803  12.069   2.969  13.902 -0.1551 -0.1339  0.0106
   67DOPC   C4B  804  12.384   2.723  13.695 -0.0486  0.0635  0.0653
   68DOPC   NC3  805  17.482   5.259  14.543 -0.3179  0.1521  0.1030
   68DOPC   PO4  806  17.467   4.916  14.801 -0.0393 -0.0283 -0.0494
   68DOPC   GL1  807  17.435   4.688  14.437 -0.1865  0.1091  0.2370
   68DOPC   GL2  808  17.265   4.500  14.652 -0.0357  0.0486  0.1136
   68DOPC   C1A  809  17.608   4.507  14.054 -0.0036 -0.0011 -0.4360
   68DOPC   D2A  810  17.755   4.257  13.644 -0.1115  0.1564 -0.0021
   68DOPC   C3A  811  17.361   4.085  13.400  0.1044  0.1064  0.1409
   68DOPC   C4A  812  17.048   3.678  13.492  0.1138 -0.3132 -0.1980
   68DOPC   C1B  813  17.304   4.250  14.326  0.1804  0.0527  0.3217
   68DOPC   D2B  814  17.289   4.135  13.878  0.4591 -0.3203  0.1256
   68DOPC   C3B  815  16.982   4.363  13.598 -0.0212 -0.0334 -0.0434
   68DOPC   C4B  816  16.915   4.748  13.338  0.1380  0.0533  0.2286
   69DOPC   NC3  817  26.320   2.639  15.128  0.0305  0.1758  0.0094
   69DOPC   PO4  818  26.043   2.443  15.245 -0.1678 -0.5386  0.1295
   69DOPC   GL1  819  25.990   2.194  15.069 -0.0087  0.0932  0.3973
   69DOPC   GL2  820  26.029   1.934  15.180  0.0589  0.0535 -0.0724
   69DOPC   C1A  821  25.747   2.095  14.737 -0.0435 -0.1492  0.1116
   69DOPC   D2A  822  25.361   1.962  14.496 -0.0377 -0.0622  0.0861
   69DOPC   C3A  823  25.594   2.152  14.127 -0.0826  0.0524 -0.3748
   69DOPC   C4A  824  25.594   2.333  13.695  0.0096 -0.1010  0.1999
   69DOPC   C1B  825  25.814   1.631  14.990  0.0667 -0.0499  0.1150
   69DOPC   D2B  826  25.912   1.211  14.810 -0.2716 -0.1861  0.0245
   69DOPC   C3B  827  25.854   0.906  14.461 -0.2151  0.1386  0.0637
   69DOPC   C4B  828  25.783   0.517  14.139 -0.0673  0.0225 -0.2131
   70DOPC   NC3  829  10.294   4.691  15.150  0.2441 -0.1555  0.0797
   70DOPC   PO4  830  10.318   4.316  15.010 -0.1560 -0.0692  0.0067
   70DOPC   GL1  831  10.447   4.363  14.570 -0.2791  0.0167  0.2239
   70DOPC   GL2  832  10.228   4.175  14.563  0.1022 -0.0238 -0.3795
   70DOPC   C1A  833  10.607   4.329  14.183  0.1776 -0.3458  0.1479
   70DOPC   D2A  834  10.839   4.189  13.759 -0.0740  0.1416  0.3821
   70DOPC   C3A  835  10.857   3.826  13.485 -0.0095  0.0557 -0.0043
   70DOPC   C4A  836  10.966   3.568  13.071 -0.1036  0.1606 -0.4031
   70DOPC   C1B  837  10.022   4.294  14.141 -0.1891 -0.1211 -0.0509
   70DOPC   D2B  838   9.985   4.184  13.673  0.0478  0.1621 -0.2128
   70DOPC   C3B  839   9.779   3.878  13.329 -0.0287 -0.1862  0.2960
   70DOPC   C4B  840   9.423   3.563  13.199 -0.0090  0.0594  0.0573
   71DOPC   NC3  841  19.458   3.111  15.278 -0.2993  0.3323 -0.0808
   71DOPC   PO4  842  19.229   3.345  15.195  0.2211 -0.0398  0.2037
   71DOPC   GL1  843  19.252   3.423  14.836 -0.0689  0.0519  0.1829
   71DOPC   GL2  844  19.234   3.745  14.737 -0.1510  0.2348 -0.0131
   71DOPC   C1A  845  19.452   3.249  14.541 -0.1184  0.3153 -0.1026
   71DOPC   D2A  846  19.761   3.225  14.140  0.1754 -0.0720 -0.1638
   71DOPC   C3A  847  19.908   3.571  13.804  0.1617  0.0545  0.3011
   71DOPC   C4A  848  20.072   3.936  13.497 -0.0086 -0.0879 -0.0340
   71DOPC   C1B  849  19.256   3.983  14.281 -0.1637  0.1294 -0.0670
   71DOPC   D2B  850  19.234   4.297  13.906 -0.1712 -0.1835  0.3533
   71DOPC   C3B  851  19.144   4.183  13.380  0.0137 -0.0962  0.2005
   71DOPC   C4B  852  19.462   4.307  12.995 -0.1217  0.0999 -0.1700
   72DOPC   NC3  853   5.149   4.101  15.525  0.0213  0.1694  0.1219
   72DOPC   PO4  854   5.071   4.477  15.400 -0.0533  0.1839 -0.1305
   72DOPC   GL1  855   5.164   4.287  15.045 -0.0735  0.0030 -0.1500
   72DOPC   GL2  856   5.472   4.297  15.166  0.1117  0.1000  0.0670
   72DOPC   C1A  857   5.224   4.313  14.622 -0.1567  0.2819 -0.0080
   72DOPC   D2A  858   5.339   4.014  14.212 -0.1798 -0.0113 -0.0154
   72DOPC   C3A  859   5.573   4.154  13.823  0.1166  0.2520  0.0719
   72DOPC   C4A  860   5.825   4.311  13.430  0.1613 -0.4719  0.0116
   72DOPC   C1B  861   5.651   4.481  14.778 -0.0051  0.2365 -0.1770
   72DOPC   D2B  862   5.667   4.353  14.302  0.1880  0.0001 -0.1899
   72DOPC   C3B  863   5.695   4.649  13.931  0.2231 -0.0073  0.0497
   72DOPC   C4B  864   5.658   4.831  13.441 -0.1552  0.3148  0.0007
   73DOPC   NC3  865  20.290   6.938  15.921  0.1769 -0.1203  0.2125
   73DOPC   PO4  866  20.670   7.072  15.912  0.0405 -0.1780  0.0563
   73DOPC   GL1  867  20.814   7.145  15.568 -0.0893 -0.1109  0.0508
   73DOPC   GL2  868  21.012   7.366  15.539 -0.0595 -0.2499 -0.4947
   73DOPC   C1A  869  20.887   6.939  15.221 -0.2825 -0.2045 -0.2715
   73DOPC   D2A  870  20.821   6.771  14.765 -0.2884  0.3425 -0.0457
   73DOPC   C3A  871  20.473   6.893  14.459 -0.2538  0.0674  0.1006
   73DOPC   C4A  872  20.351   6.975  13.997 -0.0445 -0.1820 -0.0501
   73DOPC   C1B  873  20.754   7.549  15.210  0.2657 -0.1769 -0.2785
   73DOPC   D2B  874  20.525   7.733  14.803  0.1619  0.1257  0.0763
   73DOPC   C3B  875  20.618   7.844  14.334 -0.3884 -0.1116  0.1201
   73DOPC   C4B  876  20.593   8.150  13.968  0.1070 -0.0278  0.2627
   74DOPC   NC3  877   4.818   5.020  15.341 -0.2884  0.1771 -0.0530
   74DOPC   PO4  878   4.616   4.702  15.278 -0.0205  0.2144  0.3800
   74DOPC   GL1  879   4.506   4.641  14.849  0.2480  0.0051 -0.1556
   74DOPC   GL2  880   4.617   4.905  14.792 -0.0736  0.1323 -0.1445
   74DOPC   C1A  881   4.481   4.284  14.636  0.1029  0.0559 -0.2300
   74DOPC   D2A  882   4.371   3.987  14.208 -0.1114  0.3661 -0.1879
   74DOPC   C3A  883   4.424   4.017  13.740 -0.1426 -0.0528 -0.2956
   74DOPC   C4A  884   4.718   4.069  13.309 -0.0049  0.0899 -0.1327
   74DOPC   C1B  885   4.753   4.644  14.424  0.3726  0.1931  0.0512
   74DOPC   D2B  886   4.656   4.461  13.993  0.0900  0.1269  0.1528
   74DOPC   C3B  887   4.639   4.583  13.504  0.0725 -0.1639  0.2169
   74DOPC   C4B  888   4.341   4.523  13.089  0.2723  0.1382 -0.1169
   75DOPC   NC3  889  11.510   0.609  14.614 -0.0872  0.0246  0.1377
   75DOPC   PO4  890  11.129   0.698  14.785  0.1205 -0.2688 -0.4617
   75DOPC   GL1  891  10.863   0.892  14.476  0.1315  0.0122  0.1532
   75DOPC   GL2  892  10.933   1.116  14.624 -0.1787 -0.0280  0.1848
   75DOPC   C1A  893  10.819   1.024  13.991  0.0944 -0.0338 -0.0361
   75DOPC   D2A  894  10.782   1.058  13.502 -0.2047 -0.0056  0.0850
   75DOPC   C3A  895  10.461   1.087  13.223 -0.1885 -0.3684 -0.0315
   75DOPC   C4A  896  10.048   1.109  12.961 -0.0711  0.0534 -0.0467
   75DOPC   C1B  897  11.009   1.410  14.272  0.2126 -0.0491 -0.2498
   75DOPC   D2B  898  11.238   1.735  14.055 -0.0217  0.1914  0.0658
   75DOPC   C3B  899  11.393   2.112  13.762  0.3868 -0.1316 -0.0872
   75DOPC   C4B  900  11.608   2.334  13.357  0.1087 -0.2186 -0.1567
   76DOPA   PO4  901  17.112   6.368  14.696  0.0781 -0.1222 -0.1193
   76DOPA   GL1  902  17.104   6.742  14.388  0.0818  0.3641 -0.4177
   76DOPA   GL2  903  16.944   6.665  14.227 -0.3005  0.1562  0.3563
   76DOPA   C1A  904  17.478   6.662  14.209  0.0299 -0.0116 -0.0390
   76DOPA   D2A  905  17.980   6.725  14.286 -0.3490 -0.4155 -0.2038
   76DOPA   C3A  906  17.814   6.881  13.819 -0.4532  0.3584 -0.3501
   76DOPA   C4A  907  17.520   7.147  13.547 -0.1026  0.4499 -0.0198
   76DOPA   C1B  908  17.104   6.307  13.971 -0.0179  0.1174 -0.0700
   76DOPA   D2B  909  17.434   5.946  13.932  0.0624 -0.2034 -0.2738
   76DOPA   C3B  910  17.861   5.887  13.871 -0.0284  0.2414 -0.2694
   76DOPA   C4B  911  18.276   5.992  13.682  0.1499 -0.2050 -0.0364
   77DOPA   PO4  912   4.017   1.102  15.349  0.3538 -0.3954 -0.2190
   77DOPA   GL1  913   4.078   1.330  14.893 -0.0851  0.0964  0.0244
   77DOPA   GL2  914   3.995   1.072  14.780 -0.2163  0.0657 -0.2365
   77DOPA   C1A  915   4.259   1.406  14.499 -0.1203 -0.0311 -0.0538
   77DOPA   D2A  916   4.382   1.757  14.190 -0.3209  0.0312  0.1589
   77DOPA   C3A  917   4.449   1.787  13.727 -0.0214 -0.2007  0.1701
   77DOPA   C4A  918   4.381   2.033  13.270 -0.1744 -0.0041 -0.1981
   77DOPA   C1B  919   4.023   1.026  14.347  0.0449  0.0136  0.2046
   77DOPA   D2B  920   4.037   0.822  13.886  0.1310  0.1896 -0.0057
   77DOPA   C3B  921   4.059   0.820  13.434  0.0570  0.1475 -0.0856
   77DOPA   C4B  922   3.879   0.654  13.002 -0.2240  0.1054  0.0916
   78DOPA   PO4  923  11.863   3.949  15.019 -0.0019 -0.2670  0.1646
   78DOPA   GL1  924  11.871   4.208  14.593 -0.1257  0.2136  0.3368
   78DOPA   GL2  925  11.717   3.977  14.525 -0.2396 -0.3227 -0.0176
   78DOPA   C1A  926  12.219   4.186  14.293 -0.0094  0.2655 -0.1534
   78DOPA   D2A  927  12.483   4.177  13.868  0.2767  0.1365 -0.1630
   78DOPA   C3A  928  12.379   4.259  13.472  0.2606  0.1681 -0.0755
   78DOPA   C4A  929  12.242   4.039  13.047 -0.3251  0.1374 -0.1853
   78DOPA   C1B  930  11.713   3.869  14.078  0.0169  0.3460  0.2572
   78DOPA   D2B  931  11.632   3.920  13.618  0.0397 -0.0131  0.1152
   78DOPA   C3B  932  11.829   4.221  13.338 -0.0240  0.1325 -0.2318
   78DOPA   C4B  933  11.910   4.528  13.014 -0.0179 -0.0100  0.2196
   79DOPA   PO4  934   7.073   1.015  15.508  0.0520 -0.0158 -0.1940
   79DOPA   GL1  935   7.030   0.939  15.117  0.1246 -0.5235  0.0703
   79DOPA   GL2  936   6.846   0.779  14.990 -0.3072 -0.0973 -0.1074
   79DOPA   C1A  937   7.276   1.118  14.837 -0.1826 -0.0391  0.3619
   79DOPA   D2A  938   7.650   1.358  14.595  0.3951  0.0201 -0.2972
   79DOPA   C3A  939   7.700   1.152  14.166  0.1295  0.2813 -0.1856
   79DOPA   C4A  940   7.636   1.020  13.719 -0.2483 -0.1928 -0.0040
   79DOPA   C1B  941   6.794   0.811  14.513 -0.0776 -0.2323 -0.1515
   79DOPA   D2B  942   6.720   1.010  14.057 -0.0896 -0.1906  0.0399
   79DOPA   C3B  943   6.836   0.873  13.616  0.0703 -0.1525 -0.0033
   79DOPA   C4B  944   6.930   0.612  13.201 -0.1268  0.0106 -0.2883
   80DOPA   PO4  945  10.918   4.057  14.908  0.0989 -0.0214  0.0859
   80DOPA   GL1  946  10.884   3.872  14.600 -0.0379 -0.1711 -0.0259
   80DOPA   GL2  947  10.942   3.565  14.662  0.1108 -0.5475  0.2145
   80DOPA   C1A  948  10.663   3.861  14.271 -0.1405 -0.1756  0.0433
   80DOPA   D2A  949  10.426   3.889  13.863  0.0823 -0.1130 -0.3038
   80DOPA   C3A  950   9.981   3.722  13.817  0.0803  0.2016  0.1173
   80DOPA   C4A  951   9.546   3.524  13.802  0.1041 -0.0698 -0.0873
   80DOPA   C1B  952  11.071   3.380  14.242  0.3343  0.2265 -0.2708
   80DOPA   D2B  953  11.148   3.057  13.903 -0.2544 -0.2969  0.3380
   80DOPA   C3B  954  11.548   3.002  13.628 -0.1399  0.3503  0.2296
   80DOPA   C4B  955  11.958   2.863  13.416 -0.0186 -0.0791 -0.2920
   81DOPA   PO4  956  14.519   0.834  15.032 -0.0983 -0.0072  0.0288
   81DOPA   GL1  957  14.540   0.827  14.558 -0.2272  0.0458 -0.0608
   81DOPA   GL2  958  14.706   0.608  14.515 -0.0662  0.0863  0.1487
   81DOPA   C1A  959  14.453   1.006  14.113  0.0641 -0.1238 -0.0034
   81DOPA   D2A  960  14.347   1.111  13.664  0.2600 -0.1095 -0.1506
   81DOPA   C3A  961  14.076   1.074  13.285  0.2293 -0.1662 -0.0138
   81DOPA   C4A  962  14.044   1.435  12.984  0.0495  0.0927  0.1035
   81DOPA   C1B  963  15.024   0.768  14.168 -0.0483  0.1996  0.0378
   81DOPA   D2B  964  15.240   0.771  13.728 -0.0456 -0.0878 -0.2915
   81DOPA   C3B  965  15.224   0.713  13.274 -0.0208  0.0371 -0.1473
   81DOPA   C4B  966  15.066   0.572  12.840 -0.3235  0.1695  0.0383
   82DOPA   PO4  967   4.760   7.447  15.362  0.0161 -0.3705  0.1052
   82DOPA   GL1  968   4.471   7.616  14.976  0.1668 -0.2616  0.0789
   82DOPA   GL2  969   4.726   7.552  14.847  0.2800 -0.1075  0.1708
   82DOPA   C1A  970   4.142   7.678  14.637  0.0294  0.0032  0.2111
   82DOPA   D2A  971   3.869   7.746  14.221 -0.0664  0.2153  0.0923
   82DOPA   C3A  972   3.929   7.582  13.785 -0.0532 -0.0485 -0.0621
   82DOPA   C4A  973   3.970   7.236  13.456  0.1091  0.1168 -0.0209
   82DOPA   C1B  974   4.719   7.489  14.428  0.0713  0.0448  0.1446
   82DOPA   D2B  975   4.329   7.445  14.200 -0.1088 -0.2348 -0.0700
   82DOPA   C3B  976   4.276   7.183  13.844 -0.1660 -0.1897  0.0418
   82DOPA   C4B  977   4.260   6.852  13.462 -0.0057 -0.2482 -0.1857
   83DOPA   PO4  978  19.005   0.164  15.292 -0.1841 -0.1954 -0.1043
   83DOPA   GL1  979  18.970   0.156  14.853  0.2740  0.0962  0.1551
   83DOPA   GL2  980  18.796   0.370  14.881 -0.0226 -0.1133  0.1291
   83DOPA   C1A  981  19.074  -0.048  14.530 -0.0999  0.5366 -0.0244
   83DOPA   D2A  982  19.058  -0.214  14.077  0.1734  0.4293  0.0914
   83DOPA   C3A  983  19.463  -0.179  13.887  0.2429  0.1844  0.0034
   83DOPA   C4A  984  19.779  -0.010  13.495  0.1054 -0.0467  0.0354
   83DOPA   C1B  985  18.770   0.798  14.660  0.4666 -0.1207  0.2654
   83DOPA   D2B  986  18.293   1.062  14.624 -0.1362 -0.1495  0.2096
   83DOPA   C3B  987  18.139   1.238  14.251  0.0048  0.0169  0.2151
   83DOPA   C4B  988  17.829   1.412  13.964  0.0082  0.1288 -0.0450
   84DOPA   PO4  989   0.982   0.661  15.471  0.1266  0.1062 -0.2907
   84DOPA   GL1  990   1.035   0.699  15.047 -0.0791  0.1730 -0.2234
   84DOPA   GL2  991   1.246   1.012  15.045 -0.1334 -0.2316  0.1856
   84DOPA   C1A  992   0.832   0.375  14.744 -0.1779 -0.3012  0.0847
   84DOPA   D2A  993   0.817   0.101  14.276  0.2523 -0.0108 -0.1338
   84DOPA   C3A  994   1.071   0.148  13.876 -0.2865 -0.0855 -0.0252
   84DOPA   C4A  995   1.334   0.001  13.460  0.2725  0.2299 -0.2944
   84DOPA   C1B  996   1.668   1.020  14.965 -0.2507  0.2407  0.2692
   84DOPA   D2B  997   2.061   1.096  14.721  0.1342  0.0472  0.1329
   84DOPA   C3B  998   2.331   1.212  14.390  0.0114 -0.0866  0.3419
   84DOPA   C4B  999   2.506   1.373  13.973  0.0979 -0.0150 -0.0441
   85DOPA   PO4 1000  11.738   0.343  14.924  0.2797  0.0477 -0.0654
   85DOPA   GL1 1001  11.710   0.166  14.580 -0.1219  0.0048 -0.3969
   85DOPA   GL2 1002  11.951   0.038  14.602 -0.2768 -0.2329  0.2600
   85DOPA   C1A 1003  11.591   0.333  14.178 -0.2617 -0.3217 -0.1633
   85DOPA   D2A 1004  11.530   0.671  13.876  0.0374  0.1701  0.0399
   85DOPA   C3A 1005  11.452   0.982  13.580  0.0133 -0.0159  0.1927
   85DOPA   C4A 1006  11.460   0.965  13.123  0.0592 -0.3377  0.0471
   85DOPA   C1B 1007  12.058   0.261  14.225 -0.0462 -0.1906 -0.0867
   85DOPA   D2B 1008  11.928   0.391  13.751  0.0750 -0.1908  0.4047
   85DOPA   C3B 1009  12.112   0.517  13.407 -0.0184  0.1453 -0.4227
   85DOPA   C4B 1010  12.318   0.628  12.953 -0.1452 -0.1790 -0.0757
   86DOPA   PO4 1011  25.857   4.203  15.664  0.2613 -0.0707  0.1859
   86DOPA   GL1 1012  25.693   4.243  15.287 -0.1178  0.0847 -0.4039
   86DOPA   GL2 1013  25.475   4.413  15.378  0.0378 -0.0479  0.0987
   86DOPA   C1A 1014  25.731   4.389  14.849 -0.1210  0.2246 -0.0050
   86DOPA   D2A 1015  25.696   4.520  14.401  0.3180  0.3120 -0.1899
   86DOPA   C3A 1016  25.799   4.761  13.985 -0.1708 -0.2300  0.3642
   86DOPA   C4A 1017  25.830   5.067  13.576  0.0406 -0.2121 -0.2911
   86DOPA   C1B 1018  25.220   4.517  15.117 -0.0900 -0.2431 -0.2001
   86DOPA   D2B 1019  24.898   4.647  14.727  0.0909  0.0718  0.2210
   86DOPA   C3B 1020  24.691   4.937  14.391 -0.0478  0.0703 -0.0729
   86DOPA   C4B 1021  24.500   5.221  14.041 -0.0622  0.1431 -0.1138
   87DOPA   PO4 1022  17.231   0.428  15.082  0.0389  0.0769  0.1496
   87DOPA   GL1 1023  17.240   0.623  14.727 -0.2150  0.1963 -0.0593
   87DOPA   GL2 1024  17.447   0.422  14.666  0.0573  0.2678  0.1813
   87DOPA   C1A 1025  17.071   0.637  14.360  0.3304  0.1241  0.0553
   87DOPA   D2A 1026  16.836   0.428  14.027 -0.1545  0.0478  0.0763
   87DOPA   C3A 1027  16.658   0.384  13.534  0.1942 -0.2029 -0.2856
   87DOPA   C4A 1028  16.599   0.483  13.064  0.0976 -0.0757 -0.2795
   87DOPA   C1B 1029  17.693   0.347  14.312  0.1825 -0.2889 -0.0337
   87DOPA   D2B 1030  17.727   0.294  13.787  0.0139  0.0369  0.1150
   87DOPA   C3B 1031  17.553   0.366  13.335 -0.2746 -0.0497 -0.3154
   87DOPA   C4B 1032  17.412   0.661  13.010 -0.1395  0.0535  0.1499
   88DOPA   PO4 1033   2.442   4.569  15.523  0.3466  0.0606  0.3032
   88DOPA   GL1 1034   2.520   4.855  15.134  0.1739 -0.1585 -0.1931
   88DOPA   GL2 1035   2.748   5.008  15.334 -0.0469  0.0375  0.2600
   88DOPA   C1A 1036   2.736   4.900  14.756 -0.2789  0.0220 -0.1224
   88DOPA   D2A 1037   2.972   5.248  14.563  0.2220 -0.0462  0.1619
   88DOPA   C3A 1038   2.910   5.366  14.174 -0.1493 -0.0361  0.0843
   88DOPA   C4A 1039   3.025   5.460  13.667 -0.1387 -0.1316  0.2201
   88DOPA   C1B 1040   3.082   5.190  15.213 -0.0721 -0.1567 -0.0427
   88DOPA   D2B 1041   3.438   5.191  14.868 -0.2182  0.1416  0.1192
   88DOPA   C3B 1042   3.453   5.352  14.425  0.0912 -0.0535 -0.1597
   88DOPA   C4B 1043   3.589   5.588  14.052  0.0653  0.2263 -0.4666
   89DOPA   PO4 1044  23.696   6.653  15.634  0.0022 -0.0359 -0.1259
   89DOPA   GL1 1045  23.698   6.691  15.142  0.0054  0.0630 -0.1652
   89DOPA   GL2 1046  23.516   6.462  15.174 -0.1586 -0.0836 -0.2186
   89DOPA   C1A 1047  23.821   6.761  14.719  0.0741  0.2934  0.2417
   89DOPA   D2A 1048  23.839   6.869  14.218  0.1172  0.0774 -0.0091
   89DOPA   C3A 1049  23.773   6.435  14.269 -0.0871  0.1631  0.0517
   89DOPA   C4A 1050  23.390   6.064  14.397 -0.1579  0.0762 -0.5377
   89DOPA   C1B 1051  23.724   6.233  14.820 -0.3370  0.0895  0.0646
   89DOPA   D2B 1052  23.817   5.880  14.426 -0.0551 -0.1966 -0.1655
   89DOPA   C3B 1053  23.692   6.018  13.962  0.1171  0.0698 -0.1893
   89DOPA   C4B 1054  23.863   6.095  13.509 -0.4292  0.1838 -0.2316
   90DOPA   PO4 1055   1.168   2.384  15.058 -0.1232  0.0631  0.2938
   90DOPA   GL1 1056   0.973   2.391  14.682 -0.1567 -0.2880 -0.0548
   90DOPA   GL2 1057   1.246   2.241  14.632 -0.0611  0.3496  0.2382
   90DOPA   C1A 1058   0.879   2.494  14.216 -0.0050 -0.1735 -0.2276
   90DOPA   D2A 1059   0.928   2.359  13.749  0.2779 -0.0566 -0.0541
   90DOPA   C3A 1060   1.047   2.731  13.445  0.2186  0.0737 -0.4705
   90DOPA   C4A 1061   1.251   3.125  13.539 -0.0017 -0.0736 -0.2285
   90DOPA   C1B 1062   1.319   2.176  14.183  0.0097  0.0070 -0.1950
   90DOPA   D2B 1063   1.328   1.940  13.722  0.1347  0.1368 -0.1389
   90DOPA   C3B 1064   1.150   1.758  13.350  0.2844 -0.1218  0.0156
   90DOPA   C4B 1065   0.924   1.651  12.926  0.0672 -0.0807  0.0253
   91DOPA   PO4 1066  17.729   7.506  14.684  0.2831 -0.3607  0.0121
   91DOPA   GL1 1067  17.727   7.397  14.332  0.1382 -0.0801  0.4200
   91DOPA   GL2 1068  17.982   7.420  14.239  0.1070  0.1649 -0.1880
   91DOPA   C1A 1069  17.653   7.547  13.899  0.2563 -0.0230 -0.1119
   91DOPA   D2A 1070  17.668   7.579  13.405  0.0276 -0.0498 -0.1017
   91DOPA   C3A 1071  17.471   7.332  13.091  0.0703  0.1751  0.2848
   91DOPA   C4A 1072  17.221   6.887  12.988 -0.0046 -0.1482  0.1099
   91DOPA   C1B 1073  18.158   7.681  13.973 -0.1229 -0.0423  0.3740
   91DOPA   D2B 1074  18.091   7.879  13.541  0.0854 -0.0493  0.0640
   91DOPA   C3B 1075  17.974   8.093  13.165  0.0341 -0.2978  0.0005
   91DOPA   C4B 1076  18.132   8.445  12.896 -0.2737  0.1330  0.0002
   92DOPA   PO4 1077   0.790   6.560  15.129 -0.0905 -0.0045 -0.2284
   92DOPA   GL1 1078   0.822   6.437  14.724 -0.2360  0.0495  0.0224
   92DOPA   GL2 1079   0.944   6.723  14.684  0.1452  0.0250 -0.1235
   92DOPA   C1A 1080   1.204   6.230  14.538  0.0897  0.2929 -0.0906
   92DOPA   D2A 1081   1.608   6.138  14.223 -0.1593  0.4110 -0.0650
   92DOPA   C3A 1082   1.609   6.320  13.781 -0.0971 -0.0388 -0.3397
   92DOPA   C4A 1083   1.498   6.542  13.398  0.0447 -0.2642 -0.0102
   92DOPA   C1B 1084   0.884   7.003  14.343  0.0306  0.1867 -0.0627
   92DOPA   D2B 1085   0.949   7.257  13.932  0.1294  0.0391 -0.1541
   92DOPA   C3B 1086   0.760   7.636  13.631  0.1740  0.2434  0.1574
   92DOPA   C4B 1087   0.855   8.032  13.447 -0.1223 -0.3735  0.1295
   93DOPA   PO4 1088  18.377   3.442  15.038  0.1992 -0.0724 -0.0980
   93DOPA   GL1 1089  18.572   3.644  14.615 -0.0117 -0.1939 -0.2693
   93DOPA   GL2 1090  18.252   3.431  14.573  0.0351 -0.0476 -0.1247
   93DOPA   C1A 1091  18.923   3.585  14.365  0.2073  0.0378  0.0417
   93DOPA   D2A 1092  19.247   3.399  14.101  0.0970 -0.0349 -0.0938
   93DOPA   C3A 1093  19.486   3.338  13.722  0.4109  0.0413  0.1523
   93DOPA   C4A 1094  19.778   3.449  13.372 -0.0634  0.2807  0.0670
   93DOPA   C1B 1095  18.073   3.227  14.235 -0.0813  0.1801 -0.2357
   93DOPA   D2B 1096  18.118   3.148  13.693 -0.0023  0.0273 -0.1922
   93DOPA   C3B 1097  17.949   3.337  13.252 -0.0549  0.2047  0.4105
   93DOPA   C4B 1098  17.920   3.698  12.906 -0.0560  0.0768 -0.1696
   94DOPA   PO4 1099  29.987   1.465  15.087  0.3302 -0.0647 -0.2755
   94DOPA   GL1 1100  29.984   1.307  14.709 -0.0947 -0.3630  0.0090
   94DOPA   GL2 1101  29.653   1.311  14.642 -0.0165  0.1025  0.3175
   94DOPA   C1A 1102  30.264   1.148  14.397  0.4092 -0.0976  0.0003
   94DOPA   D2A 1103  30.201   1.078  13.951 -0.1503 -0.0818 -0.0187
   94DOPA   C3A 1104  30.487   1.043  13.555 -0.0553  0.0545  0.0352
   94DOPA   C4A 1105  30.873   0.894  13.238  0.0303 -0.0727 -0.2151
   94DOPA   C1B 1106  29.408   1.255  14.205  0.0177 -0.0480  0.0739
   94DOPA   D2B 1107  29.274   1.330  13.732  0.4563 -0.0677  0.1248
   94DOPA   C3B 1108  29.462   1.195  13.330  0.1187  0.0168 -0.1782
   94DOPA   C4B 1109  29.662   0.716  13.235  0.3606  0.0316  0.1501
   95DOPA   PO4 1110  24.232   1.483  15.788  0.0313  0.0311  0.2914
   95DOPA   GL1 1111  24.110   1.360  15.443 -0.1971 -0.3990 -0.1912
   95DOPA   GL2 1112  24.321   1.178  15.417  0.0478 -0.3745 -0.2758
   95DOPA   C1A 1113  23.848   1.550  15.112  0.1367 -0.2413  0.0950
   95DOPA   D2A 1114  23.899   1.643  14.639  0.0853 -0.1942 -0.1394
   95DOPA   C3A 1115  24.318   1.588  14.390 -0.0634 -0.0876 -0.3517
   95DOPA   C4A 1116  24.571   1.788  14.075  0.2045 -0.1786  0.0077
   95DOPA   C1B 1117  24.284   1.089  15.014  0.0161  0.0235 -0.4617
   95DOPA   D2B 1118  24.281   1.087  14.559 -0.1143 -0.4707  0.3201
   95DOPA   C3B 1119  24.614   1.189  14.179 -0.1419  0.1089 -0.2679
   95DOPA   C4B 1120  24.897   1.483  13.853 -0.2312  0.0923  0.3079
   96DOPA   PO4 1121  24.444   7.365  15.518 -0.3012 -0.1427 -0.2318
   96DOPA   GL1 1122  24.342   7.168  15.278 -0.0563  0.3382  0.0442
   96DOPA   GL2 1123  24.232   7.392  15.069  0.1018  0.0723 -0.4103
   96DOPA   C1A 1124  24.492   6.784  15.004 -0.3641 -0.1326  0.3843
   96DOPA   D2A 1125  24.316   6.622  14.520 -0.0991  0.0807  0.0424
   96DOPA   C3A 1126  24.591   6.585  14.218  0.0115  0.1046  0.0972
   96DOPA   C4A 1127  24.785   6.437  13.780  0.1340  0.1070 -0.0489
   96DOPA   C1B 1128  24.156   7.237  14.707 -0.0815  0.0371  0.3783
   96DOPA   D2B 1129  24.277   7.117  14.200  0.3409 -0.0054 -0.2655
   96DOPA   C3B 1130  24.264   7.476  13.927 -0.0797  0.0071 -0.1285
   96DOPA   C4B 1131  24.445   7.721  13.567  0.0218  0.0860  0.2406
   97DOPA   PO4 1132  20.103   2.253  15.551  0.1777 -0.1047  0.3861
   97DOPA   GL1 1133  20.060   2.409  15.211  0.2251 -0.4871  0.1158
   97DOPA   GL2 1134  19.861   2.173  15.282 -0.1045  0.0821 -0.2321
   97DOPA   C1A 1135  20.213   2.359  14.790  0.1416  0.0999  0.0362
   97DOPA   D2A 1136  20.194   2.299  14.232 -0.0789  0.3015 -0.1242
   97DOPA   C3A 1137  20.240   2.289  13.774  0.1393 -0.1464  0.1130
   97DOPA   C4A 1138  20.237   2.455  13.317  0.0482  0.3792 -0.1709
   97DOPA   C1B 1139  19.741   2.172  14.886  0.0013  0.1638 -0.1694
   97DOPA   D2B 1140  19.649   2.065  14.403 -0.1210 -0.0050  0.1204
   97DOPA   C3B 1141  19.870   1.975  13.944 -0.4091  0.1863 -0.1442
   97DOPA   C4B 1142  19.882   2.021  13.442  0.3283 -0.1394  0.1129
   98DOPA   PO4 1143   1.548   6.423  15.333 -0.0503  0.0148 -0.1894
   98DOPA   GL1 1144   1.632   6.192  15.017 -0.2438  0.0757  0.2782
   98DOPA   GL2 1145   1.501   5.891  15.001 -0.1486 -0.1357 -0.4005
   98DOPA   C1A 1146   1.701   6.403  14.678 -0.1784  0.1590 -0.1606
   98DOPA   D2A 1147   1.861   6.560  14.176 -0.2078  0.0602 -0.0303
   98DOPA   C3A 1148   1.956   6.694  13.800  0.1150  0.0632  0.0212
   98DOPA   C4A 1149   2.233   6.409  13.422  0.1051 -0.5592 -0.1115
   98DOPA   C1B 1150   1.596   5.820  14.595  0.0367 -0.0517  0.2104
   98DOPA   D2B 1151   1.797   5.693  14.191  0.0758  0.0345 -0.2742
   98DOPA   C3B 1152   1.825   5.750  13.760 -0.2031 -0.2099 -0.0969
   98DOPA   C4B 1153   1.710   5.936  13.374  0.0294  0.1756  0.1242
   99DOPA   PO4 1154   7.324   4.480  15.601 -0.3113  0.2132 -0.0043
   99DOPA   GL1 1155   7.362   4.217  15.153 -0.1257  0.0982  0.0776
   99DOPA   GL2 1156   7.369   4.444  14.976  0.2087  0.2810  0.1512
   99DOPA   C1A 1157   7.398   4.030  14.727 -0.2400 -0.1708 -0.1561
   99DOPA   D2A 1158   7.450   4.097  14.228  0.0914 -0.1868 -0.3913
   99DOPA   C3A 1159   7.191   4.038  13.869 -0.4453 -0.2867  0.1814
   99DOPA   C4A 1160   6.792   3.944  13.550  0.0431 -0.2511  0.0762
   99DOPA   C1B 1161   7.213   4.526  14.555 -0.0033 -0.2761 -0.1025
   99DOPA   D2B 1162   6.857   4.402  14.184  0.0957 -0.0105  0.1755
   99DOPA   C3B 1163   6.619   4.077  14.110 -0.1890 -0.2305 -0.1711
   99DOPA   C4B 1164   6.365   3.786  13.798 -0.2220 -0.0787  0.0519
  100DOPA   PO4 1165  30.932   0.591  15.331 -0.0052  0.0584 -0.1129
  100DOPA   GL1 1166  30.770   0.289  15.027  0.2941  0.1139  0.2394
  100DOPA   GL2 1167  30.544   0.445  15.007 -0.2302 -0.0736  0.2411
  100DOPA   C1A 1168  30.899   0.021  14.696  0.0659  0.0727 -0.1472
  100DOPA   D2A 1169  31.033  -0.188  14.285 -0.0198 -0.1150  0.1159
  100DOPA   C3A 1170  30.822  -0.351  13.924  0.0043  0.2239 -0.1157
  100DOPA   C4A 1171  30.438  -0.556  13.821 -0.3264 -0.1961 -0.3022
  100DOPA   C1B 1172  30.556   0.444  14.548  0.0035  0.1580  0.0343
  100DOPA   D2B 1173  30.706   0.487  14.045  0.0760  0.4480 -0.1123
  100DOPA   C3B 1174  30.705   0.090  13.847 -0.3358 -0.4713  0.0803
  100DOPA   C4B 1175  30.697  -0.164  13.430 -0.1749  0.0179  0.2283
  101DOPC   NC3 1176  28.502   4.417  10.929 -0.1850 -0.0809  0.0078
  101DOPC   PO4 1177  28.574   4.790  11.036 -0.0309 -0.3881  0.2214
  101DOPC   GL1 1178  28.874   5.010  11.346  0.3355 -0.2824 -0.0826
  101DOPC   GL2 1179  28.640   4.859  11.494  0.0829  0.1930 -0.1846
  101DOPC   C1A 1180  29.271   5.170  11.598  0.0748  0.1092  0.1061
  101DOPC   D2A 1181  29.056   5.276  12.017  0.1339 -0.1322 -0.0020
  101DOPC   C3A 1182  28.928   5.428  12.425  0.0621 -0.0854 -0.0563
  101DOPC   C4A 1183  28.721   5.418  12.854  0.2343 -0.0341 -0.0017
  101DOPC   C1B 1184  28.672   4.655  11.899  0.0246  0.0784 -0.0091
  101DOPC   D2B 1185  28.586   4.648  12.399  0.0541  0.2189  0.0156
  101DOPC   C3B 1186  28.636   4.540  12.781 -0.1399 -0.0285  0.0154
  101DOPC   C4B 1187  28.786   4.467  13.225 -0.0189  0.0372 -0.1787
  102DOPC   NC3 1188  29.255   6.205  10.857 -0.1930  0.0498  0.0581
  102DOPC   PO4 1189  29.569   6.379  11.003 -0.1773 -0.0143  0.0299
  102DOPC   GL1 1190  29.707   6.403  11.433  0.2655  0.3961  0.2386
  102DOPC   GL2 1191  29.714   6.644  11.408 -0.3856 -0.1338  0.2794
  102DOPC   C1A 1192  29.511   6.293  11.771 -0.2944 -0.2908 -0.3569
  102DOPC   D2A 1193  29.358   6.262  12.256 -0.1255  0.0892 -0.0271
  102DOPC   C3A 1194  29.650   6.157  12.551 -0.3073  0.0828 -0.3248
  102DOPC   C4A 1195  29.891   6.057  12.965 -0.1882 -0.2724 -0.1075
  102DOPC   C1B 1196  30.012   6.960  11.469  0.1406  0.0418 -0.3096
  102DOPC   D2B 1197  30.249   7.252  11.744 -0.1814 -0.2292 -0.1359
  102DOPC   C3B 1198  30.429   7.380  12.176 -0.0028 -0.1186  0.2876
  102DOPC   C4B 1199  30.505   7.347  12.608 -0.0661 -0.1759  0.0660
  103DOPC   NC3 1200   0.038   3.208  11.346  0.1316 -0.0980  0.0596
  103DOPC   PO4 1201   0.358   3.080  11.180  0.2856 -0.0432 -0.0494
  103DOPC   GL1 1202   0.622   3.007  11.534  0.1644 -0.2206  0.2012
  103DOPC   GL2 1203   0.324   2.915  11.614  0.1370 -0.2775  0.2048
  103DOPC   C1A 1204   0.890   3.011  11.851  0.0642  0.1922 -0.0480
  103DOPC   D2A 1205   1.210   2.954  12.264 -0.0209  0.3837  0.1324
  103DOPC   C3A 1206   0.976   2.890  12.683 -0.0371  0.0182  0.2838
  103DOPC   C4A 1207   0.744   2.920  13.062 -0.3712 -0.0933 -0.0105
  103DOPC   C1B 1208   0.370   3.048  12.001 -0.1083  0.1696 -0.0044
  103DOPC   D2B 1209   0.750   3.198  12.316  0.0482 -0.2018  0.0891
  103DOPC   C3B 1210   0.695   3.288  12.766 -0.2206 -0.1508  0.0793
  103DOPC   C4B 1211   0.655   3.419  13.241  0.3575 -0.4788  0.0095
  104DOPC   NC3 1212  12.161   4.671  10.878  0.0366  0.0653 -0.0377
  104DOPC   PO4 1213  12.237   4.274  10.937  0.0462 -0.0237  0.1799
  104DOPC   GL1 1214  12.320   4.386  11.343 -0.5710 -0.4008 -0.2325
  104DOPC   GL2 1215  12.334   4.174  11.481  0.1655  0.0366  0.0295
  104DOPC   C1A 1216  12.316   4.731  11.662  0.2451  0.1867 -0.0514
  104DOPC   D2A 1217  12.368   5.091  11.980 -0.2942 -0.1002 -0.2144
  104DOPC   C3A 1218  12.433   5.549  12.189 -0.2280 -0.1724  0.2446
  104DOPC   C4A 1219  12.253   5.920  12.474  0.0877 -0.2712  0.1537
  104DOPC   C1B 1220  12.616   4.325  11.834 -0.1554 -0.2493  0.0386
  104DOPC   D2B 1221  12.761   4.246  12.317  0.1266  0.2656  0.0043
  104DOPC   C3B 1222  12.894   4.483  12.702  0.1691  0.0878 -0.1867
  104DOPC   C4B 1223  12.849   4.854  13.079  0.1204 -0.1862  0.0646
  105DOPC   NC3 1224  27.670   5.071  10.982 -0.3584 -0.1022  0.1494
  105DOPC   PO4 1225  27.766   5.309  11.296  0.1075 -0.0661  0.1713
  105DOPC   GL1 1226  27.750   5.092  11.629 -0.0312 -0.0109 -0.1991
  105DOPC   GL2 1227  27.412   5.089  11.503 -0.0354 -0.2053 -0.2046
  105DOPC   C1A 1228  27.821   5.342  12.071 -0.1742 -0.2081 -0.1388
  105DOPC   D2A 1229  27.830   5.656  12.503 -0.1229  0.1831 -0.0202
  105DOPC   C3A 1230  28.083   5.755  12.893  0.2358  0.2086  0.3997
  105DOPC   C4A 1231  28.051   5.484  13.306 -0.1970 -0.0981 -0.0345
  105DOPC   C1B 1232  27.301   5.341  11.767 -0.1823 -0.0545  0.0675
  105DOPC   D2B 1233  27.357   5.539  12.219 -0.0997  0.0086  0.1102
  105DOPC   C3B 1234  27.297   5.848  12.512  0.1092 -0.2355 -0.0895
  105DOPC   C4B 1235  27.107   5.943  12.938 -0.0544  0.0268  0.0501
  106DOPC   NC3 1236   2.676   2.041  11.153 -0.3125 -0.0219 -0.1530
  106DOPC   PO4 1237   2.536   1.833  11.465 -0.0119 -0.0390  0.3355
  106DOPC   GL1 1238   2.652   1.888  11.873 -0.0920 -0.0972 -0.2667
  106DOPC   GL2 1239   2.541   1.605  11.957  0.2823 -0.0533 -0.6369
  106DOPC   C1A 1240   2.719   2.146  12.229 -0.1433  0.2794  0.1140
  106DOPC   D2A 1241   2.641   2.392  12.581  0.0245 -0.0015 -0.1720
  106DOPC   C3A 1242   2.369   2.346  13.025  0.0600  0.1242  0.2553
  106DOPC   C4A 1243   1.968   2.402  13.266  0.0493  0.4120 -0.2923
  106DOPC   C1B 1244   2.679   1.215  12.139  0.2693  0.1693  0.2805
  106DOPC   D2B 1245   3.076   1.245  12.474 -0.0398 -0.1512 -0.1255
  106DOPC   C3B 1246   3.243   1.601  12.691  0.0606 -0.1504 -0.0346
  106DOPC   C4B 1247   3.185   1.990  12.890 -0.2354 -0.1946 -0.1422
  107DOPC   NC3 1248  29.381   7.787  11.427 -0.0289 -0.2364 -0.0798
  107DOPC   PO4 1249  29.015   7.579  11.352 -0.0294 -0.0561 -0.1119
  107DOPC   GL1 1250  29.046   7.354  11.676 -0.4200 -0.2032 -0.0802
  107DOPC   GL2 1251  29.319   7.482  11.757  0.0465  0.2288 -0.0783
  107DOPC   C1A 1252  28.814   7.251  11.973  0.0749  0.1205  0.0299
  107DOPC   D2A 1253  28.533   6.967  12.264 -0.1843  0.3156 -0.2481
  107DOPC   C3A 1254  28.509   6.518  12.460  0.0903  0.0142 -0.2975
  107DOPC   C4A 1255  28.374   6.032  12.528 -0.3471  0.1576 -0.2224
  107DOPC   C1B 1256  29.315   7.155  12.094  0.0852  0.1512  0.0225
  107DOPC   D2B 1257  29.512   7.137  12.591 -0.0312 -0.1308 -0.0639
  107DOPC   C3B 1258  29.372   7.020  13.025  0.1567  0.1433  0.3305
  107DOPC   C4B 1259  29.292   6.546  13.206  0.0513  0.1268  0.2507
  108DOPC   NC3 1260  17.562   6.656  11.472  0.0673 -0.0847  0.0008
  108DOPC   PO4 1261  17.632   6.290  11.323  0.1882  0.0698  0.0731
  108DOPC   GL1 1262  17.656   5.939  11.588  0.0975 -0.1373  0.1723
  108DOPC   GL2 1263  17.681   6.237  11.733  0.0200  0.0498  0.1979
  108DOPC   C1A 1264  17.922   5.858  11.844  0.1521 -0.2116  0.1918
  108DOPC   D2A 1265  18.249   5.758  12.173  0.2333 -0.0537  0.2092
  108DOPC   C3A 1266  18.069   5.558  12.569  0.1328 -0.4279 -0.0208
  108DOPC   C4A 1267  17.868   5.402  12.916 -0.4286 -0.0014  0.0428
  108DOPC   C1B 1268  17.786   6.192  12.187 -0.0876  0.1678  0.0089
  108DOPC   D2B 1269  18.109   6.081  12.570 -0.0128  0.0156 -0.2238
  108DOPC   C3B 1270  17.816   5.888  12.914 -0.0509 -0.1465 -0.4124
  108DOPC   C4B 1271  17.428   5.637  12.776  0.0503 -0.0819  0.1826
  109DOPC   NC3 1272  28.992   3.360  10.671 -0.1120 -0.2145 -0.2352
  109DOPC   PO4 1273  28.891   3.720  10.788 -0.4884 -0.1462 -0.4213
  109DOPC   GL1 1274  28.894   3.793  11.180 -0.1442 -0.1015  0.1177
  109DOPC   GL2 1275  28.702   4.043  11.107 -0.3596 -0.1331 -0.0909
  109DOPC   C1A 1276  29.080   3.994  11.525  0.1922 -0.7597  0.0130
  109DOPC   D2A 1277  29.118   4.296  11.981 -0.0210  0.3399 -0.2762
  109DOPC   C3A 1278  29.142   4.482  12.442  0.1965  0.1534 -0.3607
  109DOPC   C4A 1279  29.126   4.682  12.933 -0.0726  0.2951  0.2752
  109DOPC   C1B 1280  28.736   4.319  11.494 -0.2392 -0.0829 -0.0179
  109DOPC   D2B 1281  29.068   4.690  11.597  0.1064  0.1258 -0.2659
  109DOPC   C3B 1282  29.097   4.793  12.066 -0.0641 -0.0629  0.1411
  109DOPC   C4B 1283  28.989   4.964  12.525  0.1127 -0.0169  0.3166
  110DOPC   NC3 1284  22.240   2.102  11.466 -0.0396  0.0331 -0.0045
  110DOPC   PO4 1285  22.389   2.450  11.528 -0.0003 -0.0552  0.1492
  110DOPC   GL1 1286  22.483   2.258  11.888 -0.2321 -0.2454  0.1650
  110DOPC   GL2 1287  22.778   2.369  11.889  0.0211  0.2217 -0.3431
  110DOPC   C1A 1288  22.179   2.164  12.168  0.1801  0.0361 -0.0206
  110DOPC   D2A 1289  21.788   2.096  12.460 -0.3071  0.0760  0.0614
  110DOPC   C3A 1290  21.453   1.826  12.485  0.1145  0.0185  0.0680
  110DOPC   C4A 1291  21.000   1.577  12.609  0.1134 -0.0350  0.0960
  110DOPC   C1B 1292  22.919   2.126  12.212  0.1456  0.0796  0.2774
  110DOPC   D2B 1293  22.913   1.885  12.661  0.3296  0.2310  0.0070
  110DOPC   C3B 1294  22.993   1.446  12.887 -0.0179 -0.3025  0.0208
  110DOPC   C4B 1295  23.283   1.123  13.014 -0.1013 -0.0216 -0.1942
  111DOPC   NC3 1296  28.058   2.071  10.878  0.1710 -0.3138 -0.0705
  111DOPC   PO4 1297  28.266   2.020  11.219 -0.0302 -0.2609 -0.2510
  111DOPC   GL1 1298  28.188   1.852  11.580  0.1068 -0.1896 -0.0491
  111DOPC   GL2 1299  28.534   1.954  11.615  0.4502 -0.1259  0.5135
  111DOPC   C1A 1300  28.208   1.910  12.033 -0.0411 -0.2132 -0.0998
  111DOPC   D2A 1301  28.350   1.824  12.578 -0.0382  0.1636  0.1212
  111DOPC   C3A 1302  28.273   1.685  13.046 -0.0234 -0.1956 -0.0637
  111DOPC   C4A 1303  28.241   1.674  13.539  0.1061 -0.3714 -0.0474
  111DOPC   C1B 1304  28.694   1.873  12.000 -0.0437  0.0900 -0.3150
  111DOPC   D2B 1305  28.983   1.926  12.424 -0.2126  0.2107  0.0067
  111DOPC   C3B 1306  29.057   2.318  12.674  0.2511 -0.1344 -0.3099
  111DOPC   C4B 1307  29.024   2.743  12.899  0.2432 -0.3518  0.3211
  112DOPC   NC3 1308   4.160   4.344  11.401 -0.2487 -0.1171  0.1601
  112DOPC   PO4 1309   4.562   4.224  11.380 -0.1265  0.2040 -0.0337
  112DOPC   GL1 1310   4.845   4.212  11.668  0.1596  0.2456 -0.0032
  112DOPC   GL2 1311   4.716   3.937  11.698 -0.1786 -0.0104  0.1772
  112DOPC   C1A 1312   4.938   4.392  12.066  0.1017  0.0705 -0.0208
  112DOPC   D2A 1313   5.117   4.638  12.437 -0.2002 -0.5796 -0.1749
  112DOPC   C3A 1314   5.594   4.823  12.490  0.1562  0.2990  0.0817
  112DOPC   C4A 1315   6.095   4.874  12.551 -0.0695 -0.0707  0.0352
  112DOPC   C1B 1316   4.696   3.947  12.091 -0.1423 -0.0569  0.0282
  112DOPC   D2B 1317   4.803   4.223  12.509  0.0592 -0.0888  0.1718
  112DOPC   C3B 1318   4.666   4.596  12.696  0.1295  0.0844 -0.0598
  112DOPC   C4B 1319   4.501   4.992  12.997 -0.0377 -0.1124 -0.1503
  113DOPC   NC3 1320   7.283   2.444  11.433  0.1855  0.0195  0.1227
  113DOPC   PO4 1321   7.609   2.256  11.343 -0.0282  0.0406 -0.1038
  113DOPC   GL1 1322   7.895   2.453  11.715 -0.1143  0.1862 -0.0121
  113DOPC   GL2 1323   7.704   2.210  11.794 -0.2315  0.1132 -0.1597
  113DOPC   C1A 1324   8.043   2.698  12.079  0.1549  0.4427 -0.0461
  113DOPC   D2A 1325   7.957   2.649  12.563 -0.1920  0.0099 -0.0251
  113DOPC   C3A 1326   7.815   2.638  12.974  0.2852 -0.2707 -0.0763
  113DOPC   C4A 1327   7.798   2.447  13.466 -0.2377 -0.0512 -0.5169
  113DOPC   C1B 1328   7.596   2.425  12.147 -0.4262 -0.2299 -0.0305
  113DOPC   D2B 1329   7.444   2.535  12.659  0.0519 -0.1155 -0.1888
  113DOPC   C3B 1330   7.382   2.367  13.060  0.0535  0.0250 -0.1680
  113DOPC   C4B 1331   7.164   2.114  13.409  0.1599  0.4034  0.1873
  114DOPC   NC3 1332  27.678   4.010  11.085  0.3712 -0.4003  0.0407
  114DOPC   PO4 1333  27.432   3.834  11.356  0.1684  0.1522 -0.0787
  114DOPC   GL1 1334  27.502   3.793  11.684 -0.2487  0.1026  0.0549
  114DOPC   GL2 1335  27.256   3.707  11.853 -0.2571  0.3543 -0.1915
  114DOPC   C1A 1336  27.759   3.579  11.994  0.2620 -0.1876 -0.1958
  114DOPC   D2A 1337  27.870   3.377  12.439 -0.1475  0.2765 -0.2393
  114DOPC   C3A 1338  27.607   3.223  12.834  0.3266  0.0683  0.0173
  114DOPC   C4A 1339  27.640   3.492  13.246 -0.1797  0.0358  0.0817
  114DOPC   C1B 1340  27.271   3.610  12.273 -0.1255 -0.3450  0.2995
  114DOPC   D2B 1341  27.437   3.750  12.757  0.2535 -0.0537  0.1208
  114DOPC   C3B 1342  27.270   3.849  13.200  0.1233  0.0528  0.1307
  114DOPC   C4B 1343  27.096   4.030  13.610 -0.2116 -0.1483 -0.0664
  115DOPC   NC3 1344  18.109   3.577  10.959  0.1722  0.1204 -0.0701
  115DOPC   PO4 1345  18.081   4.003  11.112 -0.0666 -0.2842  0.0127
  115DOPC   GL1 1346  17.828   4.037  11.480  0.0986  0.0698  0.1706
  115DOPC   GL2 1347  17.886   3.714  11.399 -0.0847  0.2231  0.1107
  115DOPC   C1A 1348  17.412   4.096  11.629  0.0309 -0.3524 -0.1594
  115DOPC   D2A 1349  16.975   4.262  11.831 -0.1656  0.1765  0.0280
  115DOPC   C3A 1350  16.885   4.607  12.157 -0.0010 -0.1486  0.1578
  115DOPC   C4A 1351  16.746   5.089  12.321  0.1120  0.0417  0.4984
  115DOPC   C1B 1352  18.067   3.562  11.796 -0.0316  0.0942  0.1091
  115DOPC   D2B 1353  18.052   3.518  12.291 -0.0603  0.1874 -0.3048
  115DOPC   C3B 1354  17.971   3.258  12.710  0.1384  0.0809 -0.1346
  115DOPC   C4B 1355  17.837   2.871  12.962 -0.0191 -0.2426 -0.0923
  116DOPC   NC3 1356  23.948   3.941  11.652  0.1089  0.0721 -0.0393
  116DOPC   PO4 1357  24.122   4.306  11.744  0.3130  0.0501 -0.0574
  116DOPC   GL1 1358  23.924   4.583  12.028  0.0680 -0.1058 -0.1192
  116DOPC   GL2 1359  24.087   4.807  11.996  0.2856 -0.0027  0.1412
  116DOPC   C1A 1360  23.729   4.399  12.361  0.0885 -0.3282  0.1055
  116DOPC   D2A 1361  23.723   4.162  12.802 -0.1898  0.2067  0.0008
  116DOPC   C3A 1362  23.887   3.963  13.177 -0.1546  0.3187 -0.2989
  116DOPC   C4A 1363  23.924   3.674  13.537 -0.3294 -0.0262 -0.0249
  116DOPC   C1B 1364  24.226   4.689  12.351  0.1263  0.2263  0.1338
  116DOPC   D2B 1365  24.421   4.745  12.833 -0.1263  0.1538 -0.2659
  116DOPC   C3B 1366  23.995   4.584  12.823  0.3820  0.1649 -0.0335
  116DOPC   C4B 1367  23.422   4.503  12.755 -0.0383 -0.0564  0.0598
  117DOPC   NC3 1368  20.318   0.807  10.776 -0.2894  0.1723 -0.0514
  117DOPC   PO4 1369  20.416   0.790  11.146  0.2962 -0.1719 -0.2000
  117DOPC   GL1 1370  20.106   0.878  11.409  0.0147 -0.3751 -0.2871
  117DOPC   GL2 1371  20.112   1.157  11.408 -0.1180  0.3366  0.2991
  117DOPC   C1A 1372  20.011   1.006  11.841  0.1530  0.0472  0.0695
  117DOPC   D2A 1373  19.839   1.285  12.180  0.2694  0.0347  0.2563
  117DOPC   C3A 1374  19.692   1.588  12.514  0.2146  0.0596 -0.1550
  117DOPC   C4A 1375  19.318   1.829  12.763  0.2597  0.0425  0.1249
  117DOPC   C1B 1376  19.718   1.435  11.624 -0.2419 -0.0290 -0.1266
  117DOPC   D2B 1377  19.318   1.448  11.901  0.0606  0.1872  0.0636
  117DOPC   C3B 1378  19.161   1.749  12.239 -0.0492 -0.0445  0.0901
  117DOPC   C4B 1379  18.990   2.180  12.398  0.1198 -0.2378 -0.1713
  118DOPC   NC3 1380  26.378   0.846  11.787 -0.0734 -0.2869 -0.1101
  118DOPC   PO4 1381  26.558   1.210  11.771  0.0273  0.0029  0.1717
  118DOPC   GL1 1382  26.473   1.508  12.016 -0.5469 -0.4101  0.5311
  118DOPC   GL2 1383  26.267   1.427  12.170 -0.2858 -0.1737 -0.0687
  118DOPC   C1A 1384  26.565   1.967  12.143  0.0387 -0.0403  0.2283
  118DOPC   D2A 1385  26.487   2.435  12.382 -0.0349  0.3249 -0.1417
  118DOPC   C3A 1386  26.125   2.624  12.595  0.3087  0.2488  0.0923
  118DOPC   C4A 1387  25.837   2.650  12.979  0.0421  0.3097 -0.0795
  118DOPC   C1B 1388  26.006   1.311  12.575  0.0477  0.1042  0.0163
  118DOPC   D2B 1389  25.808   1.242  12.994 -0.1543  0.1020  0.2248
  118DOPC   C3B 1390  25.592   1.590  13.267 -0.0413  0.2616 -0.0620
  118DOPC   C4B 1391  25.484   1.861  13.631  0.1124  0.0660 -0.0151
  119DOPC   NC3 1392   1.593   3.794  11.144 -0.0568 -0.2099  0.1688
  119DOPC   PO4 1393   1.982   3.940  11.236  0.1003  0.1263 -0.1580
  119DOPC   GL1 1394   2.255   3.796  11.588 -0.1869 -0.1265 -0.1688
  119DOPC   GL2 1395   2.125   3.708  11.822 -0.0750  0.3345  0.0206
  119DOPC   C1A 1396   2.639   3.744  11.779 -0.0745  0.1199 -0.4159
  119DOPC   D2A 1397   3.054   3.613  12.020 -0.0718 -0.0976  0.0681
  119DOPC   C3A 1398   3.063   3.651  12.489 -0.2126 -0.1419 -0.0886
  119DOPC   C4A 1399   3.390   3.634  12.915 -0.0388  0.1319 -0.0732
  119DOPC   C1B 1400   1.646   3.694  11.888  0.1918  0.0970  0.0485
  119DOPC   D2B 1401   1.221   3.665  11.772  0.1818 -0.0579 -0.0274
  119DOPC   C3B 1402   1.157   3.453  12.115 -0.1901  0.2167  0.0275
  119DOPC   C4B 1403   1.241   3.333  12.577  0.0293  0.0389 -0.0763
  120DOPC   NC3 1404   1.276   4.415  11.266 -0.0406  0.1856 -0.1148
  120DOPC   PO4 1405   1.056   4.693  11.412 -0.1539 -0.1968 -0.1416
  120DOPC   GL1 1406   1.026   4.789  11.766  0.0799  0.3447  0.4583
  120DOPC   GL2 1407   0.746   4.724  11.949  0.1968  0.1722  0.3034
  120DOPC   C1A 1408   1.138   4.598  12.103 -0.3227  0.0711 -0.3948
  120DOPC   D2A 1409   1.357   4.354  12.432 -0.4478 -0.0783 -0.1250
  120DOPC   C3A 1410   1.474   4.232  12.875 -0.0104  0.0339 -0.0202
  120DOPC   C4A 1411   1.493   4.035  13.365  0.0659  0.0082  0.1171
  120DOPC   C1B 1412   0.606   4.892  12.346 -0.2365 -0.0057 -0.1965
  120DOPC   D2B 1413   0.255   4.899  12.730 -0.2690  0.2497 -0.2498
  120DOPC   C3B 1414  -0.091   4.959  13.043  0.0028  0.1432 -0.1176
  120DOPC   C4B 1415  -0.467   5.018  13.353 -0.2518 -0.0627 -0.0003
  121DOPC   NC3 1416  23.021   0.690  11.313 -0.1273  0.0492 -0.4581
  121DOPC   PO4 1417  23.208   0.848  11.629  0.3683  0.1056 -0.2181
  121DOPC   GL1 1418  23.191   0.888  12.020  0.0520  0.0446  0.2425
  121DOPC   GL2 1419  23.019   0.687  12.078  0.2319 -0.0887  0.1733
  121DOPC   C1A 1420  23.239   1.142  12.313  0.0322 -0.1074  0.0346
  121DOPC   D2A 1421  23.354   1.451  12.602  0.1612  0.3433 -0.1422
  121DOPC   C3A 1422  23.612   1.751  12.903  0.0058  0.0372  0.1094
  121DOPC   C4A 1423  23.669   2.214  12.950  0.1053  0.0160  0.1781
  121DOPC   C1B 1424  22.702   0.875  12.394 -0.1094 -0.0353 -0.0775
  121DOPC   D2B 1425  22.631   1.072  12.843 -0.2579  0.1502  0.1403
  121DOPC   C3B 1426  22.851   1.086  13.240 -0.0221 -0.4344  0.1498
  121DOPC   C4B 1427  22.994   0.936  13.716 -0.1868  0.2767  0.0912
  122DOPC   NC3 1428  29.475   0.690  10.843 -0.2471  0.1241  0.1580
  122DOPC   PO4 1429  29.523   0.641  11.247 -0.1675  0.0408 -0.1842
  122DOPC   GL1 1430  29.468   0.436  11.623  0.0430 -0.0820 -0.2170
  122DOPC   GL2 1431  29.192   0.546  11.736  0.2216 -0.2681 -0.0591
  122DOPC   C1A 1432  29.476   0.050  11.911 -0.1534 -0.1851 -0.1394
  122DOPC   D2A 1433  29.580  -0.226  12.295  0.0705  0.0167  0.1487
  122DOPC   C3A 1434  29.610  -0.127  12.725  0.2193  0.0820 -0.1185
  122DOPC   C4A 1435  29.363  -0.117  13.181 -0.0811  0.1221  0.0381
  122DOPC   C1B 1436  29.172   0.772  12.077 -0.1529  0.0125  0.0379
  122DOPC   D2B 1437  29.170   1.113  12.531  0.0430 -0.2376 -0.0495
  122DOPC   C3B 1438  29.264   0.871  12.895 -0.1685  0.3073  0.1128
  122DOPC   C4B 1439  29.410   0.411  12.888  0.0764 -0.1849 -0.0647
  123DOPC   NC3 1440  22.407   6.072  11.319 -0.1681  0.0154 -0.1724
  123DOPC   PO4 1441  22.692   6.275  11.520  0.2393  0.2352 -0.1030
  123DOPC   GL1 1442  22.417   6.459  11.825 -0.1973 -0.3347 -0.0290
  123DOPC   GL2 1443  22.617   6.207  11.949  0.1538  0.4266 -0.0339
  123DOPC   C1A 1444  22.369   6.522  12.209 -0.1193  0.1636  0.1881
  123DOPC   D2A 1445  22.255   6.345  12.635 -0.0651 -0.2775  0.0556
  123DOPC   C3A 1446  21.910   6.519  12.535 -0.1500  0.1415 -0.1751
  123DOPC   C4A 1447  21.562   6.780  12.398 -0.0694 -0.1427  0.2545
  123DOPC   C1B 1448  22.703   6.118  12.400  0.3702 -0.0403  0.2274
  123DOPC   D2B 1449  22.761   6.215  12.831  0.0689  0.2594  0.0738
  123DOPC   C3B 1450  23.050   6.035  13.187 -0.0241 -0.2787 -0.2001
  123DOPC   C4B 1451  23.210   5.982  13.646  0.3361  0.2408  0.1758
  124DOPC   NC3 1452  13.862   2.672  10.519 -0.2440  0.1234  0.0573
  124DOPC   PO4 1453  13.823   2.436  10.858 -0.0155  0.0572 -0.0132
  124DOPC   GL1 1454  13.698   2.675  11.215  0.3873  0.1527 -0.3221
  124DOPC   GL2 1455  13.847   2.515  11.337  0.3228 -0.0398 -0.2766
  124DOPC   C1A 1456  13.530   2.692  11.620  0.0054 -0.2126 -0.0519
  124DOPC   D2A 1457  13.541   2.687  12.107  0.1497  0.0535 -0.1309
  124DOPC   C3A 1458  13.472   2.585  12.550  0.0480  0.0185  0.0996
  124DOPC   C4A 1459  13.455   2.794  12.943  0.0236 -0.2691 -0.1512
  124DOPC   C1B 1460  14.061   2.500  11.733 -0.0675 -0.1076 -0.1763
  124DOPC   D2B 1461  14.312   2.432  12.175 -0.0364  0.2701 -0.2269
  124DOPC   C3B 1462  14.359   2.642  12.619 -0.0808  0.1329 -0.1029
  124DOPC   C4B 1463  14.416   2.856  13.034 -0.0541  0.0950  0.3204
  125DOPC   NC3 1464  29.002   0.699  11.147  0.0981 -0.0009  0.0386
  125DOPC   PO4 1465  29.041   0.365  11.328 -0.2543 -0.2433 -0.2995
  125DOPC   GL1 1466  28.882   0.294  11.694 -0.0798  0.4136 -0.3905
  125DOPC   GL2 1467  29.048   0.031  11.738  0.0559 -0.1852  0.0301
  125DOPC   C1A 1468  28.933   0.364  12.116  0.2680  0.0091 -0.1034
  125DOPC   D2A 1469  28.992   0.535  12.547  0.0158 -0.2014  0.1113
  125DOPC   C3A 1470  28.724   0.882  12.822  0.1800 -0.0631 -0.1831
  125DOPC   C4A 1471  28.498   1.230  13.103 -0.0628 -0.1886  0.0670
  125DOPC   C1B 1472  29.059  -0.125  12.122  0.0634 -0.3042  0.0901
  125DOPC   D2B 1473  29.002  -0.489  12.457  0.0778  0.1827 -0.1165
  125DOPC   C3B 1474  28.914  -0.421  12.925 -0.0694  0.1655 -0.3459
  125DOPC   C4B 1475  28.811  -0.111  13.298 -0.1863  0.1414  0.1281
  126DOPC   NC3 1476  27.582   2.479  11.227  0.0637 -0.2036  0.1077
  126DOPC   PO4 1477  27.696   2.804  11.412 -0.3293 -0.2061 -0.1472
  126DOPC   GL1 1478  27.851   2.726  11.772  0.3819  0.3189  0.1667
  126DOPC   GL2 1479  28.157   2.770  11.704  0.0400 -0.1801 -0.0535
  126DOPC   C1A 1480  27.814   2.763  12.125  0.0669 -0.3261  0.0044
  126DOPC   D2A 1481  27.879   2.799  12.639  0.0571 -0.1048  0.0302
  126DOPC   C3A 1482  27.717   2.437  12.967 -0.2526 -0.1327 -0.0187
  126DOPC   C4A 1483  27.520   2.111  13.319 -0.2476 -0.2769 -0.1211
  126DOPC   C1B 1484  28.160   3.088  12.059 -0.0123  0.1519 -0.1530
  126DOPC   D2B 1485  28.318   3.167  12.514 -0.0553 -0.1393  0.3039
  126DOPC   C3B 1486  28.131   3.251  12.912  0.0190 -0.1331  0.2091
  126DOPC   C4B 1487  28.105   3.241  13.348  0.2361  0.1314 -0.3852
  127DOPC   NC3 1488  11.644   3.123  11.405 -0.1596  0.4187 -0.0419
  127DOPC   PO4 1489  11.275   3.192  11.295  0.3867  0.1136 -0.1896
  127DOPC   GL1 1490  11.203   3.492  11.641 -0.0619  0.1612  0.0237
  127DOPC   GL2 1491  11.430   3.354  11.747  0.0344  0.1285  0.2363
  127DOPC   C1A 1492  11.345   3.801  11.917  0.1559  0.1493 -0.2580
  127DOPC   D2A 1493  11.355   4.101  12.310  0.2686  0.0722 -0.1736
  127DOPC   C3A 1494  11.437   4.295  12.701 -0.1118 -0.0350 -0.0547
  127DOPC   C4A 1495  11.451   4.541  13.142  0.0993  0.0318 -0.1153
  127DOPC   C1B 1496  11.406   3.368  12.175 -0.0277 -0.0023 -0.0670
  127DOPC   D2B 1497  11.660   3.360  12.619  0.0959 -0.0643  0.1864
  127DOPC   C3B 1498  11.458   3.373  13.029  0.0154 -0.0116 -0.1686
  127DOPC   C4B 1499  11.264   3.523  13.448  0.2398 -0.1969  0.1283
  128DOPC   NC3 1500  27.820   0.172  10.889 -0.1404 -0.0312 -0.0278
  128DOPC   PO4 1501  28.163   0.087  11.105  0.2104  0.0584 -0.0716
  128DOPC   GL1 1502  28.172  -0.056  11.523  0.1313  0.1481 -0.0919
  128DOPC   GL2 1503  28.186  -0.319  11.499 -0.6100  0.0983  0.0827
  128DOPC   C1A 1504  27.946   0.005  11.862 -0.0912  0.0866 -0.0707
  128DOPC   D2A 1505  27.844  -0.072  12.310 -0.0297 -0.2139 -0.1469
  128DOPC   C3A 1506  27.903  -0.147  12.777 -0.1468  0.0889  0.1087
  128DOPC   C4A 1507  27.873  -0.377  13.261  0.0058 -0.0106 -0.2166
  128DOPC   C1B 1508  28.227  -0.451  11.861 -0.0978 -0.0491  0.0484
  128DOPC   D2B 1509  28.355  -0.299  12.298 -0.1490  0.1064 -0.1497
  128DOPC   C3B 1510  28.301  -0.576  12.668  0.0163 -0.2789  0.2854
  128DOPC   C4B 1511  27.961  -0.818  12.955 -0.1921 -0.1803  0.1683
  129DOPC   NC3 1512  13.225   1.880  11.135 -0.0651 -0.1449 -0.0490
  129DOPC   PO4 1513  13.449   2.232  11.184  0.0027 -0.0241  0.1644
  129DOPC   GL1 1514  13.295   2.218  11.517 -0.0262 -0.0438 -0.1319
  129DOPC   GL2 1515  13.068   2.037  11.572 -0.1187 -0.1004 -0.0738
  129DOPC   C1A 1516  13.511   2.257  11.828 -0.0542 -0.3684 -0.0523
  129DOPC   D2A 1517  13.858   2.228  12.135  0.1195 -0.0013  0.0112
  129DOPC   C3A 1518  13.931   2.351  12.552  0.0369  0.2573  0.0011
  129DOPC   C4A 1519  14.252   2.303  12.938 -0.1124  0.2963 -0.0912
  129DOPC   C1B 1520  12.976   1.933  11.966  0.0640 -0.3062  0.1813
  129DOPC   D2B 1521  12.918   1.968  12.437  0.1045  0.2355  0.1048
  129DOPC   C3B 1522  13.128   1.886  12.843  0.1405  0.0950  0.0052
  129DOPC   C4B 1523  13.549   1.775  13.133  0.0295 -0.1881  0.0509
  130DOPC   NC3 1524  16.212   6.365  10.514  0.0352 -0.0606  0.1851
  130DOPC   PO4 1525  16.527   6.203  10.725 -0.1722 -0.1414  0.2111
  130DOPC   GL1 1526  16.519   6.104  11.089 -0.2862  0.0188 -0.4312
  130DOPC   GL2 1527  16.586   5.846  11.074  0.1829  0.0584  0.6095
  130DOPC   C1A 1528  16.769   6.243  11.456  0.0778 -0.0968 -0.1242
  130DOPC   D2A 1529  17.189   6.144  11.708  0.0250 -0.0419  0.1964
  130DOPC   C3A 1530  17.403   5.924  11.980 -0.0224  0.0524  0.1145
  130DOPC   C4A 1531  17.640   5.813  12.418  0.1065 -0.2249  0.0399
  130DOPC   C1B 1532  16.616   5.700  11.501  0.0303 -0.3772  0.3645
  130DOPC   D2B 1533  16.826   5.843  11.907  0.4408 -0.1185 -0.0805
  130DOPC   C3B 1534  16.649   5.989  12.383 -0.1047 -0.1016  0.1581
  130DOPC   C4B 1535  16.164   5.993  12.554  0.3493  0.2072  0.0142
  131DOPC   NC3 1536  26.827   5.286  11.408 -0.4248  0.3678 -0.1169
  131DOPC   PO4 1537  26.508   5.337  11.656  0.3356  0.1748  0.1063
  131DOPC   GL1 1538  26.369   5.233  11.992  0.0049 -0.0564 -0.0978
  131DOPC   GL2 1539  26.557   5.122  12.074 -0.1652 -0.2435 -0.1774
  131DOPC   C1A 1540  26.200   5.447  12.391  0.3812 -0.0027 -0.1227
  131DOPC   D2A 1541  25.966   5.407  12.919  0.1327  0.0494  0.0984
  131DOPC   C3A 1542  25.922   5.558  13.308  0.0221 -0.0045 -0.3126
  131DOPC   C4A 1543  25.913   5.607  13.800  0.1698  0.2226  0.1727
  131DOPC   C1B 1544  26.679   5.091  12.458  0.3227  0.0006  0.1123
  131DOPC   D2B 1545  26.690   5.216  12.895  0.0725  0.2322 -0.0696
  131DOPC   C3B 1546  26.958   5.459  13.205 -0.0292  0.0708  0.0259
  131DOPC   C4B 1547  27.183   5.757  13.595  0.0141  0.2290  0.0246
  132DOPC   NC3 1548  30.671   0.750  11.061 -0.0124 -0.0862  0.2355
  132DOPC   PO4 1549  30.951   0.604  11.311 -0.3299  0.0205 -0.0933
  132DOPC   GL1 1550  31.125   0.668  11.761  0.0579 -0.2548 -0.1262
  132DOPC   GL2 1551  31.217   0.445  11.764  0.3898  0.0133 -0.1488
  132DOPC   C1A 1552  31.081   0.742  12.165  0.0231  0.0595  0.1452
  132DOPC   D2A 1553  30.638   0.771  12.442  0.1864  0.0463  0.0429
  132DOPC   C3A 1554  30.207   0.632  12.531  0.0508 -0.2388  0.1073
  132DOPC   C4A 1555  29.868   0.319  12.411  0.0844 -0.1191 -0.2550
  132DOPC   C1B 1556  31.485   0.462  12.122  0.1850  0.2621  0.2269
  132DOPC   D2B 1557  31.727   0.247  12.455  0.0384 -0.3352  0.0656
  132DOPC   C3B 1558  32.001  -0.094  12.409  0.2909 -0.0720  0.1249
  132DOPC   C4B 1559  32.143  -0.510  12.654 -0.1608 -0.0569 -0.0945
  133DOPC   NC3 1560  28.373   1.693  10.830 -0.1611  0.0538  0.2018
  133DOPC   PO4 1561  28.074   1.513  10.965  0.1333  0.1404 -0.0602
  133DOPC   GL1 1562  27.977   1.571  11.363 -0.0976 -0.2475 -0.1107
  133DOPC   GL2 1563  28.157   1.408  11.387 -0.2874  0.0493 -0.0761
  133DOPC   C1A 1564  27.810   1.735  11.815 -0.1014 -0.0140  0.2095
  133DOPC   D2A 1565  27.844   1.570  12.283  0.0700 -0.2647 -0.1415
  133DOPC   C3A 1566  27.833   1.824  12.647  0.1609  0.0756  0.0041
  133DOPC   C4A 1567  27.677   1.716  13.057 -0.3657  0.2690 -0.2450
  133DOPC   C1B 1568  28.278   1.489  11.824 -0.1141  0.0478  0.1664
  133DOPC   D2B 1569  28.276   1.409  12.348 -0.1899  0.0872  0.1363
  133DOPC   C3B 1570  28.125   1.363  12.744  0.0562 -0.2388 -0.2766
  133DOPC   C4B 1571  27.944   1.253  13.213 -0.0786 -0.2468  0.0506
  134DOPC   NC3 1572  30.680   1.653  11.071  0.0272 -0.0091 -0.0425
  134DOPC   PO4 1573  30.550   1.958  11.312  0.0885  0.2306 -0.1358
  134DOPC   GL1 1574  30.712   2.052  11.720  0.2702 -0.0980  0.3627
  134DOPC   GL2 1575  30.956   2.067  11.713  0.1278 -0.1755 -0.1527
  134DOPC   C1A 1576  30.592   1.679  12.033  0.2424 -0.0196 -0.0410
  134DOPC   D2A 1577  30.167   1.508  12.184  0.1661 -0.1283  0.1416
  134DOPC   C3A 1578  29.888   1.508  12.553  0.2806  0.0927  0.0447
  134DOPC   C4A 1579  29.572   1.239  12.778 -0.1896  0.1381 -0.0233
  134DOPC   C1B 1580  31.238   2.122  12.056 -0.0071  0.1154 -0.0125
  134DOPC   D2B 1581  31.169   2.165  12.554 -0.1850  0.1545 -0.4841
  134DOPC   C3B 1582  31.445   2.299  12.885  0.0310 -0.0390 -0.1911
  134DOPC   C4B 1583  31.840   2.458  13.124 -0.3054  0.1401  0.1275
  135DOPC   NC3 1584   2.470   5.967  11.300 -0.0377 -0.1245  0.0997
  135DOPC   PO4 1585   2.424   6.343  11.352  0.4024  0.1015  0.0488
  135DOPC   GL1 1586   2.423   6.434  11.776  0.0383  0.0090  0.1266
  135DOPC   GL2 1587   2.129   6.463  11.718  0.1073  0.1907  0.0281
  135DOPC   C1A 1588   2.364   5.970  11.872 -0.3040  0.2583 -0.0637
  135DOPC   D2A 1589   2.339   5.579  12.226  0.0924 -0.0110 -0.0134
  135DOPC   C3A 1590   2.118   5.484  12.638 -0.2437 -0.0057  0.2051
  135DOPC   C4A 1591   1.788   5.630  12.981 -0.1688 -0.1122 -0.0182
  135DOPC   C1B 1592   2.086   6.675  12.099  0.1448 -0.1799  0.1977
  135DOPC   D2B 1593   2.247   6.689  12.575  0.2034  0.2222  0.3804
  135DOPC   C3B 1594   2.479   6.752  12.963  0.0614  0.2052 -0.0300
  135DOPC   C4B 1595   2.597   6.724  13.462 -0.1843 -0.3676  0.0757
  136DOPC   NC3 1596   9.823   0.758  11.084  0.1983  0.0661 -0.4810
  136DOPC   PO4 1597  10.188   0.617  11.132  0.0265 -0.0934  0.1229
  136DOPC   GL1 1598  10.084   0.698  11.546  0.0499  0.1839  0.1900
  136DOPC   GL2 1599  10.236   0.886  11.489 -0.4259  0.3415 -0.0499
  136DOPC   C1A 1600   9.984   0.630  11.951  0.2126 -0.0371  0.0642
  136DOPC   D2A 1601  10.229   0.395  12.287  0.2222  0.3945 -0.1806
  136DOPC   C3A 1602  10.061   0.485  12.736 -0.1021 -0.3652 -0.3908
  136DOPC   C4A 1603   9.918   0.668  13.186 -0.0046  0.0482 -0.5186
  136DOPC   C1B 1604  10.388   1.013  11.878  0.3464 -0.3947  0.1499
  136DOPC   D2B 1605  10.206   0.847  12.357  0.0524 -0.2811 -0.3910
  136DOPC   C3B 1606  10.460   0.949  12.744  0.4664  0.1116  0.1806
  136DOPC   C4B 1607  10.508   0.582  13.031 -0.0957 -0.1176 -0.1058
  137DOPC   NC3 1608   7.730   4.599  11.151 -0.0824  0.2282 -0.2898
  137DOPC   PO4 1609   8.011   4.327  11.282 -0.0508  0.0666  0.0257
  137DOPC   GL1 1610   7.962   4.237  11.689  0.1590  0.2194  0.2042
  137DOPC   GL2 1611   7.712   4.328  11.747 -0.1346  0.0151 -0.1622
  137DOPC   C1A 1612   8.199   4.171  12.090  0.1109  0.0041  0.1758
  137DOPC   D2A 1613   8.524   4.012  12.387  0.1001 -0.0351 -0.0248
  137DOPC   C3A 1614   8.925   4.223  12.558  0.2241  0.1304 -0.3337
  137DOPC   C4A 1615   9.254   4.374  12.874  0.3085  0.1901 -0.1961
  137DOPC   C1B 1616   7.620   4.288  12.135 -0.0511  0.0548 -0.1433
  137DOPC   D2B 1617   7.741   4.423  12.558 -0.1082 -0.0928 -0.0602
  137DOPC   C3B 1618   7.428   4.343  12.886  0.2479  0.3480 -0.0617
  137DOPC   C4B 1619   7.196   4.063  13.285 -0.2554  0.1840 -0.2033
  138DOPC   NC3 1620  23.235   6.195  11.574  0.0485  0.3427  0.2319
  138DOPC   PO4 1621  23.437   5.884  11.711 -0.3098 -0.1397 -0.0448
  138DOPC   GL1 1622  23.372   5.877  12.049 -0.3546 -0.1116  0.0332
  138DOPC   GL2 1623  23.528   5.863  12.268  0.0049  0.1052  0.2153
  138DOPC   C1A 1624  23.103   5.751  12.367 -0.0161  0.1902  0.3573
  138DOPC   D2A 1625  22.962   5.686  12.818  0.0575  0.2568  0.0206
  138DOPC   C3A 1626  22.616   5.652  13.159  0.1753  0.0162 -0.2228
  138DOPC   C4A 1627  22.240   5.755  13.448  0.0252 -0.4083 -0.0981
  138DOPC   C1B 1628  23.553   5.585  12.641 -0.0996  0.1883  0.2309
  138DOPC   D2B 1629  23.426   5.362  13.078 -0.2251 -0.0429 -0.2969
  138DOPC   C3B 1630  22.932   5.231  13.083  0.1815 -0.0130  0.1931
  138DOPC   C4B 1631  22.731   4.950  13.358 -0.1877 -0.0913 -0.0318
  139DOPC   NC3 1632  19.598   2.648  11.304 -0.1225  0.0673 -0.1251
  139DOPC   PO4 1633  19.320   2.719  11.080 -0.1862  0.1012  0.1178
  139DOPC   GL1 1634  19.115   2.901  11.439 -0.4743  0.0204  0.0666
  139DOPC   GL2 1635  19.166   2.596  11.526  0.0714 -0.2376  0.0653
  139DOPC   C1A 1636  19.030   2.841  11.883 -0.2833 -0.4518  0.0857
  139DOPC   D2A 1637  18.983   3.051  12.371 -0.5964  0.0981 -0.4369
  139DOPC   C3A 1638  18.900   3.088  12.845 -0.0984 -0.2568 -0.1525
  139DOPC   C4A 1639  18.803   2.867  13.294 -0.1385  0.0667  0.1311
  139DOPC   C1B 1640  18.943   2.374  11.824 -0.2197 -0.0087 -0.2104
  139DOPC   D2B 1641  18.512   2.243  11.996  0.1684 -0.3338 -0.0318
  139DOPC   C3B 1642  18.122   2.399  12.247 -0.0554  0.1453  0.3246
  139DOPC   C4B 1643  17.842   2.717  12.455  0.2502  0.0510 -0.1873
  140DOPC   NC3 1644   8.509   5.483  11.192  0.0141 -0.1575  0.0390
  140DOPC   PO4 1645   8.206   5.235  11.237 -0.2453  0.0368  0.3293
  140DOPC   GL1 1646   8.246   5.155  11.673  0.2139 -0.0578 -0.0918
  140DOPC   GL2 1647   8.574   5.216  11.619  0.4201 -0.1816 -0.4053
  140DOPC   C1A 1648   8.105   5.461  12.007  0.0653 -0.1099  0.0350
  140DOPC   D2A 1649   8.023   5.754  12.390 -0.1880  0.1043  0.0347
  140DOPC   C3A 1650   7.786   6.010  12.727  0.2989  0.3560  0.2389
  140DOPC   C4A 1651   7.793   6.314  13.066  0.1933 -0.0094  0.0754
  140DOPC   C1B 1652   8.713   5.578  11.844  0.0810 -0.1824 -0.3261
  140DOPC   D2B 1653   8.926   5.713  12.268 -0.1808 -0.2447  0.1755
  140DOPC   C3B 1654   9.198   5.486  12.608 -0.1138  0.3359  0.1780
  140DOPC   C4B 1655   9.120   5.319  13.086  0.1816 -0.0579  0.0043
  141DOPC   NC3 1656  23.226   4.442  11.888 -0.0629  0.0649  0.1320
  141DOPC   PO4 1657  23.593   4.432  11.753  0.1693 -0.1596 -0.0340
  141DOPC   GL1 1658  23.522   4.085  11.962  0.0263  0.0030 -0.1283
  141DOPC   GL2 1659  23.799   4.115  12.089 -0.0293  0.3558  0.1334
  141DOPC   C1A 1660  23.267   4.088  12.361  0.0123 -0.0121 -0.0361
  141DOPC   D2A 1661  23.229   3.939  12.815 -0.0309  0.1027  0.4703
  141DOPC   C3A 1662  23.374   4.059  13.206 -0.1219 -0.1415  0.1792
  141DOPC   C4A 1663  23.602   4.038  13.604 -0.3198  0.3850  0.2261
  141DOPC   C1B 1664  23.921   3.860  12.412  0.0486  0.1819  0.1679
  141DOPC   D2B 1665  24.061   3.649  12.821 -0.1726  0.2520  0.0420
  141DOPC   C3B 1666  23.874   3.366  13.118 -0.1822 -0.0612  0.0553
  141DOPC   C4B 1667  23.702   3.157  13.533  0.0465 -0.0799 -0.0850
  142DOPC   NC3 1668  12.918   3.399  11.227  0.2960 -0.3015  0.2806
  142DOPC   PO4 1669  12.519   3.363  11.242 -0.2422 -0.2407  0.2005
  142DOPC   GL1 1670  12.367   3.630  11.555 -0.1358  0.1821  0.2158
  142DOPC   GL2 1671  12.068   3.427  11.511  0.1706 -0.1952  0.0997
  142DOPC   C1A 1672  12.285   3.818  11.940  0.0607  0.0078  0.2443
  142DOPC   D2A 1673  12.255   3.927  12.431 -0.2131 -0.0979  0.0702
  142DOPC   C3A 1674  12.538   3.877  12.721 -0.0119 -0.1164  0.3005
  142DOPC   C4A 1675  12.855   3.490  12.863  0.1115 -0.2742  0.0813
  142DOPC   C1B 1676  11.898   3.270  11.868  0.0209  0.1913  0.3528
  142DOPC   D2B 1677  11.700   2.982  12.270  0.2170 -0.1029  0.0239
  142DOPC   C3B 1678  11.595   2.905  12.745  0.2181 -0.0256  0.4823
  142DOPC   C4B 1679  11.478   2.761  13.156 -0.2676 -0.3444  0.0657
  143DOPC   NC3 1680  10.562   4.159  10.976 -0.3783 -0.2177  0.1966
  143DOPC   PO4 1681  10.970   4.142  10.942  0.1106  0.1669  0.2141
  143DOPC   GL1 1682  11.074   4.058  11.307 -0.0506 -0.4169  0.1886
  143DOPC   GL2 1683  11.098   3.801  11.339  0.1910 -0.0289  0.2837
  143DOPC   C1A 1684  11.172   4.249  11.636 -0.0715  0.2275 -0.1804
  143DOPC   D2A 1685  11.200   4.620  12.004 -0.1105 -0.0770 -0.0096
  143DOPC   C3A 1686  11.526   4.677  12.364  0.0934  0.1473 -0.1025
  143DOPC   C4A 1687  11.588   4.913  12.779  0.2744 -0.1327 -0.1850
  143DOPC   C1B 1688  10.883   3.793  11.765 -0.2803 -0.2871 -0.3766
  143DOPC   D2B 1689  10.988   3.761  12.257  0.0957  0.1314  0.1614
  143DOPC   C3B 1690  11.150   3.827  12.642  0.0347 -0.2969 -0.2109
  143DOPC   C4B 1691  11.349   3.910  13.132 -0.0065  0.0778 -0.1137
  144DOPC   NC3 1692  14.039   4.377  11.328  0.3722 -0.1512 -0.3911
  144DOPC   PO4 1693  14.275   4.303  11.055 -0.1626 -0.1792  0.0411
  144DOPC   GL1 1694  14.478   4.454  11.398 -0.1607  0.1627  0.0028
  144DOPC   GL2 1695  14.670   4.301  11.424 -0.3590 -0.0798  0.0080
  144DOPC   C1A 1696  14.285   4.332  11.747  0.0309 -0.0597 -0.2513
  144DOPC   D2A 1697  14.219   4.075  12.201 -0.0855 -0.0547  0.0449
  144DOPC   C3A 1698  13.922   4.124  12.489  0.3478  0.2210 -0.2167
  144DOPC   C4A 1699  13.431   4.131  12.440  0.3233  0.0528 -0.0188
  144DOPC   C1B 1700  14.775   4.290  11.829 -0.1174  0.2991 -0.0861
  144DOPC   D2B 1701  14.683   4.341  12.326 -0.1499  0.0086 -0.3282
  144DOPC   C3B 1702  14.542   4.624  12.681 -0.0978 -0.1502  0.1691
  144DOPC   C4B 1703  14.308   5.025  12.587 -0.2169  0.0336 -0.1010
  145DOPC   NC3 1704  14.405   2.465  11.204 -0.1874  0.0403 -0.3182
  145DOPC   PO4 1705  14.506   2.093  11.057  0.0458 -0.1025 -0.0690
  145DOPC   GL1 1706  14.586   1.931  11.469 -0.0993  0.1426  0.3005
  145DOPC   GL2 1707  14.280   2.111  11.451 -0.1763 -0.1030 -0.2467
  145DOPC   C1A 1708  14.992   1.852  11.715 -0.1598 -0.3181 -0.1181
  145DOPC   D2A 1709  15.312   1.628  12.109 -0.0915 -0.2205 -0.0834
  145DOPC   C3A 1710  15.244   1.993  12.386  0.1880  0.1264 -0.2505
  145DOPC   C4A 1711  15.209   2.466  12.406  0.2267 -0.0902 -0.2159
  145DOPC   C1B 1712  13.900   1.975  11.707 -0.1810 -0.0725  0.0111
  145DOPC   D2B 1713  14.028   1.746  12.168  0.3150  0.1081  0.0774
  145DOPC   C3B 1714  14.375   1.975  12.428 -0.2911 -0.1217 -0.3107
  145DOPC   C4B 1715  14.746   2.285  12.625  0.1041  0.2287 -0.1066
  146DOPC   NC3 1716  26.767   2.233  11.339 -0.1862 -0.2578 -0.1308
  146DOPC   PO4 1717  26.495   2.500  11.413 -0.0980 -0.1752  0.0388
  146DOPC   GL1 1718  26.425   2.724  11.794  0.4205  0.1378 -0.0221
  146DOPC   GL2 1719  26.688   2.802  11.835  0.0445  0.1869 -0.1148
  146DOPC   C1A 1720  26.198   2.438  12.044  0.1923  0.0152 -0.1228
  146DOPC   D2A 1721  25.850   2.186  12.359 -0.3723 -0.1697  0.0725
  146DOPC   C3A 1722  25.607   2.562  12.530 -0.1075 -0.0160 -0.0568
  146DOPC   C4A 1723  25.584   3.037  12.776 -0.2677  0.1678  0.1594
  146DOPC   C1B 1724  26.933   3.022  12.132  0.2272  0.0370  0.1406
  146DOPC   D2B 1725  27.091   3.279  12.627  0.1702  0.3017  0.1545
  146DOPC   C3B 1726  27.146   3.373  13.077 -0.1234 -0.3270 -0.1045
  146DOPC   C4B 1727  26.980   3.475  13.522  0.1414 -0.1293 -0.1601
  147DOPC   NC3 1728  28.080   0.721  10.907  0.0264 -0.1140 -0.0695
  147DOPC   PO4 1729  27.736   0.618  11.083 -0.0552 -0.1134  0.2981
  147DOPC   GL1 1730  27.735   0.578  11.565 -0.4838 -0.1492  0.1864
  147DOPC   GL2 1731  27.611   0.837  11.550  0.0866  0.4590  0.2542
  147DOPC   C1A 1732  27.949   0.517  11.910 -0.0479  0.0719  0.0957
  147DOPC   D2A 1733  28.330   0.674  12.220 -0.0419  0.1988  0.0727
  147DOPC   C3A 1734  28.509   0.461  12.644 -0.0310  0.1304 -0.1871
  147DOPC   C4A 1735  28.863   0.386  13.027 -0.0451 -0.0096  0.1211
  147DOPC   C1B 1736  27.480   0.747  11.968  0.2651  0.1272  0.0476
  147DOPC   D2B 1737  27.284   0.730  12.426 -0.1960 -0.1326 -0.2121
  147DOPC   C3B 1738  27.367   0.803  12.925  0.0645 -0.3516 -0.1712
  147DOPC   C4B 1739  27.633   0.749  13.367 -0.3523 -0.0991  0.0671
  148DOPC   NC3 1740  30.982   0.125  11.399  0.0552  0.3533 -0.0532
  148DOPC   PO4 1741  30.866  -0.057  11.017  0.1134  0.0605 -0.1642
  148DOPC   GL1 1742  30.550  -0.144  11.269  0.0909 -0.4165 -0.5381
  148DOPC   GL2 1743  30.658  -0.253  11.439 -0.4696  0.4428  0.1112
  148DOPC   C1A 1744  30.280  -0.009  11.630  0.1152 -0.2237  0.1922
  148DOPC   D2A 1745  29.977  -0.073  12.078  0.0887 -0.0696 -0.0122
  148DOPC   C3A 1746  30.130  -0.067  12.539  0.3520  0.0813  0.0192
  148DOPC   C4A 1747  30.204  -0.169  13.026  0.4022  0.3902 -0.2039
  148DOPC   C1B 1748  30.737  -0.181  11.850 -0.0043 -0.3615  0.0628
  148DOPC   D2B 1749  30.870  -0.204  12.305  0.0561  0.3504 -0.2446
  148DOPC   C3B 1750  31.164   0.037  12.639 -0.0341 -0.2554  0.1104
  148DOPC   C4B 1751  31.498   0.296  12.926  0.0861 -0.4288  0.1264
  149DOPC   NC3 1752  15.987   4.138  10.755  0.0986 -0.2145 -0.0056
  149DOPC   PO4 1753  16.218   4.470  10.692  0.0391 -0.0271 -0.2890
  149DOPC   GL1 1754  16.381   4.553  11.121  0.3670  0.1552  0.0081
  149DOPC   GL2 1755  16.162   4.312  11.144 -0.5067  0.2412 -0.2239
  149DOPC   C1A 1756  16.183   4.718  11.425  0.0918 -0.0719 -0.1064
  149DOPC   D2A 1757  16.027   4.612  11.960  0.0962  0.0767  0.1226
  149DOPC   C3A 1758  15.792   4.875  12.236 -0.0373 -0.2687 -0.0663
  149DOPC   C4A 1759  15.611   5.232  12.570 -0.1255 -0.3352 -0.1315
  149DOPC   C1B 1760  15.981   4.244  11.513 -0.2115 -0.1392  0.3002
  149DOPC   D2B 1761  15.699   4.267  11.893 -0.0451 -0.1302 -0.0973
  149DOPC   C3B 1762  15.721   4.335  12.374  0.1926 -0.1624 -0.0584
  149DOPC   C4B 1763  15.772   4.234  12.812  0.3483  0.1449 -0.1492
  150DOPC   NC3 1764  20.059   1.996  10.943 -0.0478 -0.1236 -0.0479
  150DOPC   PO4 1765  20.110   1.633  11.137  0.0288  0.3139 -0.0995
  150DOPC   GL1 1766  20.113   1.614  11.522  0.4558  0.2907 -0.0823
  150DOPC   GL2 1767  19.952   1.883  11.605  0.1045  0.0471  0.1495
  150DOPC   C1A 1768  20.325   1.369  11.817 -0.2507 -0.1952 -0.3323
  150DOPC   D2A 1769  20.379   1.100  12.216  0.0712 -0.3171 -0.1229
  150DOPC   C3A 1770  20.631   1.199  12.654  0.0344 -0.5699  0.0483
  150DOPC   C4A 1771  20.637   1.515  13.122  0.0987  0.1801 -0.0384
  150DOPC   C1B 1772  19.789   1.850  12.019 -0.3690 -0.1689 -0.1217
  150DOPC   D2B 1773  19.536   2.112  12.384 -0.2377 -0.1703  0.0382
  150DOPC   C3B 1774  19.454   2.428  12.730 -0.1642  0.3055  0.2584
  150DOPC   C4B 1775  19.303   2.806  13.026 -0.2195  0.0196  0.2215
  151DOPC   NC3 1776  11.478   1.750  11.149 -0.2758 -0.3721 -0.3755
  151DOPC   PO4 1777  11.730   2.031  11.351 -0.1329  0.0024 -0.1348
  151DOPC   GL1 1778  11.514   2.259  11.634 -0.1002  0.0349  0.4196
  151DOPC   GL2 1779  11.622   1.955  11.722 -0.0273 -0.0056  0.0532
  151DOPC   C1A 1780  11.325   2.219  12.025 -0.4176 -0.0764 -0.0517
  151DOPC   D2A 1781  11.054   2.114  12.399 -0.3141  0.2929  0.2034
  151DOPC   C3A 1782  10.781   2.299  12.802  0.3814  0.1887  0.0661
  151DOPC   C4A 1783  10.871   2.621  13.124 -0.3655  0.0261 -0.0213
  151DOPC   C1B 1784  11.821   1.906  12.166 -0.2732 -0.1277 -0.0752
  151DOPC   D2B 1785  11.892   1.684  12.569  0.1001  0.0484  0.0016
  151DOPC   C3B 1786  11.778   1.286  12.749 -0.0142  0.0286 -0.0040
  151DOPC   C4B 1787  11.502   0.853  12.677  0.3477  0.1258  0.2504
  152DOPC   NC3 1788  29.504   2.516  10.954  0.0886  0.1530 -0.1017
  152DOPC   PO4 1789  29.557   2.483  11.334  0.0716  0.2997  0.4414
  152DOPC   GL1 1790  29.350   2.275  11.747  0.1777 -0.0493  0.0819
  152DOPC   GL2 1791  29.429   2.605  11.790 -0.1040  0.0781 -0.1975
  152DOPC   C1A 1792  29.016   2.263  12.046 -0.0542 -0.0454 -0.1266
  152DOPC   D2A 1793  28.870   2.656  12.303  0.2129 -0.1482 -0.1601
  152DOPC   C3A 1794  28.823   3.069  12.548  0.3554  0.1307 -0.0933
  152DOPC   C4A 1795  28.892   3.496  12.746  0.1755 -0.0915  0.0498
  152DOPC   C1B 1796  29.455   2.707  12.237  0.0517  0.0649 -0.0277
  152DOPC   D2B 1797  29.325   3.026  12.606  0.0948 -0.0063 -0.0798
  152DOPC   C3B 1798  29.276   3.146  13.048 -0.1847 -0.2273 -0.0565
  152DOPC   C4B 1799  29.429   3.173  13.498 -0.0519  0.1635 -0.1891
  153DOPC   NC3 1800  17.825   7.014  10.794  0.2079  0.1323  0.0788
  153DOPC   PO4 1801  17.909   7.388  10.957  0.3070  0.0313  0.3839
  153DOPC   GL1 1802  17.694   7.758  11.216  0.1259  0.0657  0.3305
  153DOPC   GL2 1803  17.570   7.549  11.376 -0.4460 -0.1573 -0.1108
  153DOPC   C1A 1804  17.514   8.108  11.353 -0.1600 -0.1909  0.2896
  153DOPC   D2A 1805  17.568   8.364  11.739  0.0240  0.0961 -0.0812
  153DOPC   C3A 1806  17.538   8.469  12.209 -0.3816 -0.1614  0.2535
  153DOPC   C4A 1807  17.618   8.697  12.635 -0.1159 -0.0222  0.3975
  153DOPC   C1B 1808  17.290   7.588  11.709 -0.3649 -0.1540 -0.0922
  153DOPC   D2B 1809  16.996   7.650  12.101 -0.2365 -0.1514 -0.0797
  153DOPC   C3B 1810  17.097   7.730  12.568 -0.2901 -0.2573 -0.0718
  153DOPC   C4B 1811  17.459   7.851  12.974  0.0073 -0.2326 -0.2309
  154DOPC   NC3 1812  23.793   2.174  11.489  0.0830  0.0889  0.2715
  154DOPC   PO4 1813  23.871   2.168  11.874  0.1592 -0.1113  0.0177
  154DOPC   GL1 1814  23.837   2.516  12.152  0.0261 -0.1152  0.0055
  154DOPC   GL2 1815  24.128   2.438  12.131 -0.2090 -0.1362  0.2566
  154DOPC   C1A 1816  23.605   2.570  12.499  0.1404 -0.2862 -0.0888
  154DOPC   D2A 1817  23.350   2.547  12.910 -0.0146  0.1380  0.1339
  154DOPC   C3A 1818  23.673   2.651  13.248 -0.0263  0.0998 -0.0920
  154DOPC   C4A 1819  24.152   2.823  13.295  0.0722 -0.1786  0.1458
  154DOPC   C1B 1820  24.400   2.558  12.465 -0.0550 -0.2146 -0.0750
  154DOPC   D2B 1821  24.623   2.875  12.741  0.0133  0.0992 -0.1271
  154DOPC   C3B 1822  24.609   2.624  13.141 -0.1059  0.2330 -0.1469
  154DOPC   C4B 1823  24.398   2.482  13.528 -0.0865 -0.0498  0.0395
  155DOPC   NC3 1824  27.498   7.022  11.151 -0.0172  0.0019  0.0806
  155DOPC   PO4 1825  27.173   6.964  11.326 -0.0435  0.0499 -0.2618
  155DOPC   GL1 1826  27.189   7.224  11.617  0.0845  0.3925  0.1413
  155DOPC   GL2 1827  27.369   7.110  11.836 -0.0970  0.1781 -0.1916
  155DOPC   C1A 1828  26.954   7.412  11.867  0.2186  0.1123 -0.2114
  155DOPC   D2A 1829  26.891   7.537  12.370 -0.1101  0.0043  0.0249
  155DOPC   C3A 1830  26.895   7.624  12.846 -0.0143 -0.2397  0.1939
  155DOPC   C4A 1831  26.872   7.784  13.313  0.1193 -0.3034  0.1394
  155DOPC   C1B 1832  27.298   7.146  12.239  0.0583  0.1973 -0.0328
  155DOPC   D2B 1833  27.193   7.298  12.751 -0.1399  0.0139  0.2311
  155DOPC   C3B 1834  27.492   7.180  13.074  0.1821 -0.0044  0.1587
  155DOPC   C4B 1835  27.762   6.891  13.395 -0.0391 -0.1238  0.0449
  156DOPC   NC3 1836  25.153   4.927  11.656  0.0215 -0.0575  0.2801
  156DOPC   PO4 1837  25.515   4.948  11.514 -0.3257 -0.1800 -0.1949
  156DOPC   GL1 1838  25.547   4.693  11.840 -0.0785  0.0374 -0.0685
  156DOPC   GL2 1839  25.739   4.677  11.969 -0.2788  0.0146  0.1126
  156DOPC   C1A 1840  25.318   4.808  12.240 -0.2364 -0.0214  0.2212
  156DOPC   D2A 1841  25.116   4.711  12.689  0.3483  0.0601  0.2672
  156DOPC   C3A 1842  25.163   4.900  13.135  0.2260  0.1489 -0.0804
  156DOPC   C4A 1843  25.320   4.985  13.604 -0.2747  0.2127  0.0610
  156DOPC   C1B 1844  25.664   4.441  12.361 -0.0672 -0.7085 -0.2584
  156DOPC   D2B 1845  25.510   4.491  12.805 -0.0692 -0.0346  0.0197
  156DOPC   C3B 1846  25.207   4.384  13.073 -0.1196 -0.0005 -0.0760
  156DOPC   C4B 1847  25.027   4.559  13.498 -0.1039 -0.0621 -0.0796
  157DOPC   NC3 1848   4.059   3.810  10.720  0.2333  0.0139  0.2581
  157DOPC   PO4 1849   3.982   3.995  11.067 -0.3690 -0.3489 -0.1322
  157DOPC   GL1 1850   4.008   3.898  11.414 -0.2561  0.3372  0.0729
  157DOPC   GL2 1851   4.262   3.741  11.460 -0.1048  0.1872  0.0406
  157DOPC   C1A 1852   3.932   4.114  11.849  0.0937 -0.1795  0.0349
  157DOPC   D2A 1853   3.753   4.336  12.270  0.1062 -0.0389 -0.1029
  157DOPC   C3A 1854   3.740   4.501  12.745  0.2084 -0.0055  0.0045
  157DOPC   C4A 1855   3.717   4.730  13.216  0.2388 -0.0376 -0.2713
  157DOPC   C1B 1856   4.378   3.611  11.874 -0.2931 -0.2372 -0.1309
  157DOPC   D2B 1857   4.756   3.450  12.205 -0.1405 -0.0278 -0.0752
  157DOPC   C3B 1858   5.076   3.784  12.421  0.1471 -0.2456 -0.2146
  157DOPC   C4B 1859   5.092   3.885  12.889  0.4118 -0.0781 -0.1238
  158DOPC   NC3 1860   0.862   6.697  11.399 -0.1951  0.2289 -0.5267
  158DOPC   PO4 1861   1.034   6.348  11.386  0.2051  0.2767 -0.5459
  158DOPC   GL1 1862   1.294   6.131  11.654 -0.0350 -0.2557 -0.0641
  158DOPC   GL2 1863   1.572   6.238  11.573 -0.1924  0.1894  0.1099
  158DOPC   C1A 1864   1.456   5.825  11.906  0.1844  0.2026  0.0428
  158DOPC   D2A 1865   1.508   5.434  12.175  0.1025 -0.0887  0.2597
  158DOPC   C3A 1866   1.535   5.517  12.625  0.6109  0.2690  0.1985
  158DOPC   C4A 1867   1.407   5.396  13.160  0.0409 -0.0768 -0.0312
  158DOPC   C1B 1868   1.807   6.233  12.006  0.0756 -0.1074 -0.2566
  158DOPC   D2B 1869   2.174   6.200  12.326 -0.2387  0.1326 -0.0882
  158DOPC   C3B 1870   2.455   5.914  12.584 -0.4104  0.1167  0.4235
  158DOPC   C4B 1871   2.888   5.840  12.810  0.1567  0.1650 -0.1721
  159DOPC   NC3 1872   3.345   3.910  10.608  0.1548  0.2891  0.1085
  159DOPC   PO4 1873   3.505   3.884  10.976 -0.1537  0.1704  0.3408
  159DOPC   GL1 1874   3.383   3.788  11.420 -0.1704  0.2725  0.2156
  159DOPC   GL2 1875   3.581   3.955  11.529 -0.1785 -0.2188 -0.1252
  159DOPC   C1A 1876   3.404   3.432  11.690  0.2310 -0.1671  0.2149
  159DOPC   D2A 1877   3.680   3.117  11.989 -0.2916 -0.1474  0.0010
  159DOPC   C3A 1878   4.051   3.282  12.291 -0.1584 -0.0678 -0.3806
  159DOPC   C4A 1879   4.195   3.534  12.702  0.0909  0.3433  0.2892
  159DOPC   C1B 1880   3.510   3.913  11.962 -0.1313  0.3076 -0.0842
  159DOPC   D2B 1881   3.242   4.064  12.338 -0.0996  0.1538 -0.0547
  159DOPC   C3B 1882   3.247   4.185  12.823  0.3874  0.1603  0.5113
  159DOPC   C4B 1883   2.859   4.294  13.087  0.4621 -0.0929 -0.1370
  160DOPC   NC3 1884  28.764   2.940  10.987  0.0569 -0.0507  0.0699
  160DOPC   PO4 1885  28.949   2.591  11.048  0.1243 -0.5389 -0.1195
  160DOPC   GL1 1886  29.134   2.579  11.420 -0.2890  0.4402 -0.0723
  160DOPC   GL2 1887  29.176   2.818  11.414 -0.1174  0.0035 -0.3084
  160DOPC   C1A 1888  28.983   2.751  11.846 -0.0426 -0.1795  0.1863
  160DOPC   D2A 1889  29.027   3.191  12.102 -0.0098  0.1036  0.1827
  160DOPC   C3A 1890  28.726   3.516  12.197 -0.1674 -0.1185  0.0329
  160DOPC   C4A 1891  28.466   3.680  12.487 -0.0264  0.0004 -0.3588
  160DOPC   C1B 1892  29.423   3.062  11.695  0.0804 -0.1969  0.0727
  160DOPC   D2B 1893  29.575   3.193  12.196 -0.0741  0.0857 -0.2599
  160DOPC   C3B 1894  29.831   3.253  12.546  0.0208  0.2838  0.1115
  160DOPC   C4B 1895  30.148   3.238  12.913 -0.2197  0.0936 -0.0738
  161DOPC   NC3 1896   7.752   0.369  10.815  0.2347  0.0246 -0.3862
  161DOPC   PO4 1897   7.875   0.711  10.952 -0.0520  0.0307  0.0162
  161DOPC   GL1 1898   7.996   0.792  11.318  0.1045  0.3637  0.0807
  161DOPC   GL2 1899   7.786   0.619  11.468  0.7454 -0.0825 -0.0584
  161DOPC   C1A 1900   8.238   0.741  11.712 -0.1237 -0.3250 -0.1233
  161DOPC   D2A 1901   8.509   0.792  12.088 -0.1313  0.2607 -0.0478
  161DOPC   C3A 1902   8.353   0.838  12.564  0.0552  0.1948 -0.5260
  161DOPC   C4A 1903   8.201   0.661  13.031  0.2420  0.0659  0.2091
  161DOPC   C1B 1904   7.693   0.949  11.892 -0.0643  0.1453  0.2030
  161DOPC   D2B 1905   7.555   0.997  12.362 -0.0530  0.1658  0.0528
  161DOPC   C3B 1906   7.764   0.855  12.757 -0.2220  0.0159 -0.2045
  161DOPC   C4B 1907   8.024   1.154  13.004 -0.1206 -0.0738  0.3728
  162DOPC   NC3 1908  10.739   7.400  10.395 -0.1620  0.2155 -0.4244
  162DOPC   PO4 1909  10.647   7.095  10.657 -0.0052 -0.0040  0.0868
  162DOPC   GL1 1910  10.729   7.018  11.085 -0.1288  0.0050  0.0316
  162DOPC   GL2 1911  10.668   6.728  11.086  0.0932 -0.0502  0.1147
  162DOPC   C1A 1912  10.847   7.246  11.454 -0.0594 -0.0859 -0.3735
  162DOPC   D2A 1913  10.548   7.527  11.694  0.1611 -0.0562  0.0665
  162DOPC   C3A 1914  10.568   7.784  12.104  0.2584 -0.2946  0.0412
  162DOPC   C4A 1915  10.678   8.100  12.567  0.0419 -0.0229  0.1632
  162DOPC   C1B 1916  10.583   6.782  11.580  0.2755  0.3181  0.2626
  162DOPC   D2B 1917  10.690   7.128  11.917  0.0361  0.0953  0.0517
  162DOPC   C3B 1918  10.789   7.054  12.350  0.1308 -0.0937 -0.0988
  162DOPC   C4B 1919  10.645   6.946  12.807 -0.0489  0.0782  0.4224
  163DOPC   NC3 1920  14.568   5.571  10.861  0.0227 -0.0906 -0.0420
  163DOPC   PO4 1921  14.464   5.225  11.032  0.1553 -0.0038 -0.2229
  163DOPC   GL1 1922  14.429   4.991  11.365  0.0398  0.2558  0.1566
  163DOPC   GL2 1923  14.196   4.833  11.335  0.0046  0.0465  0.1094
  163DOPC   C1A 1924  14.477   4.781  11.754  0.0427  0.0994 -0.0834
  163DOPC   D2A 1925  14.309   4.706  12.205 -0.1419 -0.0171  0.3117
  163DOPC   C3A 1926  14.039   4.597  12.591  0.1060 -0.0651  0.2066
  163DOPC   C4A 1927  13.977   4.368  12.972  0.1889 -0.0937 -0.1535
  163DOPC   C1B 1928  13.979   4.679  11.682  0.0891  0.0524 -0.2296
  163DOPC   D2B 1929  13.791   4.453  12.091  0.1040  0.0838 -0.0785
  163DOPC   C3B 1930  13.543   4.613  12.521 -0.1266  0.0802  0.2613
  163DOPC   C4B 1931  13.261   4.746  12.856  0.2650 -0.0015  0.1703
  164DOPC   NC3 1932  10.887   2.194  11.061 -0.2074  0.3743 -0.0022
  164DOPC   PO4 1933  10.821   2.508  11.280  0.1684 -0.1051 -0.2846
  164DOPC   GL1 1934  10.983   2.401  11.705  0.2461 -0.0092 -0.0162
  164DOPC   GL2 1935  10.912   2.570  11.892 -0.3867  0.0458 -0.2225
  164DOPC   C1A 1936  10.886   2.000  11.900  0.0578 -0.1416 -0.0306
  164DOPC   D2A 1937  10.585   1.739  12.215  0.1439  0.0729  0.2124
  164DOPC   C3A 1938  10.612   1.890  12.604 -0.1255 -0.1146 -0.0968
  164DOPC   C4A 1939  10.711   1.790  13.101  0.0753 -0.1430 -0.1519
  164DOPC   C1B 1940  10.736   2.742  12.153 -0.1075 -0.0881  0.1648
  164DOPC   D2B 1941  10.653   2.830  12.647  0.0104 -0.0146 -0.1930
  164DOPC   C3B 1942  10.551   3.086  13.070 -0.1156 -0.1755  0.0544
  164DOPC   C4B 1943  10.508   2.841  13.505 -0.3021  0.1534 -0.2488
  165DOPC   NC3 1944   0.742   3.885  11.110 -0.1856 -0.1442  0.1433
  165DOPC   PO4 1945   1.070   3.935  11.359 -0.1118  0.0292  0.1347
  165DOPC   GL1 1946   1.000   4.145  11.720 -0.0455  0.0328 -0.1188
  165DOPC   GL2 1947   1.196   4.292  11.771  0.2729  0.1286 -0.1690
  165DOPC   C1A 1948   0.814   3.928  12.051  0.0809  0.2606  0.1108
  165DOPC   D2A 1949   0.893   3.705  12.448  0.1360 -0.0276  0.1095
  165DOPC   C3A 1950   0.632   3.772  12.834  0.0609 -0.1658 -0.1656
  165DOPC   C4A 1951   0.233   3.720  13.150  0.1053  0.1292 -0.2079
  165DOPC   C1B 1952   1.347   4.051  12.081 -0.0549  0.1930 -0.2259
  165DOPC   D2B 1953   1.528   3.863  12.485  0.0751 -0.1759 -0.0383
  165DOPC   C3B 1954   1.349   3.670  12.892 -0.0383  0.0107 -0.0517
  165DOPC   C4B 1955   1.168   3.245  13.037 -0.1551  0.0638 -0.4308
  166DOPC   NC3 1956   2.512   7.181  11.125 -0.3133  0.0896  0.0254
  166DOPC   PO4 1957   2.708   7.532  11.130  0.0222  0.0489 -0.2026
  166DOPC   GL1 1958   2.782   7.677  11.494 -0.0995 -0.2624 -0.0904
  166DOPC   GL2 1959   2.926   7.891  11.352 -0.0934  0.4371 -0.3939
  166DOPC   C1A 1960   2.900   7.700  11.943  0.0028 -0.0867  0.2057
  166DOPC   D2A 1961   2.773   7.704  12.397 -0.0444  0.0609  0.1208
  166DOPC   C3A 1962   3.001   7.400  12.609  0.1942 -0.2114  0.0592
  166DOPC   C4A 1963   3.231   7.048  12.908 -0.5376  0.1314  0.1972
  166DOPC   C1B 1964   3.091   8.061  11.718 -0.1515 -0.2648 -0.0388
  166DOPC   D2B 1965   3.091   8.069  12.232 -0.0563  0.1248  0.2573
  166DOPC   C3B 1966   3.098   7.902  12.698 -0.2051  0.2114  0.0463
  166DOPC   C4B 1967   3.178   7.533  13.047  0.0491  0.0210 -0.2756
  167DOPC   NC3 1968  11.060   0.457  11.127  0.1017 -0.1767  0.1592
  167DOPC   PO4 1969  11.381   0.327  11.192  0.0213  0.1071  0.4220
  167DOPC   GL1 1970  11.389   0.382  11.552  0.1496 -0.1642 -0.0496
  167DOPC   GL2 1971  11.559   0.206  11.575 -0.0515 -0.2659 -0.1506
  167DOPC   C1A 1972  11.212   0.540  11.937 -0.0430  0.0115  0.3423
  167DOPC   D2A 1973  11.152   0.328  12.395  0.0630  0.2957 -0.0117
  167DOPC   C3A 1974  11.060   0.134  12.828 -0.1027 -0.0708  0.2531
  167DOPC   C4A 1975  11.292   0.090  13.207  0.0009 -0.1088 -0.0895
  167DOPC   C1B 1976  11.894   0.231  11.891  0.1008 -0.2526 -0.2883
  167DOPC   D2B 1977  12.128   0.524  12.247 -0.1471  0.0290 -0.0602
  167DOPC   C3B 1978  12.526   0.465  12.495 -0.1398 -0.0907  0.3687
  167DOPC   C4B 1979  12.844   0.565  12.827 -0.1904 -0.1733  0.2778
  168DOPC   NC3 1980  23.358   7.230  11.630 -0.1242  0.1981  0.0813
  168DOPC   PO4 1981  22.962   7.267  11.563 -0.0687  0.0863 -0.0075
  168DOPC   GL1 1982  22.825   6.991  11.955  0.2068 -0.0370 -0.0829
  168DOPC   GL2 1983  23.087   6.919  11.939  0.0328 -0.3935  0.2972
  168DOPC   C1A 1984  22.848   7.127  12.355 -0.0799 -0.1266 -0.0860
  168DOPC   D2A 1985  22.925   7.266  12.879  0.1844 -0.0233  0.1195
  168DOPC   C3A 1986  22.709   7.563  13.116 -0.5395 -0.0447 -0.2418
  168DOPC   C4A 1987  22.301   7.737  13.389  0.2540 -0.0660 -0.0137
  168DOPC   C1B 1988  23.314   6.728  12.227  0.0051  0.2895 -0.0314
  168DOPC   D2B 1989  23.328   6.536  12.702 -0.0129 -0.2582  0.0274
  168DOPC   C3B 1990  23.326   6.936  12.894  0.1989 -0.2267 -0.0086
  168DOPC   C4B 1991  23.374   7.387  13.093  0.1435 -0.0831 -0.2816
  169DOPC   NC3 1992   5.517   2.648  11.021  0.1164 -0.2954  0.2025
  169DOPC   PO4 1993   5.623   2.987  11.193 -0.2059 -0.2909  0.1465
  169DOPC   GL1 1994   5.682   2.964  11.598  0.0505 -0.5428  0.2424
  169DOPC   GL2 1995   5.644   2.712  11.544  0.3583  0.1066  0.2046
  169DOPC   C1A 1996   5.458   3.119  11.963  0.0074 -0.0172 -0.1401
  169DOPC   D2A 1997   5.208   3.283  12.382 -0.0252 -0.0389  0.2179
  169DOPC   C3A 1998   4.878   3.408  12.661 -0.0981 -0.0044 -0.1075
  169DOPC   C4A 1999   4.553   3.856  12.873  0.1940  0.1628  0.1246
  169DOPC   C1B 2000   5.440   2.620  11.905 -0.2148  0.0526  0.1443
  169DOPC   D2B 2001   5.115   2.399  12.271  0.0364 -0.1842 -0.2119
  169DOPC   C3B 2002   5.027   2.451  12.709  0.5715 -0.2545 -0.0489
  169DOPC   C4B 2003   5.168   2.772  13.059 -0.0401  0.3735 -0.0520
  170DOPC   NC3 2004  11.470   3.954  11.106  0.1130 -0.0682 -0.2020
  170DOPC   PO4 2005  11.578   3.583  11.254  0.1091 -0.1673 -0.1736
  170DOPC   GL1 2006  11.716   3.722  11.685 -0.1527 -0.5299  0.0290
  170DOPC   GL2 2007  11.594   3.970  11.604 -0.1545  0.2389 -0.2783
  170DOPC   C1A 2008  11.794   3.799  12.153  0.4698 -0.0870  0.0311
  170DOPC   D2A 2009  11.816   3.837  12.688  0.2441 -0.1315 -0.1436
  170DOPC   C3A 2010  11.851   3.708  13.108  0.1349 -0.0287 -0.0809
  170DOPC   C4A 2011  11.799   3.453  13.532 -0.1754  0.0897 -0.1149
  170DOPC   C1B 2012  11.577   4.270  11.922  0.1459 -0.3387 -0.0115
  170DOPC   D2B 2013  11.900   4.267  12.376 -0.0091 -0.1379  0.0985
  170DOPC   C3B 2014  12.303   4.384  12.659 -0.1053  0.0658 -0.3905
  170DOPC   C4B 2015  12.598   4.470  13.052  0.0763  0.0640 -0.1803
  171DOPC   NC3 2016   1.207   7.362  10.989 -0.1252  0.1466 -0.3660
  171DOPC   PO4 2017   0.935   7.117  11.133  0.0956 -0.1622 -0.1060
  171DOPC   GL1 2018   0.955   7.253  11.576  0.1789  0.0261  0.4586
  171DOPC   GL2 2019   1.025   7.043  11.639  0.2412 -0.4490  0.0594
  171DOPC   C1A 2020   0.743   7.355  11.919  0.0375  0.2910 -0.0211
  171DOPC   D2A 2021   0.479   7.139  12.318  0.1539 -0.0518 -0.0525
  171DOPC   C3A 2022   0.223   6.832  12.670  0.0750  0.3246  0.2601
  171DOPC   C4A 2023  -0.063   6.711  13.110  0.3479  0.0404 -0.0877
  171DOPC   C1B 2024   1.132   7.085  12.056 -0.2435 -0.0896  0.1484
  171DOPC   D2B 2025   1.276   6.949  12.511 -0.2614 -0.0868  0.1812
  171DOPC   C3B 2026   1.331   6.557  12.792 -0.0176 -0.3582  0.0016
  171DOPC   C4B 2027   1.034   6.185  12.761 -0.1441 -0.0811  0.0842
  172DOPC   NC3 2028  30.565   5.795  10.809  0.0634 -0.1809  0.3434
  172DOPC   PO4 2029  30.876   5.672  11.053  0.0407  0.0853 -0.1776
  172DOPC   GL1 2030  30.738   5.672  11.480 -0.1814  0.2362  0.1206
  172DOPC   GL2 2031  30.990   5.792  11.579  0.2321  0.1668  0.5443
  172DOPC   C1A 2032  30.547   5.831  11.854 -0.2135 -0.1444  0.0400
  172DOPC   D2A 2033  30.383   5.930  12.352  0.0184  0.0492 -0.1913
  172DOPC   C3A 2034  30.219   6.279  12.561  0.1396 -0.2587  0.1360
  172DOPC   C4A 2035  29.927   6.748  12.555 -0.0302 -0.1893  0.0508
  172DOPC   C1B 2036  31.094   5.648  11.952  0.0580 -0.3885  0.1933
  172DOPC   D2B 2037  31.266   5.668  12.439 -0.1450 -0.2430  0.2820
  172DOPC   C3B 2038  31.216   5.828  12.874  0.1080 -0.1625 -0.1695
  172DOPC   C4B 2039  31.462   6.065  13.234  0.0990  0.0886  0.0537
  173DOPC   NC3 2040  12.031   0.197  11.421 -0.0917  0.1141  0.3618
  173DOPC   PO4 2041  12.237  -0.112  11.230  0.0102  0.0123  0.1927
  173DOPC   GL1 2042  12.515  -0.214  11.577 -0.0532  0.2328 -0.2541
  173DOPC   GL2 2043  12.286  -0.072  11.683  0.1694  0.1531  0.0066
  173DOPC   C1A 2044  12.927  -0.365  11.714  0.0231 -0.0888 -0.1594
  173DOPC   D2A 2045  13.021  -0.757  12.004 -0.0058 -0.1894  0.4089
  173DOPC   C3A 2046  13.189  -1.116  12.179 -0.0053 -0.0160  0.2117
  173DOPC   C4A 2047  13.390  -1.149  12.585  0.2156 -0.2809 -0.1130
  173DOPC   C1B 2048  12.250  -0.233  12.106 -0.0505  0.0232 -0.1424
  173DOPC   D2B 2049  12.250  -0.403  12.550  0.0243 -0.4949  0.2050
  173DOPC   C3B 2050  12.078  -0.134  12.905  0.2141 -0.1165  0.3426
  173DOPC   C4B 2051  11.796   0.047  13.255  0.0078 -0.0551  0.0448
  174DOPC   NC3 2052  11.147   5.484  10.917 -0.0416  0.0884  0.0864
  174DOPC   PO4 2053  11.535   5.391  10.871  0.1907 -0.1081  0.2624
  174DOPC   GL1 2054  11.855   5.500  11.187 -0.5034  0.0767  0.1314
  174DOPC   GL2 2055  11.904   5.250  11.190 -0.2803  0.1871  0.1772
  174DOPC   C1A 2056  11.669   5.503  11.544  0.4031 -0.0555 -0.0965
  174DOPC   D2A 2057  11.530   5.610  11.990  0.0762  0.0718  0.2480
  174DOPC   C3A 2058  11.705   5.706  12.413 -0.3302  0.3115 -0.0400
  174DOPC   C4A 2059  11.871   5.934  12.811 -0.3180 -0.0024 -0.0960
  174DOPC   C1B 2060  11.894   4.975  11.586  0.3321 -0.1405  0.2977
  174DOPC   D2B 2061  11.977   4.811  12.074 -0.0749  0.1794  0.0544
  174DOPC   C3B 2062  12.023   4.772  12.509  0.0397  0.4581 -0.0378
  174DOPC   C4B 2063  12.269   4.939  12.879 -0.1828  0.0650 -0.2773
  175DOPC   NC3 2064   7.714   3.871  11.510 -0.2726  0.0387  0.2272
  175DOPC   PO4 2065   8.052   3.724  11.662  0.3640 -0.3059  0.0569
  175DOPC   GL1 2066   8.163   3.730  12.006 -0.0748  0.0189 -0.0205
  175DOPC   GL2 2067   8.348   3.489  12.038 -0.2028  0.2520 -0.2369
  175DOPC   C1A 2068   7.948   3.788  12.388  0.0638 -0.2126 -0.1006
  175DOPC   D2A 2069   7.972   4.016  12.909  0.1797  0.1335  0.2514
  175DOPC   C3A 2070   7.772   4.298  13.214 -0.0007 -0.1410 -0.1602
  175DOPC   C4A 2071   7.385   4.563  13.308 -0.1968  0.2860 -0.0743
  175DOPC   C1B 2072   8.370   3.509  12.536  0.1497 -0.4476 -0.0147
  175DOPC   D2B 2073   8.419   3.741  12.967  0.1063 -0.0543 -0.0919
  175DOPC   C3B 2074   8.634   4.127  13.021  0.1099 -0.0073  0.0483
  175DOPC   C4B 2075   8.740   4.586  12.930 -0.1387 -0.2244  0.0679
  176DOPA   PO4 2076  25.530   7.205  11.334 -0.0833 -0.0761  0.1194
  176DOPA   GL1 2077  25.605   7.523  11.593  0.0214  0.0362  0.1595
  176DOPA   GL2 2078  25.366   7.357  11.742  0.1297  0.4486  0.0672
  176DOPA   C1A 2079  25.995   7.500  11.947  0.2080  0.1170 -0.1092
  176DOPA   D2A 2080  25.963   7.424  12.430  0.0805 -0.0400 -0.1336
  176DOPA   C3A 2081  25.987   7.015  12.729  0.1557 -0.2976 -0.1833
  176DOPA   C4A 2082  26.027   6.635  12.961  0.1114  0.0721  0.0499
  176DOPA   C1B 2083  25.426   7.309  12.146 -0.0898  0.2792 -0.0530
  176DOPA   D2B 2084  25.636   6.920  12.343 -0.0329  0.0263 -0.0223
  176DOPA   C3B 2085  25.548   6.775  12.824 -0.0208 -0.2664 -0.2201
  176DOPA   C4B 2086  25.378   6.749  13.263 -0.2387  0.3075 -0.0332
  177DOPA   PO4 2087   5.130   7.242  11.380 -0.0793  0.1185  0.1124
  177DOPA   GL1 2088   4.740   7.468  11.308  0.0074  0.1129  0.0872
  177DOPA   GL2 2089   4.572   7.300  11.408 -0.1649  0.1225  0.2364
  177DOPA   C1A 2090   4.731   7.698  11.625  0.1636 -0.1270 -0.1976
  177DOPA   D2A 2091   4.490   7.951  12.017  0.2052 -0.1344  0.3333
  177DOPA   C3A 2092   4.512   7.995  12.478  0.0986 -0.0635  0.1143
  177DOPA   C4A 2093   4.477   7.652  12.887  0.1069 -0.2202 -0.1092
  177DOPA   C1B 2094   4.660   7.159  11.831 -0.0286  0.3881 -0.1793
  177DOPA   D2B 2095   4.698   7.071  12.334  0.2049 -0.0067 -0.0642
  177DOPA   C3B 2096   5.039   6.876  12.524  0.1594  0.0230 -0.1690
  177DOPA   C4B 2097   5.438   6.698  12.742 -0.0997 -0.0653  0.1058
  178DOPA   PO4 2098  12.579   4.910  10.791 -0.3417  0.2578  0.1567
  178DOPA   GL1 2099  12.483   4.738  11.187  0.0512  0.0086  0.0605
  178DOPA   GL2 2100  12.410   4.993  11.268 -0.1804 -0.1456  0.1906
  178DOPA   C1A 2101  12.764   4.448  11.385 -0.1659 -0.0425 -0.0831
  178DOPA   D2A 2102  13.123   4.143  11.587 -0.2045  0.2337  0.1950
  178DOPA   C3A 2103  13.136   3.990  12.003  0.1043  0.0336  0.1395
  178DOPA   C4A 2104  13.007   3.678  12.399 -0.1293  0.1781 -0.0591
  178DOPA   C1B 2105  12.708   5.177  11.464  0.0950 -0.0393 -0.0095
  178DOPA   D2B 2106  13.165   5.247  11.654 -0.0081  0.0035 -0.1435
  178DOPA   C3B 2107  13.208   4.995  12.056 -0.0402 -0.1716  0.1943
  178DOPA   C4B 2108  13.148   4.508  12.103 -0.1633  0.1871 -0.0820
  179DOPA   PO4 2109   8.722   3.439  11.217  0.0297 -0.0904 -0.2156
  179DOPA   GL1 2110   8.547   3.541  11.681 -0.0426  0.0214  0.2708
  179DOPA   GL2 2111   8.771   3.340  11.776  0.0720  0.1394  0.2081
  179DOPA   C1A 2112   8.723   3.804  11.983  0.1289 -0.1586 -0.0528
  179DOPA   D2A 2113   8.914   4.259  12.088 -0.0550  0.2002 -0.3299
  179DOPA   C3A 2114   8.751   4.625  12.305  0.0789  0.0299 -0.0837
  179DOPA   C4A 2115   8.426   4.885  12.522 -0.1181 -0.1056  0.0322
  179DOPA   C1B 2116   8.839   3.319  12.211 -0.1873  0.0604  0.3096
  179DOPA   D2B 2117   8.779   3.245  12.666 -0.1185 -0.2754  0.0277
  179DOPA   C3B 2118   8.894   3.319  13.136 -0.4445  0.2777  0.2728
  179DOPA   C4B 2119   9.052   3.453  13.604 -0.0505 -0.2752  0.3058
  180DOPA   PO4 2120   6.911   2.301  11.190  0.2503 -0.1301 -0.1296
  180DOPA   GL1 2121   7.020   1.996  11.586 -0.3279  0.2826 -0.2725
  180DOPA   GL2 2122   6.772   2.185  11.694 -0.1522  0.3509  0.2760
  180DOPA   C1A 2123   7.310   2.003  11.924  0.0936 -0.1570  0.2007
  180DOPA   D2A 2124   7.364   2.054  12.443  0.0700 -0.1440  0.0262
  180DOPA   C3A 2125   7.360   1.891  12.883 -0.3249  0.1750 -0.1725
  180DOPA   C4A 2126   7.295   1.635  13.323  0.0152 -0.0336  0.4639
  180DOPA   C1B 2127   6.967   2.478  12.008  0.0984 -0.1887 -0.0263
  180DOPA   D2B 2128   7.115   2.785  12.358  0.1480 -0.3584  0.0643
  180DOPA   C3B 2129   7.031   2.694  12.811  0.1883 -0.2421  0.1711
  180DOPA   C4B 2130   6.921   2.497  13.216  0.0036 -0.0639 -0.0002
  181DOPA   PO4 2131  24.859   7.185  11.153 -0.2769  0.0292  0.1040
  181DOPA   GL1 2132  24.663   7.206  11.519  0.0154  0.2034  0.0813
  181DOPA   GL2 2133  24.920   7.207  11.679 -0.0400  0.0470  0.1179
  181DOPA   C1A 2134  24.366   7.155  11.819 -0.0109 -0.2329  0.0034
  181DOPA   D2A 2135  24.137   7.199  12.246  0.0581 -0.2228 -0.0037
  181DOPA   C3A 2136  23.685   7.072  12.412  0.2603 -0.3929  0.1488
  181DOPA   C4A 2137  23.293   7.228  12.516  0.1224 -0.1297 -0.1298
  181DOPA   C1B 2138  24.884   7.185  12.091 -0.0668  0.0810 -0.1795
  181DOPA   D2B 2139  24.699   7.109  12.564  0.0485  0.1295  0.1081
  181DOPA   C3B 2140  24.454   7.081  12.941  0.1974  0.0096  0.0922
  181DOPA   C4B 2141  24.107   7.043  13.293 -0.0177  0.0494 -0.0789
  182DOPA   PO4 2142  12.031   6.450  10.772  0.2158 -0.1191  0.0568
  182DOPA   GL1 2143  12.306   6.586  11.063  0.0702 -0.2039 -0.0245
  182DOPA   GL2 2144  12.155   6.357  11.217 -0.0046 -0.1128 -0.1671
  182DOPA   C1A 2145  12.253   6.845  11.429  0.3849 -0.0191 -0.0974
  182DOPA   D2A 2146  12.157   7.298  11.578 -0.0851  0.0484  0.0195
  182DOPA   C3A 2147  11.819   7.553  11.784 -0.0254  0.2561 -0.1730
  182DOPA   C4A 2148  11.421   7.771  11.968  0.1352  0.1469  0.0493
  182DOPA   C1B 2149  11.988   6.459  11.654 -0.2268 -0.2046  0.1854
  182DOPA   D2B 2150  12.052   6.557  12.154 -0.4211  0.1251 -0.0479
  182DOPA   C3B 2151  12.343   6.399  12.464  0.0240  0.0891 -0.0587
  182DOPA   C4B 2152  12.708   6.086  12.515 -0.1598 -0.2237 -0.3871
  183DOPA   PO4 2153  12.927   3.769  10.814 -0.1620 -0.2146 -0.1091
  183DOPA   GL1 2154  12.942   3.922  11.224 -0.1100 -0.2838 -0.1744
  183DOPA   GL2 2155  13.244   3.720  11.288  0.3451 -0.2489 -0.0839
  183DOPA   C1A 2156  12.707   3.894  11.581  0.1177 -0.0158 -0.0256
  183DOPA   D2A 2157  12.743   3.658  11.981 -0.2514  0.2355  0.0924
  183DOPA   C3A 2158  12.598   3.444  12.343 -0.1380  0.0591  0.0401
  183DOPA   C4A 2159  12.544   3.085  12.649  0.5419  0.0064 -0.0738
  183DOPA   C1B 2160  13.234   3.652  11.652  0.0298 -0.0539  0.1747
  183DOPA   D2B 2161  13.333   3.571  12.100  0.0273 -0.0503 -0.0421
  183DOPA   C3B 2162  13.463   3.561  12.570  0.0847  0.1279  0.1673
  183DOPA   C4B 2163  13.318   3.284  12.943  0.0445 -0.4109  0.1134
  184DOPA   PO4 2164  11.920   1.494  11.185  0.1745  0.1925 -0.3099
  184DOPA   GL1 2165  12.099   1.454  11.562 -0.1476  0.2071 -0.0645
  184DOPA   GL2 2166  12.007   1.173  11.558  0.0140 -0.2064  0.3045
  184DOPA   C1A 2167  12.169   1.489  12.020 -0.2398  0.1495 -0.1282
  184DOPA   D2A 2168  12.401   1.398  12.434  0.0376  0.2925 -0.0343
  184DOPA   C3A 2169  12.248   1.334  12.870 -0.0468 -0.2423 -0.0890
  184DOPA   C4A 2170  11.957   1.625  13.091  0.1077 -0.0146 -0.1879
  184DOPA   C1B 2171  12.045   0.964  11.905  0.0751 -0.1058 -0.1573
  184DOPA   D2B 2172  12.420   0.878  12.191  0.1779  0.0905  0.0764
  184DOPA   C3B 2173  12.586   0.993  12.618 -0.1992  0.1715 -0.1350
  184DOPA   C4B 2174  12.764   1.118  13.002  0.0299 -0.1682  0.2475
  185DOPA   PO4 2175   9.363   0.326  11.202 -0.2224 -0.1860 -0.0785
  185DOPA   GL1 2176   9.313   0.304  11.601  0.2057  0.0127 -0.1175
  185DOPA   GL2 2177   9.157   0.149  11.630 -0.0322 -0.2119  0.0245
  185DOPA   C1A 2178   9.495   0.481  11.937 -0.1455  0.0504 -0.0902
  185DOPA   D2A 2179   9.687   0.498  12.362 -0.0440 -0.0824 -0.1667
  185DOPA   C3A 2180   9.690   0.812  12.700 -0.0222 -0.2012  0.0704
  185DOPA   C4A 2181   9.500   1.108  13.060  0.1337  0.0367 -0.0453
  185DOPA   C1B 2182   9.048   0.021  12.050 -0.1960 -0.1950 -0.1210
  185DOPA   D2B 2183   9.057  -0.096  12.530 -0.1520  0.0383 -0.2794
  185DOPA   C3B 2184   8.900   0.176  12.878 -0.0545  0.0472  0.0885
  185DOPA   C4B 2185   8.946   0.344  13.249 -0.2367  0.1874 -0.0443
  186DOPA   PO4 2186  11.261   1.322  11.128  0.0584  0.1656  0.1820
  186DOPA   GL1 2187  11.492   1.360  11.435 -0.0022  0.2932  0.0038
  186DOPA   GL2 2188  11.620   1.564  11.552 -0.3191  0.2790 -0.0814
  186DOPA   C1A 2189  11.604   1.069  11.712 -0.2086  0.1003 -0.0428
  186DOPA   D2A 2190  11.648   0.732  12.053 -0.1990  0.0355 -0.0488
  186DOPA   C3A 2191  11.612   0.427  12.397 -0.0277 -0.0706 -0.0173
  186DOPA   C4A 2192  11.424   0.431  12.882 -0.1434  0.4406 -0.2517
  186DOPA   C1B 2193  11.704   1.478  11.962 -0.1627  0.2355  0.0310
  186DOPA   D2B 2194  11.859   1.152  12.305 -0.0381 -0.1002  0.1366
  186DOPA   C3B 2195  12.063   0.842  12.621  0.0159 -0.0960  0.0331
  186DOPA   C4B 2196  11.985   0.344  12.701 -0.1499 -0.1137 -0.1616
  187DOPA   PO4 2197  25.457   5.469  11.616  0.1733 -0.0492  0.1848
  187DOPA   GL1 2198  25.264   5.219  12.041 -0.0560 -0.2833 -0.1571
  187DOPA   GL2 2199  25.571   5.259  12.076 -0.0281 -0.3383 -0.0668
  187DOPA   C1A 2200  25.323   5.631  12.260  0.0096  0.2740  0.0290
  187DOPA   D2A 2201  25.606   5.802  12.623  0.2579 -0.1636  0.0146
  187DOPA   C3A 2202  25.586   5.875  13.022  0.3869 -0.0346 -0.3918
  187DOPA   C4A 2203  25.715   5.970  13.485  0.1561 -0.0888  0.1602
  187DOPA   C1B 2204  25.678   5.318  12.508 -0.1282 -0.0566 -0.1115
  187DOPA   D2B 2205  25.445   5.292  12.921  0.0330  0.0479  0.0443
  187DOPA   C3B 2206  25.104   5.418  13.257 -0.0052  0.1340  0.0735
  187DOPA   C4B 2207  24.800   5.469  13.584 -0.1622  0.1765  0.0177
  188DOPA   PO4 2208  28.866   6.368  11.110 -0.2450  0.0567  0.3617
  188DOPA   GL1 2209  28.794   6.496  11.512 -0.4509  0.1656 -0.1473
  188DOPA   GL2 2210  28.696   6.238  11.657  0.1565  0.2667 -0.3401
  188DOPA   C1A 2211  29.075   6.718  11.784 -0.1857  0.2230  0.1828
  188DOPA   D2A 2212  29.093   6.805  12.282 -0.2807  0.0153  0.3465
  188DOPA   C3A 2213  29.256   6.643  12.666  0.0956  0.1502 -0.1335
  188DOPA   C4A 2214  29.696   6.514  12.930  0.0202 -0.0336  0.1379
  188DOPA   C1B 2215  29.001   6.092  11.929  0.1233  0.0376  0.2335
  188DOPA   D2B 2216  29.296   5.716  12.103 -0.1443 -0.1541 -0.0433
  188DOPA   C3B 2217  29.251   5.786  12.541 -0.0675 -0.3092  0.1350
  188DOPA   C4B 2218  29.228   6.175  12.817 -0.3274  0.0852  0.0168
  189DOPA   PO4 2219  22.093   4.959  11.587 -0.2675  0.0767 -0.1071
  189DOPA   GL1 2220  22.235   4.984  11.998 -0.3149  0.0697  0.4068
  189DOPA   GL2 2221  22.096   4.704  12.000 -0.0646 -0.3702  0.2144
  189DOPA   C1A 2222  22.444   5.090  12.326  0.0504  0.2658 -0.0888
  189DOPA   D2A 2223  22.501   5.265  12.750  0.0753 -0.3370 -0.1355
  189DOPA   C3A 2224  22.351   4.908  12.990 -0.1253  0.2310 -0.3132
  189DOPA   C4A 2225  22.060   4.547  13.154  0.2296 -0.0295 -0.0796
  189DOPA   C1B 2226  21.753   4.705  12.321 -0.1724  0.1622 -0.0617
  189DOPA   D2B 2227  21.462   4.948  12.624  0.1457 -0.3741 -0.1976
  189DOPA   C3B 2228  21.382   5.134  13.063  0.1213  0.3731  0.0048
  189DOPA   C4B 2229  21.123   5.258  13.400  0.0995 -0.1371 -0.1457
  190DOPA   PO4 2230  16.938   2.942  10.912 -0.1308  0.0681 -0.0590
  190DOPA   GL1 2231  16.759   3.057  11.236 -0.0654  0.1365 -0.3893
  190DOPA   GL2 2232  16.761   2.701  11.194  0.2227 -0.1738  0.0583
  190DOPA   C1A 2233  16.796   3.153  11.666 -0.1485  0.1198 -0.4236
  190DOPA   D2A 2234  16.903   3.390  12.075 -0.3353 -0.1699 -0.0741
  190DOPA   C3A 2235  17.216   3.574  12.310  0.2000  0.0773 -0.1192
  190DOPA   C4A 2236  17.629   3.852  12.420  0.3072 -0.2560 -0.0807
  190DOPA   C1B 2237  16.518   2.668  11.601  0.1928  0.0306  0.1361
  190DOPA   D2B 2238  16.595   2.871  12.046  0.1991  0.1078 -0.0658
  190DOPA   C3B 2239  16.497   3.016  12.512  0.0688  0.0949  0.2189
  190DOPA   C4B 2240  16.435   2.966  12.997  0.0301  0.2631 -0.2269
  191DOPA   PO4 2241  17.997   6.669  11.159  0.4912 -0.2041  0.0394
  191DOPA   GL1 2242  18.077   6.737  11.569 -0.3191  0.1391 -0.1036
  191DOPA   GL2 2243  18.214   6.952  11.562 -0.1649 -0.3891  0.0790
  191DOPA   C1A 2244  18.004   6.605  12.031  0.0302 -0.2412  0.1062
  191DOPA   D2A 2245  17.787   6.678  12.467  0.0552  0.2173 -0.1378
  191DOPA   C3A 2246  17.545   6.346  12.637 -0.0232 -0.2641  0.1235
  191DOPA   C4A 2247  17.164   6.026  12.490  0.0230 -0.0885 -0.0990
  191DOPA   C1B 2248  18.135   7.172  11.921 -0.0022 -0.2895  0.1205
  191DOPA   D2B 2249  17.815   7.187  12.330 -0.2039  0.2204  0.3084
  191DOPA   C3B 2250  17.739   7.078  12.748  0.0287  0.1640  0.1942
  191DOPA   C4B 2251  17.706   6.876  13.146  0.1886 -0.3475 -0.0906
  192DOPA   PO4 2252   0.342   4.714  10.919  0.0359 -0.2535  0.0393
  192DOPA   GL1 2253   0.447   4.829  11.359 -0.2322 -0.1287  0.1434
  192DOPA   GL2 2254   0.701   4.982  11.357 -0.2585 -0.3175 -0.0015
  192DOPA   C1A 2255   0.331   4.815  11.736 -0.3311  0.0468 -0.1787
  192DOPA   D2A 2256   0.206   4.660  12.181  0.0698 -0.0319 -0.1630
  192DOPA   C3A 2257  -0.155   4.660  12.424 -0.0909  0.1470  0.0355
  192DOPA   C4A 2258  -0.367   4.588  12.780  0.0651 -0.2122 -0.0003
  192DOPA   C1B 2259   0.768   5.165  11.820 -0.2039  0.1534  0.1158
  192DOPA   D2B 2260   1.101   5.117  12.219  0.0847  0.0450  0.0454
  192DOPA   C3B 2261   1.150   5.201  12.655  0.1103  0.1621  0.3219
  192DOPA   C4B 2262   1.020   4.989  13.094  0.1752 -0.0156 -0.3294
  193DOPA   PO4 2263  12.141   2.920  11.115  0.1365  0.1338 -0.0862
  193DOPA   GL1 2264  12.036   2.918  11.539  0.1822  0.0173 -0.1192
  193DOPA   GL2 2265  12.333   3.012  11.533 -0.3047  0.0139 -0.1253
  193DOPA   C1A 2266  12.132   2.768  11.882 -0.4630  0.1821  0.1975
  193DOPA   D2A 2267  12.176   2.740  12.318 -0.1256  0.1027 -0.2518
  193DOPA   C3A 2268  12.073   2.997  12.698  0.1085  0.1902  0.1455
  193DOPA   C4A 2269  11.919   3.172  13.053  0.1379 -0.2678  0.1427
  193DOPA   C1B 2270  12.389   3.298  11.860  0.1397  0.0199 -0.3110
  193DOPA   D2B 2271  12.117   3.440  12.328 -0.1238 -0.0879 -0.0081
  193DOPA   C3B 2272  12.221   3.474  12.764 -0.0860 -0.0108  0.0483
  193DOPA   C4B 2273  12.439   3.554  13.172 -0.0642 -0.1852 -0.0644
  194DOPA   PO4 2274  31.040   4.298  11.280 -0.0433  0.1529 -0.2142
  194DOPA   GL1 2275  31.149   4.614  11.668 -0.0204 -0.4563 -0.0794
  194DOPA   GL2 2276  31.222   4.319  11.775  0.2431  0.0520  0.0448
  194DOPA   C1A 2277  31.133   4.987  11.948  0.0730 -0.1601  0.3705
  194DOPA   D2A 2278  31.057   5.256  12.330  0.1108  0.1053  0.2265
  194DOPA   C3A 2279  30.742   5.087  12.594 -0.0108  0.2186 -0.3156
  194DOPA   C4A 2280  30.457   5.152  12.957  0.1936  0.3864 -0.1176
  194DOPA   C1B 2281  31.160   4.206  12.284 -0.1322  0.0212  0.1427
  194DOPA   D2B 2282  30.997   4.105  12.768  0.1068 -0.1621 -0.1720
  194DOPA   C3B 2283  30.964   3.963  13.176  0.1322  0.0848 -0.4242
  194DOPA   C4B 2284  31.136   3.721  13.578  0.1089  0.0209 -0.0528
  195DOPA   PO4 2285  14.646   6.124  10.710 -0.0853 -0.3347 -0.1965
  195DOPA   GL1 2286  14.608   6.110  11.121  0.2625 -0.3832  0.1650
  195DOPA   GL2 2287  14.895   5.974  11.169  0.1508  0.1005  0.2020
  195DOPA   C1A 2288  14.470   5.932  11.429 -0.0082  0.0395 -0.0685
  195DOPA   D2A 2289  14.353   5.473  11.488  0.0135  0.2875 -0.0929
  195DOPA   C3A 2290  14.129   5.180  11.720  0.3619  0.0165 -0.2355
  195DOPA   C4A 2291  13.766   4.985  12.035 -0.0676 -0.3571  0.0215
  195DOPA   C1B 2292  14.834   6.210  11.585 -0.3329  0.0261 -0.1661
  195DOPA   D2B 2293  14.826   6.282  12.109  0.0297 -0.1147  0.0930
  195DOPA   C3B 2294  14.826   5.842  12.332  0.0897 -0.0319  0.0694
  195DOPA   C4B 2295  15.025   5.394  12.313  0.1011  0.3345  0.1128
  196DOPA   PO4 2296   0.372   3.601  11.217 -0.0092 -0.1487  0.0033
  196DOPA   GL1 2297   0.427   3.441  11.608  0.4329 -0.2862  0.1228
  196DOPA   GL2 2298   0.207   3.550  11.733  0.0418  0.2977  0.4633
  196DOPA   C1A 2299   0.527   3.536  12.083  0.1012  0.0034 -0.0998
  196DOPA   D2A 2300   0.434   3.941  12.375 -0.0540  0.0236  0.0373
  196DOPA   C3A 2301   0.269   4.288  12.663  0.0167  0.1790  0.4464
  196DOPA   C4A 2302   0.119   4.460  13.114 -0.1410  0.2615  0.1996
  196DOPA   C1B 2303   0.191   3.944  11.920  0.0674  0.0254 -0.2806
  196DOPA   D2B 2304   0.489   4.349  11.967  0.2347  0.0844 -0.0898
  196DOPA   C3B 2305   0.778   4.348  12.312 -0.2192  0.3517 -0.0001
  196DOPA   C4B 2306   1.007   4.200  12.736 -0.1373 -0.0334  0.0109
  197DOPA   PO4 2307  30.718   4.222  10.911 -0.0051 -0.0597 -0.1637
  197DOPA   GL1 2308  30.572   4.427  11.215  0.1320 -0.0575 -0.2463
  197DOPA   GL2 2309  30.690   4.682  11.191  0.3318 -0.1624 -0.1752
  197DOPA   C1A 2310  30.440   4.284  11.589 -0.2900 -0.0896 -0.1594
  197DOPA   D2A 2311  30.398   4.050  12.000 -0.1969 -0.0206 -0.1056
  197DOPA   C3A 2312  30.647   3.920  12.383 -0.4095  0.1462  0.1093
  197DOPA   C4A 2313  30.985   3.639  12.582  0.1642 -0.1912  0.0653
  197DOPA   C1B 2314  30.666   4.756  11.634 -0.1797  0.1989 -0.3378
  197DOPA   D2B 2315  30.651   4.895  12.123 -0.0596  0.0469 -0.0109
  197DOPA   C3B 2316  30.319   4.832  12.506 -0.4208  0.0855  0.0266
  197DOPA   C4B 2317  29.967   4.860  12.804 -0.1071 -0.0685  0.1065
  198DOPA   PO4 2318  28.216   4.045  11.165 -0.1328  0.0503 -0.0868
  198DOPA   GL1 2319  28.365   4.030  11.485 -0.0469  0.3365 -0.1064
  198DOPA   GL2 2320  28.587   3.865  11.496  0.0724  0.0800  0.0136
  198DOPA   C1A 2321  28.312   4.331  11.820  0.0441  0.0866  0.3242
  198DOPA   D2A 2322  28.089   4.504  12.242  0.1290  0.4887  0.3137
  198DOPA   C3A 2323  28.069   4.363  12.726 -0.1914  0.0798 -0.1970
  198DOPA   C4A 2324  27.868   4.282  13.099  0.2937 -0.3673 -0.1580
  198DOPA   C1B 2325  28.720   4.005  11.926  0.2804  0.0958  0.0429
  198DOPA   D2B 2326  28.556   4.158  12.364 -0.0779  0.3345  0.2167
  198DOPA   C3B 2327  28.482   4.043  12.864  0.0400  0.0449 -0.0377
  198DOPA   C4B 2328  28.484   4.119  13.358  0.0119 -0.2518  0.0197
  199DOPA   PO4 2329  15.913   3.594  10.519  0.1260  0.1783  0.0919
  199DOPA   GL1 2330  15.887   3.721  10.863 -0.1452 -0.2078 -0.0051
  199DOPA   GL2 2331  15.636   3.537  10.968 -0.1298 -0.0056  0.1131
  199DOPA   C1A 2332  16.147   3.845  11.217  0.1721 -0.1463 -0.1622
  199DOPA   D2A 2333  16.112   3.839  11.709  0.2273  0.2210  0.0637
  199DOPA   C3A 2334  16.121   3.897  12.179  0.1525 -0.2401  0.1808
  199DOPA   C4A 2335  16.075   3.873  12.639  0.0594 -0.1919 -0.2979
  199DOPA   C1B 2336  15.820   3.465  11.324  0.1985  0.1178 -0.0522
  199DOPA   D2B 2337  15.820   3.438  11.848 -0.1738  0.4954  0.1265
  199DOPA   C3B 2338  15.597   3.160  12.192  0.2027 -0.0588 -0.0809
  199DOPA   C4B 2339  15.586   2.653  12.266  0.0455 -0.4302  0.0760
  200DOPA   PO4 2340  21.896   2.355  11.261 -0.1210  0.2831 -0.2205
  200DOPA   GL1 2341  21.735   2.403  11.661  0.1596 -0.0602  0.0592
  200DOPA   GL2 2342  21.969   2.301  11.794  0.0688  0.1905 -0.2069
  200DOPA   C1A 2343  21.450   2.680  11.840  0.0312 -0.3361  0.1115
  200DOPA   D2A 2344  21.074   3.021  12.021  0.2429 -0.2128  0.1232
  200DOPA   C3A 2345  20.993   3.351  12.399 -0.1041 -0.4613  0.0106
  200DOPA   C4A 2346  21.096   3.463  12.850 -0.1205  0.0188 -0.0391
  200DOPA   C1B 2347  21.765   2.493  12.195 -0.1145 -0.1934 -0.0671
  200DOPA   D2B 2348  21.599   2.761  12.553 -0.0992 -0.1252  0.0281
  200DOPA   C3B 2349  21.776   2.652  12.912 -0.0268 -0.0170  0.2909
  200DOPA   C4B 2350  22.138   2.349  12.775 -0.1081  0.1803  0.0107
  201W        W 2351  15.167   4.134  10.075 -0.3154  0.0465 -0.1332
  202W        W 2352  11.836   2.930   0.832  0.0027  0.1048  0.1585
  203W        W 2353  15.202   4.466  16.444 -0.1762  0.2123  0.3156
  204W        W 2354  19.059   0.256  25.533  0.3811 -0.2326 -0.2802
  205W        W 2355   4.114   1.665  20.953  0.1643 -0.0891 -0.0613
  206W        W 2356  20.661   6.969  19.327  0.0062  0.3899  0.0389
  207W        W 2357  20.784   3.043  24.747  0.2775 -0.2986 -0.0776
  208W        W 2358  23.194   1.712   2.846 -0.1129  0.0827 -0.0678
  209W        W 2359  14.959   5.084   1.763 -0.1326 -0.3145 -0.2289
  210W        W 2360  28.918   3.151  18.082 -0.2082  0.0684 -0.0299
  211W        W 2361   6.479   6.302  10.784  0.0942 -0.1763  0.0434
  212W        W 2362  11.191   0.949   7.669 -0.0638  0.0979  0.0586
  213W        W 2363  26.686   4.519   1.220 -0.0737  0.1484  0.0348
  214W        W 2364  23.896   4.886  25.505  0.2054  0.1175 -0.2020
  215W        W 2365   9.287   4.431  23.409  0.2265  0.0274  0.3199
  216W        W 2366  10.632   3.177   9.517 -0.2580  0.2484 -0.1887
  217W        W 2367   4.654   1.258  18.766 -0.0774 -0.0619 -0.0045
  218W        W 2368  23.754   1.528   2.045  0.1591 -0.0717  0.3041
  219W        W 2369  13.934   3.762  26.110 -0.2032 -0.0104  0.1161
  220W        W 2370  12.671   0.633  10.105 -0.5013  0.1655 -0.0007
  221W        W 2371   5.473   5.209  23.475 -0.1201  0.0031 -0.1792
  222W        W 2372   0.105   3.279   7.032  0.0680 -0.2516 -0.0912
  223W        W 2373  15.977   0.332  22.076  0.2348  0.2319 -0.0983
  224W        W 2374   6.130   1.738   8.527 -0.2362  0.0393  0.0817
  225W        W 2375  25.722   1.654  23.012  0.1049  0.0506  0.0595
  226W        W 2376  25.835   2.930  20.776 -0.3197  0.2853  0.2441
  227W        W 2377  21.055   6.177  23.650 -0.4011 -0.0943  0.0067
  228W        W 2378   9.046   3.817  24.622  0.1401 -0.1303 -0.0313
  229W        W 2379   3.072   0.992   1.606 -0.0147 -0.1040  0.0879
  230W        W 2380   2.766   0.854   9.251 -0.2500 -0.1926 -0.1417
  231W        W 2381  21.768   1.451  17.547 -0.2636  0.3985 -0.4819
  232W        W 2382   9.936   6.018   7.413  0.2568  0.1075 -0.0777
  233W        W 2383  26.341   2.424   8.038  0.1193 -0.0144  0.2548
  234W        W 2384   2.300   6.432  17.826 -0.2121  0.0839 -0.0550
  235W        W 2385  22.904   3.124  19.787 -0.5486 -0.0097 -0.1337
  236W        W 2386   3.492   3.447   2.126 -0.1816 -0.2532 -0.1721
  237W        W 2387  14.471   5.440   0.256  0.1724 -0.1732  0.3229
  238W        W 2388   9.668   2.736   6.331  0.3989 -0.0879  0.0148
  239W        W 2389  24.965   5.453   9.668 -0.0911  0.2997  0.1884
  240W        W 2390  16.124   6.530   7.137  0.5086 -0.0832 -0.0166
  241W        W 2391  19.832   0.801  15.536  0.1973 -0.1107 -0.1886
  242W        W 2392   2.382   1.190  17.956 -0.0363 -0.2384  0.2028
  243W        W 2393   6.451   5.921  23.776  0.2081  0.0741  0.1570
  244W        W 2394   0.424   6.600  19.070 -0.1639 -0.2380 -0.1245
  245W        W 2395  24.346   3.767   4.086  0.2191  0.0191  0.0390
  246W        W 2396   7.163   4.794   6.595 -0.2335 -0.0259 -0.0136
  247W        W 2397  11.380   3.801   5.000  0.0691 -0.1678 -0.0679
  248W        W 2398  25.919   1.884   1.132 -0.0404 -0.0315 -0.1288
  249W        W 2399  17.328   4.499  16.912  0.0734  0.0373 -0.1845
  250W        W 2400   1.480   0.266  19.305 -0.1455 -0.1693 -0.1373
  251W        W 2401  14.040   3.202  19.115 -0.0555  0.2096  0.1530
  252W        W 2402  20.948   1.770   0.803  0.2189 -0.2075 -0.0056
  253W        W 2403  26.249   1.477  25.679  0.0358  0.4222 -0.0755
  254W        W 2404  22.031   3.165  19.839 -0.0642  0.3662 -0.0483
  255W        W 2405   1.117   5.736  16.521 -0.0287 -0.0383  0.2493
  256W        W 2406  19.155   7.434  24.590  0.0347 -0.1468 -0.3214
  257W        W 2407  12.142   0.386  15.736  0.2172 -0.1044 -0.0339
  258W        W 2408  24.110   4.814  11.235 -0.1927  0.3242 -0.0589
  259W        W 2409   4.953   6.312  19.482 -0.1390 -0.0319  0.0972
  260W        W 2410  27.563   5.151   0.452  0.1537  0.1839 -0.2674
  261W        W 2411  19.130   6.571   4.408 -0.0409  0.1948 -0.1971
  262W        W 2412  28.871   5.976  22.870 -0.0080 -0.1211  0.1971
  263W        W 2413   8.544   7.607   5.551  0.3281 -0.2023  0.2063
  264W        W 2414   9.923   7.161  21.625  0.0798 -0.2335 -0.0082
  265W        W 2415  21.553   6.967   4.579  0.1369 -0.1109 -0.0290
  266W        W 2416  18.150   3.239  11.393  0.1291 -0.4027 -0.0521
  267W        W 2417  25.239   3.963   2.059  0.2975 -0.0388  0.0091
  268W        W 2418  21.021   1.283   9.613 -0.2610 -0.0582 -0.0330
  269W        W 2419   0.939   2.233  23.472 -0.2100 -0.2555  0.3369
  270W        W 2420   6.087   3.602  18.734  0.0340 -0.1129 -0.2226
  271W        W 2421   1.016   2.265  10.063 -0.1155 -0.1321 -0.2089
  272W        W 2422  13.959   3.235  23.659  0.1497 -0.2370 -0.1374
  273W        W 2423  14.881   1.536  19.951 -0.0515 -0.0971 -0.3124
  274W        W 2424   5.478   5.932   8.614 -0.1772 -0.1366 -0.0212
  275W        W 2425  24.844   0.228  11.187 -0.2800  0.1541 -0.1227
  276W        W 2426  28.150   6.312   0.949 -0.3079  0.1162  0.1588
  277W        W 2427   0.540   0.285   6.958 -0.1067 -0.3895  0.2180
  278W        W 2428   3.047   3.970   0.603  0.1857 -0.3513  0.0458
  279W        W 2429   0.552   2.769  19.728  0.1746  0.0501 -0.0982
  280W        W 2430   5.839   5.576  11.256 -0.1871  0.0295 -0.1999
  281W        W 2431  18.465   7.695  10.443  0.1261  0.0132  0.1859
  282W        W 2432  25.871   0.168  22.673 -0.1567 -0.3030 -0.1942
  283W        W 2433  26.802   2.740  19.486  0.0722 -0.4190  0.1782
  284W        W 2434   2.123   4.469  20.129  0.1383 -0.2666  0.0645
  285W        W 2435  25.456   2.012  19.680  0.0394  0.0771  0.1149
  286W        W 2436  17.660   5.537  10.381 -0.0576  0.0565  0.4969
  287W        W 2437   8.837   2.237   7.752 -0.2852  0.1572 -0.0490
  288W        W 2438   5.341   6.653   9.181 -0.3989  0.0633 -0.1475
  289W        W 2439  16.371   3.481  23.144 -0.0457  0.2515  0.2629
  290W        W 2440  27.789   3.553  19.888 -0.4099  0.1583 -0.0992
  291W        W 2441  29.968   0.861  23.520  0.0506  0.1854 -0.0819
  292W        W 2442  14.926   1.779  24.357  0.0363  0.0842  0.1151
  293W        W 2443  29.129   0.634   5.947 -0.1114  0.2134  0.1725
  294W        W 2444   3.070   7.096  25.676 -0.0523 -0.2477  0.4055
  295W        W 2445  30.653   1.542   3.403  0.0751 -0.0772 -0.0128
  296W        W 2446  14.296   2.169   7.280  0.0293 -0.0226  0.0621
  297W        W 2447  12.383   4.229  24.872  0.0411  0.0865  0.2192
  298W        W 2448   2.155   2.214  20.912  0.0172 -0.1491 -0.0809
  299W        W 2449  16.410   7.601   0.430 -0.0436  0.1783 -0.1406
  300W        W 2450  26.579   3.549   6.682 -0.3900  0.0543  0.1080
  301W        W 2451   4.133   3.611  19.336  0.3168 -0.1599 -0.0743
  302W        W 2452  31.058   3.352   0.102  0.0685 -0.0138 -0.2075
  303W        W 2453   6.570   0.288  15.987 -0.0515 -0.0634 -0.1892
  304W        W 2454   6.475   7.423   9.730  0.0794 -0.3375  0.2047
  305W        W 2455  14.907   2.020   8.151  0.0616  0.0772 -0.4504
  306W        W 2456  23.576   2.647  11.714  0.1771 -0.3425 -0.2049
  307W        W 2457  15.776   1.339  11.204 -0.0189 -0.0718 -0.0659
  308W        W 2458  28.588   4.653   5.899  0.2745  0.1075  0.0216
  309W        W 2459  20.195   5.507   7.455 -0.1661  0.2553 -0.0522
  310W        W 2460  30.543   1.898  19.883 -0.0970 -0.0725 -0.2106
  311W        W 2461   3.312   2.371   4.717  0.0573 -0.1522 -0.0360
  312W        W 2462  28.247   0.431   1.755 -0.0524 -0.0656 -0.1321
  313W        W 2463  20.700   1.792  23.406 -0.0114 -0.2267  0.1861
  314W        W 2464   7.749   5.598   5.639 -0.0960 -0.0486  0.0221
  315W        W 2465  23.359   1.923   6.351 -0.1659 -0.0360  0.0390
  316W        W 2466   9.816   7.205   4.378 -0.0330  0.0334 -0.0430
  317W        W 2467  27.507   5.227  14.988 -0.0749  0.0171  0.4109
  318W        W 2468   6.228   0.072  24.601  0.0922 -0.0999 -0.0575
  319W        W 2469   9.697   4.795  10.970 -0.2714 -0.0509  0.0113
  320W        W 2470   3.824   7.041  23.798 -0.0371  0.0543  0.1342
  321W        W 2471  10.711   7.144   2.640  0.2651 -0.0530 -0.0845
  322W        W 2472  21.733   5.556  24.466 -0.0424 -0.0114 -0.0933
  323W        W 2473  23.354   4.329  24.748 -0.1729 -0.1163 -0.1447
  324W        W 2474  13.137   3.958   2.456  0.0772  0.0933 -0.2374
  325W        W 2475   2.010   3.772  21.180  0.1564 -0.1368  0.1867
  326W        W 2476   5.197   6.898  16.059  0.0010 -0.1116  0.0948
  327W        W 2477  16.896   0.050  23.991 -0.2745 -0.1183  0.0093
  328W        W 2478  30.881   2.770  25.820 -0.1335  0.0429 -0.0404
  329W        W 2479  29.926   3.461  22.540 -0.1792  0.1137 -0.1439
  330W        W 2480  24.052   1.550   7.632  0.3750 -0.1259 -0.1134
  331W        W 2481  25.435   0.498   7.111 -0.1856 -0.0090  0.1405
  332W        W 2482   2.370   2.347   2.153  0.4582 -0.1087 -0.1874
  333W        W 2483  14.996   3.489   8.322  0.3689 -0.1979  0.0511
  334W        W 2484   8.764   4.776  21.842  0.0847  0.1388 -0.0988
  335W        W 2485  14.488   7.550  24.332 -0.0603  0.0676 -0.1348
  336W        W 2486  28.132   0.673  19.164 -0.0836  0.0346 -0.2346
  337W        W 2487   9.458   0.010   1.922  0.1298 -0.2051 -0.0911
  338W        W 2488  16.285   0.198   0.011 -0.1110  0.0206  0.2526
  339W        W 2489  25.595   5.598  19.656  0.0108  0.2319 -0.0914
  340W        W 2490  21.942   4.609  17.972 -0.0178  0.1188  0.1082
  341W        W 2491  14.919   6.134   9.968  0.0527  0.3325 -0.0922
  342W        W 2492  20.886   1.181   1.230 -0.1747  0.1945  0.3078
  343W        W 2493  17.134   2.202   6.340 -0.0752  0.2291  0.1684
  344W        W 2494  15.016   6.137  24.687  0.1324 -0.2819  0.0536
  345W        W 2495   6.253   7.711   0.178 -0.2739  0.3157  0.2675
  346W        W 2496  20.669   0.301   0.787 -0.0217 -0.1037  0.2073
  347W        W 2497   3.374   1.296   1.179 -0.0303  0.0844 -0.0193
  348W        W 2498  11.203   7.416   8.698  0.3163 -0.1091  0.2422
  349W        W 2499  26.720   2.773  26.141  0.3453  0.0253  0.0508
  350W        W 2500   3.390   0.201  16.261  0.0353  0.0719 -0.0813
  351W        W 2501  18.742   6.891  21.640 -0.1776 -0.0829  0.1504
  352W        W 2502  17.850   6.052   1.951  0.1046 -0.1000  0.1223
  353W        W 2503   8.881   5.907  19.443 -0.0212  0.2759  0.3123
  354W        W 2504   8.146   4.716  17.616  0.0672 -0.2406 -0.0407
  355W        W 2505  28.094   6.406  17.661 -0.0013  0.2467  0.1189
  356W        W 2506  19.415   1.574  21.386  0.0226 -0.0953  0.1181
  357W        W 2507  29.546   3.248  22.204  0.3197 -0.0736 -0.1356
  358W        W 2508   3.732   4.405  19.737  0.0122 -0.0070  0.1129
  359W        W 2509  16.045   3.251  21.513  0.2609  0.2579 -0.2596
  360W        W 2510   3.796   2.667  25.607 -0.0299 -0.0341  0.3443
  361W        W 2511  20.514   1.339   6.765 -0.0279 -0.3801 -0.2603
  362W        W 2512  18.767   0.331  10.503  0.1662  0.0628  0.0677
  363W        W 2513  17.128   7.164   6.139  0.1713  0.1335  0.0629
  364W        W 2514  17.063   7.681   8.436 -0.0621 -0.0052 -0.7139
  365W        W 2515  28.081   5.844   2.600  0.3655 -0.1853 -0.0841
  366W        W 2516   5.979   7.530  22.528  0.0451 -0.0750 -0.2036
  367W        W 2517  20.873   2.851  26.216 -0.1309  0.0270 -0.0665
  368W        W 2518  22.695   0.472   9.025 -0.1760  0.2537 -0.2135
  369W        W 2519   0.706   2.602   7.220 -0.5556  0.3216 -0.0229
  370W        W 2520   9.026   0.779  18.774  0.0491 -0.1813 -0.2890
  371W        W 2521   2.414   3.246   5.989 -0.0668 -0.0848 -0.1315
  372W        W 2522  13.927   4.644   2.294 -0.1214  0.1238  0.0806
  373W        W 2523  27.200   1.131   6.001  0.1318  0.3262  0.1111
  374W        W 2524  21.231   3.634  22.812  0.1496  0.1515 -0.0928
  375W        W 2525  18.547   0.120  15.658 -0.0354 -0.0155  0.0414
  376W        W 2526  25.910   3.889   0.400 -0.1426 -0.1962  0.0324
  377W        W 2527  11.825   7.539   6.761 -0.2127 -0.0481 -0.0865
  378W        W 2528  11.433   2.981  24.377 -0.0450  0.0491 -0.0699
  379W        W 2529  19.177   2.309   7.694 -0.0674 -0.0128  0.0501
  380W        W 2530   0.349   5.778   4.548 -0.0970 -0.2695 -0.1141
  381W        W 2531  13.875   0.457   1.631  0.0771 -0.1068 -0.2219
  382W        W 2532   9.210   7.610  19.171  0.2005 -0.4094  0.0115
  383W        W 2533  23.174   2.835   0.272  0.2672  0.0553  0.2428
  384W        W 2534   3.596   6.909  11.195  0.1377 -0.0225  0.0188
  385W        W 2535   8.255   2.775  26.324 -0.0823 -0.1067 -0.0984
  386W        W 2536  25.466   0.219  25.467 -0.0274  0.1523  0.1441
  387W        W 2537   8.260   5.668   4.105  0.1526 -0.1788  0.1628
  388W        W 2538  24.831   5.589  26.060  0.1386  0.1036 -0.4831
  389W        W 2539  17.077   7.640   9.044 -0.0901  0.0440  0.2817
  390W        W 2540  29.132   4.952  21.770 -0.1627  0.0824  0.2188
  391W        W 2541  10.464   6.612  25.711  0.2790  0.0828 -0.2148
  392W        W 2542   2.561   3.441  23.314 -0.1564  0.1278 -0.6507
  393W        W 2543  25.690   2.892   4.207  0.1563 -0.1471 -0.1093
  394W        W 2544   0.336   1.491  18.582  0.1853 -0.0365  0.0165
  395W        W 2545  31.175   2.131   1.232  0.1026 -0.2072 -0.2960
  396W        W 2546  22.289   4.654  11.199  0.0610  0.0807 -0.0927
  397W        W 2547  18.959   6.923  23.002 -0.0880 -0.1976 -0.1951
  398W        W 2548   7.287   2.888  20.765  0.0894 -0.0709 -0.0508
  399W        W 2549  26.121   2.535  23.536  0.0084 -0.1136  0.1778
  400W        W 2550  18.073   2.874  21.436  0.1756 -0.4395 -0.0473
  401W        W 2551  30.155   2.936   7.494 -0.1101  0.1977  0.0247
  402W        W 2552  27.763   5.731   4.529  0.1657 -0.0217  0.1532
  403W        W 2553  11.287   3.312  15.098 -0.1709 -0.0206 -0.1541
  404W        W 2554   9.166   4.199   9.736  0.1042 -0.3022 -0.0875
  405W        W 2555  18.546   3.184  16.253 -0.2583 -0.1039 -0.3298
  406W        W 2556  13.063   5.837  22.383  0.0993 -0.2307  0.2870
  407W        W 2557  21.731   2.046  20.411 -0.0363  0.1491 -0.2726
  408W        W 2558  25.832   3.939  16.405 -0.3630 -0.3021 -0.1357
  409W        W 2559  13.575   7.139  19.689 -0.1236 -0.0299 -0.0425
  410W        W 2560  10.813   2.394  25.604  0.1154  0.2423  0.0679
  411W        W 2561  19.672   7.228  26.285  0.0766  0.4084 -0.2491
  412W        W 2562  27.567   1.329  19.618 -0.0903  0.3542 -0.3790
  413W        W 2563   4.676   4.353  19.230  0.2309  0.0938 -0.1240
  414W        W 2564  27.180   1.514  15.879 -0.4145  0.0576  0.1704
  415W        W 2565  22.345   2.260  24.102 -0.0914  0.0743  0.1228
  416W        W 2566  26.076   0.611  21.920 -0.4385 -0.0240  0.2054
  417W        W 2567  30.455   2.465   1.116  0.2184 -0.0777  0.1617
  418W        W 2568  13.385   6.882  23.416  0.4706 -0.0936 -0.0211
  419W        W 2569  18.991   4.595  22.128 -0.0282  0.4045 -0.1687
  420W        W 2570  22.917   7.080   9.654 -0.0672  0.1235 -0.0292
  421W        W 2571   5.731   2.440  26.322 -0.2380 -0.0855 -0.1150
  422W        W 2572  20.791   2.506  17.268  0.1131 -0.2848 -0.0311
  423W        W 2573   3.504   7.006   5.311 -0.2229 -0.4055 -0.1323
  424W        W 2574  17.436   3.070  15.954  0.0636 -0.2152 -0.2991
  425W        W 2575   9.059   2.582   6.581 -0.0958 -0.0921  0.0280
  426W        W 2576   4.319   5.636  18.999 -0.0017  0.0583  0.0455
  427W        W 2577  27.024   0.295  23.321 -0.3083  0.0279 -0.1341
  428W        W 2578   1.315   1.862   0.133 -0.1123  0.0143 -0.0598
  429W        W 2579  13.006   4.383   6.359  0.0330 -0.2682  0.0665
  430W        W 2580   4.620   3.332   0.159 -0.0476  0.4491  0.1015
  431W        W 2581   7.742   4.870  10.474 -0.2141 -0.2232  0.2013
  432W        W 2582  18.192   6.110  21.515 -0.2155 -0.0078 -0.0264
  433W        W 2583  21.517   3.344   3.231  0.2190  0.0150  0.2110
  434W        W 2584  17.228   0.523   9.523 -0.1498  0.1320 -0.1791
  435W        W 2585  22.205   4.093   8.838 -0.2702 -0.0139  0.1457
  436W        W 2586  24.360   4.754  11.652 -0.2438 -0.0944  0.0304
  437W        W 2587   0.050   0.448  24.054 -0.0382  0.2446  0.0170
  438W        W 2588  27.085   6.203  17.391 -0.0431  0.0885  0.1214
  439W        W 2589  21.605   5.534   5.875  0.2092 -0.0558  0.1799
  440W        W 2590  12.764   4.759  25.270  0.0493 -0.0343  0.0295
  441W        W 2591  29.273   6.944  22.600 -0.0420  0.2849 -0.0218
  442W        W 2592   9.127   3.063   3.518  0.0512  0.0907  0.0110
  443W        W 2593  16.097   0.185  18.972  0.0952  0.1907 -0.0056
  444W        W 2594  20.237   2.128  18.443 -0.2338  0.1862  0.0770
  445W        W 2595  11.957   0.189   5.645 -0.1283 -0.1066  0.2108
  446W        W 2596  24.213   3.786   0.203 -0.4881 -0.2005  0.0183
  447W        W 2597  20.246   7.510  17.143  0.6167 -0.0164  0.0788
  448W        W 2598  29.262   5.391   5.916 -0.2567  0.4871  0.0233
  449W        W 2599   8.161   3.450   2.155  0.1451  0.0772 -0.2211
  450W        W 2600  15.224   6.702   0.305  0.0939  0.0300  0.0357
  451W        W 2601  24.452   1.677   3.637  0.3678 -0.0335  0.0619
  452W        W 2602  16.640   4.021  18.932  0.0258  0.3310  0.2601
  453W        W 2603   8.564   4.235  18.450  0.3452 -0.0266  0.1115
  454W        W 2604  21.979   7.033   5.151  0.0970 -0.0510 -0.0403
  455W        W 2605  19.009   4.137   1.668 -0.0193 -0.0062  0.1056
  456W        W 2606  24.564   6.702  21.228 -0.3024  0.2853 -0.1736
  457W        W 2607  16.666   1.606   7.758 -0.1846  0.1784  0.0033
  458W        W 2608  30.125   1.708  23.073  0.0614 -0.0622 -0.0829
  459W        W 2609  17.707   5.136   3.482 -0.1137 -0.2844 -0.1366
  460W        W 2610  30.021   3.733  10.776  0.1377 -0.0595  0.0416
  461W        W 2611  22.745   0.632   9.503 -0.0215 -0.0233 -0.1254
  462W        W 2612  27.993   1.903   7.597  0.0199 -0.0139 -0.4354
  463W        W 2613   0.556   2.719   8.966 -0.3944 -0.0317  0.0629
  464W        W 2614  10.810   7.787  24.708  0.4185 -0.1485 -0.1928
  465W        W 2615  11.276   2.066   7.401  0.1334 -0.2677 -0.1774
  466W        W 2616  29.530   5.820   7.286 -0.0650 -0.0463 -0.2645
  467W        W 2617  30.923   2.948  20.937  0.2272 -0.2313  0.2304
  468W        W 2618  12.660   2.439  24.129  0.2710  0.3320  0.2934
  469W        W 2619   3.720   7.374   7.216 -0.1421  0.0738 -0.0440
  470W        W 2620   5.757   4.575  21.164 -0.1392  0.0856  0.1554
  471W        W 2621  16.395   0.568   2.117  0.0997 -0.0296 -0.2003
  472W        W 2622  20.294   1.594  18.183  0.0319 -0.1427 -0.1863
  473W        W 2623  16.041   1.170   0.246  0.0398  0.1588  0.2845
  474W        W 2624   1.628   4.484  22.429 -0.3882 -0.4793 -0.2365
  475W        W 2625  24.394   2.295  25.966  0.0120  0.2161  0.2768
  476W        W 2626  23.682   4.046   8.505 -0.2773  0.0009  0.1328
  477W        W 2627  20.733   0.268   3.243  0.1091  0.2757  0.0373
  478W        W 2628  11.019   6.946   9.012  0.0099 -0.3213 -0.0088
  479W        W 2629   5.628   7.045  16.882  0.0284  0.1285 -0.1604
  480W        W 2630  30.625   0.554  16.306 -0.1234  0.0744 -0.0756
  481W        W 2631  30.568   6.483  22.699 -0.0552 -0.1873 -0.0334
  482W        W 2632  15.498   4.740  23.200  0.2113 -0.0760  0.0588
  483W        W 2633   6.174   1.273  18.492  0.0098 -0.0105  0.0965
  484W        W 2634  29.054   6.047   8.079 -0.0781  0.0453 -0.1378
  485W        W 2635  10.005   7.774   4.427 -0.1079 -0.1746 -0.0467
  486W        W 2636  11.274   6.813  15.796 -0.4558 -0.0094  0.1595
  487W        W 2637  17.325   4.739  24.176  0.1334 -0.0523  0.1779
  488W        W 2638  13.404   7.732   0.926 -0.4879  0.3553 -0.0177
  489W        W 2639  19.387   5.476  18.978 -0.2856  0.2227  0.0480
  490W        W 2640   1.536   3.670   7.487 -0.1459 -0.0244 -0.1635
  491W        W 2641  10.202   2.263  16.248  0.1092 -0.1634 -0.0295
  492W        W 2642  13.743   4.631  17.493 -0.0053 -0.0580 -0.0945
  493W        W 2643  15.638   7.384  26.403  0.0874 -0.1107 -0.1870
  494W        W 2644  17.474   5.605  18.533 -0.0771  0.0786  0.2113
  495W        W 2645  26.676   3.264  19.156 -0.0470 -0.0143  0.1426
  496W        W 2646  10.027   2.092  10.651  0.0153 -0.0381 -0.2804
  497W        W 2647  19.026   1.138   8.872  0.0972  0.1885 -0.0592
  498W        W 2648  22.913   1.773   6.116 -0.1193  0.0689 -0.0890
  499W        W 2649   3.518   3.707   2.621 -0.1263 -0.0609  0.2247
  500W        W 2650  15.143   7.461   7.970 -0.1305  0.1582  0.1640
  501W        W 2651  23.941   3.691  23.944 -0.1644  0.0373 -0.0446
  502W        W 2652   8.126   5.705  11.435  0.0984  0.3492  0.2498
  503W        W 2653  26.505   1.674  10.109  0.0220  0.1532  0.1427
  504W        W 2654  10.240   6.628   5.160  0.0711 -0.2557  0.0631
  505W        W 2655   9.425   4.540  24.136 -0.4232 -0.0049  0.0867
  506W        W 2656  12.255   1.828   1.697  0.3328  0.0027  0.1771
  507W        W 2657  21.119   1.814  19.164 -0.1384 -0.0361  0.0283
  508W        W 2658   1.402   3.811  10.167 -0.2169  0.1289  0.0225
  509W        W 2659  28.334   5.632  20.457  0.0489 -0.2192  0.3695
  510W        W 2660  20.084   2.470   6.785 -0.0182  0.1702 -0.0337
  511W        W 2661  21.468   1.969   9.029  0.1198 -0.0732  0.2812
  512W        W 2662  24.571   6.308   7.975  0.2994 -0.0165  0.0930
  513W        W 2663   4.693   4.119  25.507 -0.3500 -0.1624 -0.2566
  514W        W 2664  10.679   0.847  26.052  0.1374 -0.1372  0.1425
  515W        W 2665   6.043   4.215  15.679  0.3438 -0.0872 -0.1339
  516W        W 2666  11.941   5.086   0.376 -0.1933  0.0494  0.0140
  517W        W 2667  27.709   2.766  15.898 -0.1346 -0.2948  0.0334
  518W        W 2668  26.128   2.428   1.175 -0.1755 -0.0477 -0.1179
  519W        W 2669  23.620   1.763  16.190  0.1315 -0.0037  0.1774
  520W        W 2670   3.432   5.500  11.399  0.1058  0.0690 -0.2189
  521W        W 2671  12.229   3.834  17.524 -0.0108  0.3796  0.2376
  522W        W 2672  25.888   5.667   0.057 -0.2585  0.1505 -0.2713
  523W        W 2673  19.376   5.635  20.192  0.2496  0.0512  0.1667
  524W        W 2674   4.906   0.389  18.231  0.2728  0.1150  0.0566
  525W        W 2675  23.869   0.119   3.075  0.2333  0.4555  0.1414
  526W        W 2676  16.176   6.202  22.505  0.2347 -0.0247 -0.0651
  527W        W 2677   2.826   2.684  25.116  0.0203 -0.0935  0.0184
  528W        W 2678  23.954   6.473   2.648 -0.0470  0.0450 -0.0957
  529W        W 2679  17.648   4.719   1.685  0.0336 -0.1077  0.0908
  530W        W 2680  20.750   2.307   3.901 -0.0226 -0.1759 -0.0674
  531W        W 2681  10.045   3.873  22.013  0.1519 -0.3544  0.1224
  532W        W 2682   0.299   5.726  21.318  0.0956 -0.1989  0.0179
  533W        W 2683  13.039   2.948   4.363 -0.0650  0.1488  0.1177
  534W        W 2684  24.992   7.048  24.936  0.3495 -0.1977 -0.0838
  535W        W 2685  19.340   5.888  26.010  0.1036  0.0399  0.2126
  536W        W 2686  18.005   6.578   1.269  0.3730 -0.1222 -0.3479
  537W        W 2687   1.534   3.432   7.017  0.2977 -0.0791  0.1837
  538W        W 2688   7.505   7.329  16.189 -0.0123  0.1075  0.0030
  539W        W 2689  29.965   6.811  26.083  0.2573 -0.2566 -0.3823
  540W        W 2690   0.713   3.332   5.286 -0.0362  0.2145 -0.2598
  541W        W 2691  26.557   2.772   9.242 -0.1997 -0.0320  0.0176
  542W        W 2692  24.950   4.108  21.142 -0.0582 -0.2186 -0.2004
  543W        W 2693   5.269   3.214   4.464 -0.2315  0.0762  0.0263
  544W        W 2694  20.962   3.339   6.511  0.2224  0.4482 -0.1151
  545W        W 2695   7.947   3.409  10.822  0.1257 -0.1859  0.3515
  546W        W 2696   4.055   0.975   7.284  0.3281  0.3447 -0.0215
  547W        W 2697  15.433   3.662  24.602  0.0723 -0.0905 -0.2158
  548W        W 2698  24.949   6.780  10.861 -0.0319 -0.0625  0.1994
  549W        W 2699  16.544   6.637  23.940  0.1339  0.1771 -0.3200
  550W        W 2700  28.229   0.449   2.899 -0.0126  0.0539 -0.1949
  551W        W 2701  22.905   5.558   5.504  0.1817  0.1697  0.4003
  552W        W 2702   1.397   1.342   2.335 -0.0734 -0.0072  0.0089
  553W        W 2703   0.922   1.614   1.614  0.3057  0.1131 -0.1696
  554W        W 2704   7.634   6.183  20.751  0.0561  0.1838 -0.0386
  555W        W 2705  15.377   7.000  16.216 -0.2888  0.1800 -0.1924
  556W        W 2706  23.843   1.786  23.896 -0.0440 -0.0683 -0.1451
  557W        W 2707  19.879   1.830  24.999 -0.1431 -0.1898  0.1093
  558W        W 2708   8.817   5.001   9.434 -0.1837  0.1541 -0.0806
  559W        W 2709  11.827   4.368   4.465 -0.1690 -0.1035 -0.2262
  560W        W 2710  20.814   0.713   0.002  0.1619 -0.2328 -0.2684
  561W        W 2711   3.206   6.711  19.287 -0.2192  0.1063 -0.0607
  562W        W 2712  13.520   5.464   5.761  0.0658 -0.1254  0.1622
  563W        W 2713  15.421   6.369   9.033 -0.2065 -0.4273  0.1426
  564W        W 2714  30.073   5.963  17.987  0.1889  0.4182  0.1870
  565W        W 2715  18.908   4.872  18.342  0.0453  0.1003 -0.0794
  566W        W 2716  14.714   0.602  16.410  0.3740 -0.0361  0.1139
  567W        W 2717  13.567   6.758  15.387  0.2984 -0.2633 -0.1291
  568W        W 2718   6.577   1.042  11.609  0.2447  0.0843  0.0456
  569W        W 2719   3.191   5.095  10.096  0.0070 -0.0940  0.2203
  570W        W 2720  10.067   3.966   2.649  0.2916 -0.0739  0.0511
  571W        W 2721  29.782   1.787  26.338  0.1124 -0.0760 -0.1438
  572W        W 2722  18.711   4.898  21.712 -0.0339  0.0566  0.0795
  573W        W 2723  14.033   5.764  24.726 -0.0441 -0.0167 -0.1174
  574W        W 2724   2.039   3.396  15.908 -0.0424 -0.0906  0.1146
  575W        W 2725   3.087   0.399  23.424  0.3778  0.3533  0.3383
  576W        W 2726  15.163   1.831  24.849  0.0057  0.2251  0.1770
  577W        W 2727  28.773   4.395   2.133  0.0414 -0.1377  0.2054
  578W        W 2728   9.541   5.951   2.482 -0.0746  0.0535 -0.0215
  579W        W 2729   3.021   3.660   2.046  0.0987 -0.0947 -0.0642
  580W        W 2730  26.237   6.696   2.473 -0.0185 -0.0438 -0.3222
  581W        W 2731  12.940   6.638  23.776 -0.0972  0.0133  0.2417
  582W        W 2732   8.067   4.073  20.244 -0.2760 -0.2357  0.0474
  583W        W 2733  29.847   4.154  10.293  0.1332 -0.0874 -0.0267
  584W        W 2734   8.531   1.356   0.880 -0.0892  0.0453  0.0737
  585W        W 2735  18.268   6.406   8.955  0.0345 -0.2991 -0.0266
  586W        W 2736  28.747   3.234  16.836 -0.2157 -0.0166  0.2248
  587W        W 2737  19.204   5.402   2.366  0.0237  0.2028  0.1145
  588W        W 2738  18.611   5.609  16.069  0.1426  0.2489 -0.1827
  589W        W 2739  18.705   4.289   3.264  0.3169 -0.0281  0.0270
  590W        W 2740  12.494   5.473  24.558  0.0026 -0.1150  0.0011
  591W        W 2741  11.479   7.361   2.875  0.0762  0.1861  0.0491
  592W        W 2742  29.724   4.098  23.524 -0.0277  0.0269  0.1948
  593W        W 2743  11.559   4.709   5.822  0.5909 -0.1350 -0.1503
  594W        W 2744   5.549   1.326  22.649 -0.0810 -0.0535  0.0113
  595W        W 2745  21.602   6.017   7.591 -0.1141 -0.0788 -0.0244
  596W        W 2746  16.852   2.467  15.419 -0.0337 -0.0848 -0.1768
  597W        W 2747   0.511   0.596   7.659  0.0908  0.1432 -0.0440
  598W        W 2748   5.116   4.533   8.696  0.0591 -0.3283  0.2612
  599W        W 2749  21.550   6.508   1.068 -0.0823 -0.1530 -0.2649
  600W        W 2750   6.424   6.028   8.007  0.0328 -0.0196 -0.0805
  601W        W 2751  19.214   7.083   4.846 -0.2567 -0.3497  0.0181
  602W        W 2752   8.390   5.972   3.610 -0.1484 -0.0740 -0.1938
  603W        W 2753  26.661   1.613  21.799 -0.5387 -0.1037 -0.1383
  604W        W 2754  20.574   2.292  25.601 -0.1066 -0.3024  0.2395
  605W        W 2755  20.159   4.546   8.042  0.1005 -0.0257  0.2112
  606W        W 2756  11.495   6.207  20.585 -0.0783 -0.2336  0.1747
  607W        W 2757  28.339   6.015   0.523  0.1006  0.2192  0.0902
  608W        W 2758  27.756   7.484  21.520  0.1165  0.0888  0.1097
  609W        W 2759  26.740   6.333   9.554 -0.1338 -0.2306 -0.2112
  610W        W 2760  13.976   5.578   3.740 -0.0833 -0.1559 -0.0401
  611W        W 2761  19.982   3.976   5.949  0.0831 -0.0805  0.2703
  612W        W 2762   9.194   2.492  26.189 -0.2326 -0.1758  0.3534
  613W        W 2763  17.668   4.156  10.720 -0.0157  0.2221 -0.1304
  614W        W 2764  17.179   1.335  17.928  0.0861  0.2592  0.4212
  615W        W 2765  26.678   6.301  22.541  0.0159  0.0533  0.1554
  616W        W 2766   7.658   6.567  24.924  0.2825  0.1203 -0.1985
  617W        W 2767   0.699   5.241   6.650 -0.3308  0.0612 -0.2470
  618W        W 2768   6.136   5.540  20.712  0.4242  0.1596  0.0227
  619W        W 2769   5.797   1.076   7.505  0.1442 -0.0324 -0.0140
  620W        W 2770  30.525   1.960  23.142 -0.1249 -0.1130 -0.3382
  621W        W 2771  22.917   7.418   4.266  0.1901 -0.0952 -0.0436
  622W        W 2772   2.007   4.323   1.021 -0.1026  0.1153 -0.2553
  623W        W 2773   0.430   3.912   3.531 -0.2279 -0.0931 -0.1087
  624W        W 2774   4.465   6.338  19.635  0.0261 -0.1666  0.2487
  625W        W 2775  18.286   6.422   0.882 -0.3980  0.1833  0.2455
  626W        W 2776  21.418   1.278  23.002 -0.2015 -0.4285  0.1524
  627W        W 2777   2.582   3.057  26.137  0.0917 -0.2277  0.0429
  628W        W 2778  11.179   5.980   8.891 -0.0480  0.0987  0.0576
  629W        W 2779   4.649   2.318  10.099  0.0673 -0.0287  0.1139
  630W        W 2780  19.253   4.313  22.559 -0.3058 -0.1177  0.0776
  631W        W 2781  24.109   7.434  24.574 -0.1768  0.2810 -0.3415
  632W        W 2782   1.729   5.495  19.357 -0.1172  0.2741 -0.1693
  633W        W 2783  17.164   4.846  24.659  0.1022 -0.3726 -0.2490
  634W        W 2784  30.921   1.548  17.927  0.0942  0.2833 -0.1155
  635W        W 2785  17.104   7.695  10.019  0.0392 -0.0576 -0.1756
  636W        W 2786  17.486   4.801  15.296  0.3087  0.0499 -0.0520
  637W        W 2787  11.535   5.820  19.511 -0.1289  0.2933  0.0270
  638W        W 2788   5.361   7.728  16.048  0.0693 -0.1426  0.1276
  639W        W 2789  11.100   3.949  19.041 -0.0698  0.0767 -0.2658
  640W        W 2790  14.501   4.248   9.538 -0.2831 -0.0366 -0.1760
  641W        W 2791   7.965   2.819   5.636 -0.0595 -0.2227  0.0436
  642W        W 2792  14.040   0.073  22.326  0.2581 -0.0473 -0.0825
  643W        W 2793  30.169   7.228  23.166  0.3474 -0.3937  0.1723
  644W        W 2794   1.612   3.317  20.935  0.0302 -0.1329  0.1052
  645W        W 2795  25.705   2.126   0.347  0.1473  0.2787 -0.2000
  646W        W 2796   4.728   1.501  19.233  0.0138 -0.0930 -0.1204
  647W        W 2797  25.443   1.183  17.682  0.0094  0.1585 -0.1977
  648W        W 2798  24.681   7.548  23.894 -0.1956  0.0919  0.0762
  649W        W 2799  26.127   4.081   4.006  0.0943 -0.0501 -0.1737
  650W        W 2800  28.630   4.335  15.574 -0.2045  0.5104 -0.1351
  651W        W 2801  18.601   3.216   0.328 -0.1873 -0.0333 -0.4820
  652W        W 2802   0.828   5.361  16.722  0.1417 -0.2618 -0.1686
  653W        W 2803  23.490   0.771   7.599  0.2507  0.4097 -0.2047
  654W        W 2804  10.902   7.797  26.358 -0.0026  0.0271 -0.0125
  655W        W 2805  14.614   7.584   7.426  0.1820  0.2775 -0.2351
  656W        W 2806  23.916   7.515  20.356  0.0393  0.0677 -0.0104
  657W        W 2807   4.025   3.276  19.692  0.2885  0.2299  0.2451
  658W        W 2808   4.550   3.934  19.037 -0.1608 -0.2714 -0.1073
  659W        W 2809  12.777   3.023  22.169 -0.1123 -0.1223 -0.2036
  660W        W 2810   1.679   1.972  24.343 -0.1385  0.0893  0.2318
  661W        W 2811  14.742   5.286  26.230  0.4579 -0.4569  0.0136
  662W        W 2812  19.178   4.107   5.728 -0.0358  0.1700  0.0681
  663W        W 2813  11.467   2.770   1.140  0.1300  0.1110 -0.3485
  664W        W 2814   2.269   1.904   0.293  0.3721 -0.1500 -0.2701
  665W        W 2815  14.823   7.520  23.931 -0.0483  0.1792  0.0940
  666W        W 2816  27.675   1.293   8.545  0.2075  0.0506 -0.2500
  667W        W 2817   6.482   2.451  18.150  0.2105  0.1200  0.4562
  668W        W 2818  23.990   1.208  23.641  0.0239 -0.0445 -0.2974
  669W        W 2819  10.029   5.412  16.683  0.1261 -0.3995 -0.2730
  670W        W 2820  14.999   3.305  23.585  0.0604 -0.0044  0.1947
  671W        W 2821  18.493   6.950  22.745  0.0554 -0.3474  0.3782
  672W        W 2822  29.968   2.087  16.635 -0.0134 -0.1385 -0.1002
  673W        W 2823  11.757   6.100   8.211  0.1512  0.1929  0.1009
  674W        W 2824  22.152   1.506   6.423  0.0489  0.3336  0.1908
  675W        W 2825   5.199   1.506  25.117 -0.0445 -0.0560  0.3214
  676W        W 2826  24.239   1.068  23.223  0.2070 -0.0857 -0.1008
  677W        W 2827  17.375   4.869  18.276 -0.1292  0.0776 -0.1338
  678W        W 2828   1.722   0.450   7.191 -0.0362  0.2054 -0.1071
  679W        W 2829  25.026   6.463  19.530  0.0327  0.1120 -0.0735
  680W        W 2830   1.603   1.990   5.057  0.0291  0.0942  0.1229
  681W        W 2831   5.037   0.064   6.002  0.0244 -0.2625  0.2632
  682W        W 2832   8.142   7.394  16.679 -0.1777  0.0416 -0.0945
  683W        W 2833  19.107   3.709  21.856  0.2840  0.0724 -0.0270
  684W        W 2834   3.283   6.721  25.150  0.0909 -0.3117  0.2261
  685W        W 2835  28.857   6.689  18.201 -0.3076  0.1008 -0.0151
  686W        W 2836  27.772   4.999   3.180  0.0300  0.2461  0.1208
  687W        W 2837   7.385   2.375   8.663  0.0242 -0.0004 -0.1530
  688W        W 2838  30.621   4.014  19.254 -0.1298  0.3463  0.1233
  689W        W 2839  28.547   7.209   2.843 -0.0284  0.0832 -0.0622
  690W        W 2840   3.526   3.183  15.619 -0.0003 -0.0464  0.1930
  691W        W 2841  27.455   3.146  20.803  0.0566  0.0176  0.2704
  692W        W 2842   8.606   7.183   2.331 -0.0121 -0.0653  0.0982
  693W        W 2843  26.165   0.763  16.326 -0.1059 -0.1177 -0.1356
  694W        W 2844  19.366   0.477   6.104 -0.0647 -0.0624  0.1273
  695W        W 2845  12.575   2.856   5.182 -0.0635  0.0004 -0.4080
  696W        W 2846  13.441   1.505  22.547  0.0260 -0.0699 -0.2946
  697W        W 2847  23.558   1.611  22.552  0.2262 -0.1114  0.1604
  698W        W 2848   5.637   5.146  25.294 -0.0924  0.2163  0.3632
  699W        W 2849  28.738   2.010  19.888 -0.1875 -0.0825  0.0730
  700W        W 2850  14.820   3.387  14.520  0.0698 -0.1438 -0.1179
  701W        W 2851  26.052   1.524  21.848  0.0474 -0.1629  0.0029
  702W        W 2852   3.901   0.390  10.517  0.0043  0.0875 -0.1408
  703W        W 2853  27.619   4.400  15.497  0.1634  0.1560  0.2073
  704W        W 2854  29.703   6.693  25.658  0.0551  0.1022  0.1939
  705W        W 2855  12.137   2.451   3.356 -0.3246  0.0548 -0.0244
  706W        W 2856  13.035   1.421  21.167  0.0000 -0.2297  0.0488
  707W        W 2857  24.667   1.359  18.210 -0.1247 -0.2265  0.0394
  708W        W 2858   4.838   2.909  22.145 -0.0751 -0.1411 -0.0175
  709W        W 2859   7.750   2.788  19.836  0.1212  0.1063 -0.0945
  710W        W 2860  26.651   0.782   0.627  0.1605 -0.0235  0.0708
  711W        W 2861  12.742   4.453   9.616 -0.2048  0.0027 -0.2122
  712W        W 2862  24.944   0.640  11.412  0.0827  0.0190 -0.0120
  713W        W 2863  17.220   3.046  19.466  0.2197 -0.1937 -0.1495
  714W        W 2864   7.699   1.740  22.993  0.1279  0.1426  0.0607
  715W        W 2865  24.914   4.205   9.938 -0.0021  0.1734  0.3292
  716W        W 2866  22.975   2.843  23.792 -0.1684 -0.0775  0.0500
  717W        W 2867   8.839   0.175  22.494 -0.1801 -0.1755 -0.1163
  718W        W 2868  20.213   0.763  17.887 -0.0892 -0.1630  0.0091
  719W        W 2869  23.495   1.616  10.210 -0.0076  0.1180  0.0892
  720W        W 2870  17.966   6.375  16.466  0.1050  0.1432  0.0381
  721W        W 2871  12.622   5.300   1.173 -0.0826 -0.2288  0.1975
  722W        W 2872  28.902   0.872  23.773 -0.0468 -0.2521  0.0377
  723W        W 2873  22.279   5.836  22.143  0.1200  0.1208  0.0260
  724W        W 2874  12.615   7.288  20.872  0.2891 -0.2597 -0.0551
  725W        W 2875  20.248   0.603  22.602 -0.1213 -0.1115 -0.0636
  726W        W 2876  24.372   7.667  26.144 -0.1105 -0.2264 -0.2341
  727W        W 2877  16.236   3.104   9.435  0.2279 -0.1394 -0.1664
  728W        W 2878  23.092   5.691   9.327 -0.2615  0.0400 -0.1062
  729W        W 2879   1.907   1.274  17.302 -0.0058 -0.1950  0.1162
  730W        W 2880   8.129   2.688   8.774  0.2762 -0.2503 -0.0472
  731W        W 2881   3.765   6.931  20.050  0.0033 -0.0445  0.0739
  732W        W 2882   2.905   1.726   0.994  0.1205 -0.0098  0.4373
  733W        W 2883   3.120   3.629  25.103  0.0623 -0.2358 -0.0467
  734W        W 2884  23.557   2.624   5.286 -0.0373 -0.0319 -0.0123
  735W        W 2885  11.360   1.579  17.680  0.0304 -0.1994  0.1127
  736W        W 2886  12.216   5.099   8.256 -0.2223  0.3731  0.0202
  737W        W 2887   6.622   3.803  16.063  0.2644 -0.1949  0.2016
  738W        W 2888  23.776   6.281   7.590  0.0617 -0.2700  0.2890
  739W        W 2889  19.959   1.584   1.859  0.2764  0.0767 -0.0032
  740W        W 2890  30.929   1.626   5.363  0.0038 -0.0199  0.0195
  741W        W 2891  18.040   7.487   0.935 -0.1002 -0.0429 -0.2370
  742W        W 2892  26.130   7.729  17.105  0.0445 -0.0333 -0.1068
  743W        W 2893   0.037   0.719  15.745  0.1324  0.1425  0.0257
  744W        W 2894   8.708   1.129  20.504  0.1234  0.1132  0.1093
  745W        W 2895  23.614   5.725   4.738 -0.1444 -0.2099 -0.1558
  746W        W 2896  22.689   6.461  26.337 -0.3616 -0.0979 -0.2051
  747W        W 2897   6.039   1.933   4.461  0.1439 -0.0674  0.0321
  748W        W 2898  15.221   1.352   0.720  0.2865 -0.3187 -0.2099
  749W        W 2899  16.546   4.875  17.076 -0.0504  0.0628  0.0023
  750W        W 2900  10.940   4.380  14.563  0.1625 -0.0314  0.2340
  751W        W 2901  28.415   5.142  17.982 -0.4450 -0.2883 -0.0469
  752W        W 2902  24.485   4.747   1.401 -0.1596 -0.2894 -0.0261
  753W        W 2903  10.029   2.751   4.312 -0.0649 -0.0165 -0.0912
  754W        W 2904   7.695   6.833   5.423 -0.0471  0.1568 -0.1010
  755W        W 2905  11.416   0.911  15.574  0.3308 -0.1079 -0.2074
  756W        W 2906   6.633   1.872   4.875 -0.1793  0.0453 -0.2171
  757W        W 2907  19.219   1.984  20.756  0.0308  0.2359  0.0509
  758W        W 2908   6.757   3.261  23.285  0.0965  0.1610  0.1226
  759W        W 2909  14.185   2.288   5.912  0.1195  0.1155  0.1606
  760W        W 2910  29.542   4.192  17.012 -0.1087 -0.1041 -0.0114
  761W        W 2911  28.308   2.295   6.323 -0.2597  0.0066  0.1657
  762W        W 2912  14.524   1.145  16.265 -0.0477 -0.1344  0.0365
  763W        W 2913   1.846   1.215  10.341 -0.2429 -0.0387 -0.0604
  764W        W 2914  12.740   2.351   3.274 -0.1028  0.0223  0.3489
  765W        W 2915   9.457   1.200  19.696 -0.6325  0.1111  0.1094
  766W        W 2916  13.712   7.349  21.331 -0.1402  0.4052  0.3892
  767W        W 2917  11.804   3.118  24.711 -0.1527 -0.2184  0.1304
  768W        W 2918  16.515   4.395  25.964 -0.2475 -0.1104  0.0690
  769W        W 2919   4.582   3.593   6.151  0.3386  0.0431  0.0468
  770W        W 2920   6.706   7.470   5.247 -0.0467 -0.0359 -0.1303
  771W        W 2921  11.275   3.284  20.720 -0.2102 -0.2101 -0.0775
  772W        W 2922  21.152   2.262   4.751  0.4029  0.0238 -0.0416
  773W        W 2923   9.067   6.074  23.480 -0.0461 -0.0252  0.0045
  774W        W 2924  22.487   2.802  26.046  0.0285 -0.1408  0.1540
  775W        W 2925  21.308   3.167   8.237 -0.1929 -0.1402  0.2817
  776W        W 2926  19.821   1.982   6.076  0.0655  0.1851  0.2926
  777W        W 2927  23.693   0.044   6.705 -0.1176  0.0898 -0.1940
  778W        W 2928  19.450   7.551   8.923 -0.0720  0.0501 -0.0942
  779W        W 2929  23.861   3.525  18.063  0.2356  0.2289 -0.1970
  780W        W 2930   1.353   1.153  15.459 -0.0282 -0.1864  0.0439
  781W        W 2931   9.438   6.633  24.596  0.4666 -0.1787 -0.0843
  782W        W 2932   1.205   7.597  23.477 -0.1063  0.1303 -0.2200
  783W        W 2933  12.384   4.236   8.542 -0.0152  0.0035 -0.1203
  784W        W 2934   2.175   7.552   0.313  0.1025 -0.2625 -0.0157
  785W        W 2935  28.471   5.483   6.622 -0.0907 -0.1295 -0.1985
  786W        W 2936  12.111   2.040  16.566  0.2702  0.0678 -0.3673
  787W        W 2937  25.524   1.744  17.927  0.0988  0.1669  0.0783
  788W        W 2938  29.928   3.850   9.361 -0.0348 -0.1277 -0.0428
  789W        W 2939  23.263   6.082  17.572  0.0031 -0.0805 -0.0889
  790W        W 2940  17.225   6.948   2.682  0.2708  0.1679  0.1101
  791W        W 2941  25.207   1.594  21.933  0.0919  0.1708 -0.2895
  792W        W 2942   3.148   7.687   5.931 -0.2206  0.0852 -0.1790
  793W        W 2943   5.417   2.129   3.002 -0.0445  0.0735  0.2198
  794W        W 2944   9.996   0.545  17.529 -0.1091 -0.0681  0.2992
  795W        W 2945   6.454   4.038   8.610 -0.2441 -0.0834  0.0220
  796W        W 2946  23.454   5.929  11.180 -0.1773 -0.0810  0.1559
  797W        W 2947  11.253   6.310   4.856  0.0129  0.0284 -0.2598
  798W        W 2948   8.825   2.384  24.836 -0.1797 -0.4950 -0.0242
  799W        W 2949   2.851   2.111   4.555 -0.1588  0.1821 -0.1852
  800W        W 2950  26.873   4.192  24.570 -0.1735 -0.0167  0.0492
  801W        W 2951  14.349   5.650  25.939 -0.0447 -0.2671 -0.0554
  802W        W 2952  30.844   2.761  15.952 -0.1630 -0.1431  0.0218
  803W        W 2953  15.131   3.886   6.426 -0.2412  0.2516  0.3076
  804W        W 2954  15.727   5.637   1.364 -0.2762 -0.0251  0.1097
  805W        W 2955  10.059   0.917  18.916 -0.0164  0.1111  0.0511
  806W        W 2956  23.258   0.754  17.734 -0.0942 -0.3091  0.1053
  807W        W 2957  22.923   1.784   3.286 -0.2012  0.2266 -0.0707
  808W        W 2958  25.179   7.409  24.068  0.0899  0.0656 -0.2650
  809W        W 2959  21.721   7.587   7.888 -0.0409  0.2335 -0.2238
  810W        W 2960  19.342   4.052  26.279  0.0177  0.2675 -0.0176
  811W        W 2961   6.974   6.376  15.762 -0.0576  0.2098 -0.0274
  812W        W 2962  24.957   5.407   3.053 -0.1509  0.2523  0.1222
  813W        W 2963   3.725   0.106   9.722 -0.0651  0.1894  0.1543
  814W        W 2964  26.683   0.130   8.585  0.1762 -0.1772  0.1932
  815W        W 2965  30.308   7.428  22.612  0.0782  0.1025  0.2587
  816W        W 2966  25.731   0.853  17.039 -0.2273  0.1495  0.0205
  817W        W 2967  10.892   4.042  26.398 -0.2746 -0.1067  0.3208
  818W        W 2968   1.524   6.377  21.731 -0.1184 -0.2586 -0.0087
  819W        W 2969  19.775   1.615   0.983 -0.0461  0.0133  0.0092
  820W        W 2970  13.234   2.346   9.870 -0.0045  0.1681 -0.1464
  821W        W 2971  29.845   6.068   4.943  0.2092 -0.1419 -0.0785
  822W        W 2972  11.443   3.501   8.906 -0.3901  0.0161  0.1687
  823W        W 2973  25.681   1.751   6.252 -0.0266  0.0096 -0.0271
  824W        W 2974  31.043   1.725  25.177 -0.0387 -0.0273 -0.0321
  825W        W 2975  18.847   0.164   3.781 -0.2108  0.1698  0.3131
  826W        W 2976  30.247   0.577  19.526 -0.0418  0.0822 -0.1519
  827W        W 2977  15.620   2.085  18.058 -0.1112  0.2356 -0.4233
  828W        W 2978   7.384   2.968  19.493  0.0045 -0.1342  0.2825
  829W        W 2979  21.622   5.214   9.263 -0.1643 -0.1179 -0.0994
  830W        W 2980   6.757   5.084  21.920  0.3607 -0.1297 -0.2297
  831W        W 2981  11.517   1.556  16.216  0.0653  0.0139 -0.1909
  832W        W 2982  14.242   3.208  16.855  0.1548 -0.1634 -0.0403
  833W        W 2983   4.826   6.114   4.216 -0.1896  0.3357  0.1432
  834W        W 2984   7.931   1.594   3.009  0.0469 -0.3735  0.1488
  835W        W 2985  26.121   2.903   5.476  0.4225  0.1131  0.3519
  836W        W 2986   1.634   1.001   3.924 -0.3072  0.5707 -0.1913
  837W        W 2987  26.234   0.742  23.845 -0.0665 -0.2235  0.3252
  838W        W 2988   8.950   5.690  25.874  0.0432 -0.0407 -0.1061
  839W        W 2989   8.485   3.875  21.911  0.3962 -0.0676  0.0417
  840W        W 2990  22.744   0.741   0.057  0.1312 -0.0632  0.1799
  841W        W 2991  13.173   0.114  16.618  0.0702 -0.0507 -0.2317
  842W        W 2992  30.106   2.727  24.145  0.2646  0.1081  0.2851
  843W        W 2993  23.910   1.347  23.011 -0.1669  0.2506  0.1331
  844W        W 2994   3.253   3.732   6.775  0.1862 -0.0416 -0.0634
  845W        W 2995   6.852   4.889  21.262  0.0081 -0.1119 -0.2310
  846W        W 2996  21.748   3.284  17.778  0.2447  0.0302  0.1675
  847W        W 2997  30.143   1.670  19.661 -0.0356 -0.1876  0.2518
  848W        W 2998  19.000   6.817   1.008 -0.1024 -0.3127  0.0519
  849W        W 2999  10.920   5.761  22.089  0.1674 -0.2073 -0.1171
  850W        W 3000  19.288   0.221  22.958  0.3145 -0.1490  0.3720
  851W        W 3001   1.778   4.415  24.068  0.1053  0.2538 -0.0128
  852W        W 3002  21.287   6.676   4.207  0.2777 -0.0898 -0.1048
  853W        W 3003   0.531   7.100   0.223 -0.0241  0.2324 -0.0568
  854W        W 3004  13.674   1.562  18.260 -0.0825 -0.1565 -0.2281
  855W        W 3005  15.216   3.630  14.912 -0.2723 -0.0696  0.0322
  856W        W 3006  13.848   7.660   7.254 -0.0600 -0.1870  0.3317
  857W        W 3007   6.678   2.352  23.387 -0.1293 -0.1114 -0.3207
  858W        W 3008   4.339   5.671   2.918 -0.2694 -0.2396 -0.1194
  859W        W 3009   7.422   5.536  10.219 -0.1709 -0.2780 -0.3345
  860W        W 3010  19.570   2.204   2.420  0.0755  0.0209 -0.1213
  861W        W 3011  16.479   1.425   5.023  0.3411  0.0610  0.2240
  862W        W 3012  22.391   0.227   7.413 -0.1727  0.0743 -0.0224
  863W        W 3013   2.440   3.045   3.716  0.0311  0.1211 -0.0855
  864W        W 3014  13.582   1.805  24.854  0.1598 -0.0616 -0.0828
  865W        W 3015  12.737   3.538   2.665 -0.0481 -0.1140 -0.0946
  866W        W 3016  12.885   5.663  24.844  0.4035 -0.3858  0.0691
  867W        W 3017  17.523   0.553  19.487  0.0528 -0.0439 -0.1095
  868W        W 3018   9.493   4.738  15.399  0.1509  0.1645 -0.1452
  869W        W 3019  10.938   3.412   6.551 -0.1754  0.2977 -0.2829
  870W        W 3020   7.361   1.706   3.732 -0.0004  0.0921  0.0478
  871W        W 3021  15.679   5.138   9.685  0.0139 -0.2100  0.1484
  872W        W 3022   4.559   4.632   0.995  0.1118  0.1275  0.2828
  873W        W 3023  25.651   1.049   7.833  0.1473 -0.0556 -0.0637
  874W        W 3024  20.877   6.885  18.548 -0.0026 -0.2862 -0.3440
  875W        W 3025  30.154   3.447  23.092  0.1091  0.0937  0.3100
  876W        W 3026  26.140   5.950  17.090 -0.0931 -0.1092 -0.1210
  877W        W 3027  24.075   6.925  24.783  0.0590 -0.0382  0.3137
  878W        W 3028  24.741   6.593   2.513 -0.0526  0.1313  0.0570
  879W        W 3029  23.818   6.897   7.781 -0.0290  0.0868 -0.0566
  880W        W 3030   2.429   6.524  26.138  0.1695 -0.0315  0.0019
  881W        W 3031   1.479   7.280  21.412 -0.1588 -0.1897  0.0166
  882W        W 3032  28.220   6.829  16.908 -0.0212  0.0407  0.0758
  883W        W 3033  30.923   5.251  16.206 -0.2909 -0.3948 -0.0662
  884W        W 3034  20.296   1.495  10.165 -0.3064  0.0144  0.0036
  885W        W 3035   2.317   2.101  26.194 -0.2254 -0.0861 -0.2586
  886W        W 3036   0.626   2.114  26.164 -0.2758  0.2149 -0.1532
  887W        W 3037   4.496   5.571  22.097 -0.2202  0.1660  0.3795
  888W        W 3038  12.743   4.636  20.953 -0.0573  0.0661 -0.1837
  889W        W 3039  15.678   7.546  10.598 -0.1246 -0.0726  0.0877
  890W        W 3040  11.967   6.522  18.510 -0.4102  0.2815  0.0680
  891W        W 3041  15.929   2.801   8.167  0.1304  0.0142 -0.3479
  892W        W 3042   0.714   7.098  20.174  0.5523  0.1809  0.1693
  893W        W 3043  20.837   1.971   2.641  0.0091  0.0722  0.1085
  894W        W 3044   0.662   7.304   1.809  0.0855 -0.0208  0.1886
  895W        W 3045  13.666   1.349   9.993  0.4184 -0.2208  0.0454
  896W        W 3046  16.459   1.865  21.205  0.1007 -0.0588 -0.1723
  897W        W 3047  10.359   7.082  23.314 -0.2394 -0.2445 -0.1633
  898W        W 3048   8.861   4.267   1.902 -0.2146 -0.1646 -0.3068
  899W        W 3049  26.812   7.038   5.170  0.0228  0.0350  0.1874
  900W        W 3050   7.420   1.872   8.055  0.0132  0.0709 -0.2282
  901W        W 3051  16.605   7.734   3.572  0.0865 -0.1383  0.1658
  902W        W 3052  10.341   3.455   3.309 -0.1132 -0.0036  0.0560
  903W        W 3053   8.716   2.202   8.714 -0.0115 -0.1141 -0.0620
  904W        W 3054   4.148   6.786   4.565  0.2851 -0.3987 -0.0315
  905W        W 3055  23.081   4.959  23.821  0.0047  0.3459 -0.0909
  906W        W 3056  20.615   7.419   5.589 -0.0157  0.3483  0.1924
  907W        W 3057  21.215   3.562   5.904 -0.0813  0.0988 -0.1919
  908W        W 3058  20.474   2.222  20.799 -0.0013  0.2665  0.0968
  909W        W 3059  28.892   3.033  22.087  0.0961 -0.1068 -0.2960
  910W        W 3060  26.288   2.758  20.612  0.0964 -0.2357  0.2935
  911W        W 3061  24.369   2.583  19.011  0.1220  0.0804 -0.1179
  912W        W 3062  17.750   4.822   9.640 -0.2164  0.1265 -0.3300
  913W        W 3063   4.836   5.144  20.882  0.2071  0.0160 -0.4365
  914W        W 3064  14.770   1.304  23.485 -0.0021 -0.1259 -0.1867
  915W        W 3065   4.380   6.987   8.017  0.1267  0.0094  0.2858
  916W        W 3066  20.018   3.851  22.738  0.2969 -0.2578 -0.1666
  917W        W 3067  30.175   5.802  23.231  0.0893  0.0855 -0.2438
  918W        W 3068  10.445   6.854   4.207 -0.2534 -0.2230  0.1326
  919W        W 3069  17.277   1.232  21.096  0.1286  0.0117 -0.1181
  920W        W 3070  19.846   2.521  20.231  0.3339 -0.0051 -0.2501
  921W        W 3071   7.553   0.025   8.656  0.2213  0.0374  0.0056
  922W        W 3072  31.079   6.137  11.131  0.4308 -0.1039  0.1377
  923W        W 3073  29.402   0.927   8.033 -0.1036  0.1350 -0.1032
  924W        W 3074  10.678   3.917   6.543  0.3489 -0.3183 -0.2422
  925W        W 3075  30.447   0.253  21.964 -0.0757 -0.0771  0.1135
  926W        W 3076  18.715   7.211   0.264 -0.1458 -0.1157 -0.0125
  927W        W 3077  25.185   1.519   4.347 -0.1259  0.0671  0.5456
  928W        W 3078  23.835   4.367  17.404 -0.0546  0.0971 -0.0403
  929W        W 3079  10.186   4.131  18.616  0.0436  0.2767 -0.1971
  930W        W 3080  18.758   4.421  20.591 -0.1484  0.2904  0.1155
  931W        W 3081  18.690   7.652  16.566 -0.3843 -0.1272 -0.1889
  932W        W 3082  12.658   0.266   9.405 -0.0210 -0.2971  0.4069
  933W        W 3083   5.608   0.658  11.106 -0.0404  0.0446  0.0604
  934W        W 3084  12.513   3.042  25.601 -0.0848 -0.0208 -0.0936
  935W        W 3085  12.600   3.362   3.113 -0.3136  0.0704  0.1031
  936W        W 3086   3.252   6.928   7.361 -0.0272  0.1064  0.0528
  937W        W 3087  15.187   3.121   5.241 -0.1073  0.2098  0.0688
  938W        W 3088  15.839   5.674   2.428 -0.0925  0.0550 -0.0523
  939W        W 3089  15.827   4.670  25.190 -0.0243 -0.0221  0.1092
  940W        W 3090  28.398   0.008   8.199 -0.0740 -0.1222  0.2329
  941W        W 3091  25.940   4.909  21.664 -0.4020  0.2932 -0.3594
  942W        W 3092  20.636   0.607  15.872 -0.1350  0.0820  0.2198
  943W        W 3093   9.800   2.887   2.330  0.2438 -0.1331  0.0109
  944W        W 3094  19.968   4.241   8.579 -0.1010 -0.1465 -0.1770
  945W        W 3095  10.690   5.799   7.107  0.0272 -0.0826  0.0656
  946W        W 3096  12.221   3.128   3.412 -0.2742 -0.2490  0.0181
  947W        W 3097  18.892   2.983   6.975 -0.1357 -0.0261  0.1010
  948W        W 3098   8.495   5.671  22.529 -0.0341  0.1918 -0.3271
  949W        W 3099  12.106   6.846  16.522 -0.2894 -0.0042 -0.3278
  950W        W 3100   7.254   7.078  18.897  0.0844 -0.0301 -0.0557
  951W        W 3101  22.859   6.537   3.285 -0.1583  0.0653  0.2644
  952W        W 3102   5.671   1.775   1.325  0.0298 -0.0318  0.0639
  953W        W 3103   8.209   5.498  20.523  0.1461  0.0809  0.0169
  954W        W 3104  19.830   6.342  10.241  0.1265 -0.0634  0.0103
  955W        W 3105  11.787   3.273  17.860 -0.1268 -0.1549 -0.0371
  956W        W 3106   6.473   2.860   7.145 -0.0030 -0.1135  0.1433
  957W        W 3107  20.513   1.895   7.824 -0.2498 -0.0875  0.1067
  958W        W 3108  19.839   3.907  16.464 -0.0126 -0.1247 -0.3453
  959W        W 3109  23.728   4.463   2.512  0.3021 -0.3672  0.1764
  960W        W 3110  17.088   7.568  26.042 -0.0990  0.1347 -0.3365
  961W        W 3111  14.093   6.912  18.172  0.3905 -0.0435  0.1220
  962W        W 3112  25.668   3.770  18.011 -0.0300  0.0116 -0.1360
  963W        W 3113  15.354   3.623   5.735  0.1797 -0.0967 -0.2785
  964W        W 3114   6.415   3.517   7.692 -0.3157 -0.1771 -0.2032
  965W        W 3115  18.399   0.091  18.985  0.0585  0.1183 -0.0263
  966W        W 3116   7.714   5.875  16.579  0.2024  0.2582 -0.1908
  967W        W 3117   6.485   3.874  18.744 -0.1623  0.2690  0.0567
  968W        W 3118   4.429   2.090   3.830  0.0377 -0.0002  0.0097
  969W        W 3119   8.098   2.668  18.454 -0.0229 -0.1989 -0.0784
  970W        W 3120  28.407   5.878  22.936 -0.3827  0.1471  0.2056
  971W        W 3121  27.522   0.351  23.510  0.1369 -0.1642  0.0922
  972W        W 3122  30.516   5.298   0.448  0.1397  0.0734 -0.2025
  973W        W 3123   6.779   4.102   4.288  0.0372 -0.0072  0.0322
  974W        W 3124   4.599   1.191  17.381 -0.3592 -0.1292  0.1390
  975W        W 3125  11.712   6.900  16.862 -0.1566 -0.2090  0.0915
  976W        W 3126  11.784   0.631  11.541 -0.0647 -0.2181 -0.0923
  977W        W 3127  24.012   4.128   4.977  0.1274 -0.0556  0.1556
  978W        W 3128  21.717   1.400   4.189 -0.0920 -0.1851 -0.0692
  979W        W 3129  11.871   2.633  16.558 -0.1948  0.0745  0.0217
  980W        W 3130  30.867   0.796  25.324  0.0936 -0.0101 -0.1528
  981W        W 3131   6.122   3.678  17.223 -0.1400  0.1259  0.2580
  982W        W 3132  17.109   0.429   2.692 -0.1572  0.1282 -0.0900
  983W        W 3133   6.263   5.147  24.480  0.0301  0.0370  0.1370
  984W        W 3134  19.419   1.892   6.840 -0.2530  0.1052 -0.2420
  985W        W 3135  14.837   6.095  22.354  0.1288  0.0074 -0.3054
  986W        W 3136  23.516   4.927  26.324 -0.2870  0.1586 -0.3154
  987W        W 3137  29.397   7.469   5.845  0.2389 -0.1003  0.0886
  988W        W 3138  15.588   4.112   6.692  0.0365  0.2112 -0.0309
  989W        W 3139  19.468   4.686   2.979  0.2784  0.3099 -0.0551
  990W        W 3140  28.397   7.597  25.653 -0.1218 -0.1231  0.0244
  991W        W 3141   7.681   6.857   5.909  0.0892 -0.0259 -0.0311
  992W        W 3142  16.015   5.462  19.542  0.0352 -0.1023 -0.1110
  993W        W 3143  10.075   0.760  25.598  0.0439  0.1733 -0.1545
  994W        W 3144  15.813   4.392  24.097  0.1459  0.0668 -0.0938
  995W        W 3145  14.645   0.922  24.473  0.1752 -0.0221  0.3458
  996W        W 3146  21.079   4.055   7.824 -0.1217 -0.2535 -0.1672
  997W        W 3147   7.248   3.681   9.627 -0.1002 -0.0890 -0.2694
  998W        W 3148  12.156   7.612  14.911 -0.1842  0.0278 -0.2388
  999W        W 3149  20.954   3.543  22.365  0.1226 -0.0256  0.2877
 1000W        W 3150   1.532   2.780  20.794 -0.2416  0.0760  0.3779
 1001W        W 3151   0.111   1.729   0.923  0.0970 -0.1585 -0.1640
 1002W        W 3152  13.704   0.944  20.160 -0.0723  0.1089 -0.1995
 1003W        W 3153   2.829   2.423   3.140  0.1601 -0.1116 -0.0904
 1004W        W 3154  15.504   7.446  20.223 -0.1285  0.1416 -0.0193
 1005W        W 3155   1.831   5.448   0.614  0.0816 -0.0570 -0.0131
 1006W        W 3156   5.567   2.184  16.192 -0.2361 -0.2970  0.0255
 1007W        W 3157   2.561   3.927   4.989  0.2067  0.1832  0.2277
 1008W        W 3158   6.189   3.399  21.494  0.1648  0.2807 -0.0316
 1009W        W 3159  21.010   0.913  15.662  0.0248  0.0338  0.0067
 1010W        W 3160  15.366   6.693  15.375  0.3751  0.2268 -0.1409
 1011W        W 3161  11.834   2.546  21.916  0.0291 -0.0890 -0.0356
 1012W        W 3162   6.966   6.336  10.266 -0.1796 -0.2498 -0.3388
 1013W        W 3163  18.432   7.034  23.577  0.1451  0.1319 -0.0666
 1014W        W 3164  24.460   5.129   5.276  0.2945 -0.3661 -0.0964
 1015W        W 3165  20.066   5.645   3.620 -0.1268  0.2108 -0.1649
 1016W        W 3166  15.421   2.379   0.380 -0.0493 -0.0498  0.2546
 1017W        W 3167  25.671   1.166  10.436 -0.0614  0.1933  0.2122
 1018W        W 3168  30.914   4.601   0.713 -0.1235  0.1464  0.4725
 1019W        W 3169   7.748   0.471   8.553  0.4200 -0.0570  0.3989
 1020W        W 3170  11.958   5.148  24.477  0.0150 -0.3329 -0.0104
 1021W        W 3171   3.397   6.005  20.892  0.1284 -0.1229  0.2380
 1022W        W 3172   1.160   5.312   6.325 -0.0993 -0.0546 -0.0379
 1023W        W 3173   3.709   2.585  21.010 -0.1332 -0.0196 -0.0416
 1024W        W 3174  10.659   1.951   8.952 -0.0346 -0.1899 -0.3898
 1025W        W 3175   3.431   2.187  16.246  0.2019  0.1842  0.2561
 1026W        W 3176  14.427   1.692   4.444 -0.2581  0.0264  0.1246
 1027W        W 3177   4.347   4.832  22.525  0.0765 -0.0003 -0.1928
 1028W        W 3178   1.184   7.663  10.040  0.0861  0.0186  0.2029
 1029W        W 3179   8.412   2.396  15.985 -0.0921 -0.2027 -0.0831
 1030W        W 3180   9.762   2.394  17.560  0.1903  0.0892 -0.0103
 1031W        W 3181  28.719   7.670   9.340 -0.0682  0.0463 -0.0026
 1032W        W 3182   9.628   2.875   5.037  0.3358 -0.0149  0.1911
 1033W        W 3183  17.959   0.059   1.863  0.1103 -0.0264  0.1130
 1034W        W 3184  10.667   3.266  25.328  0.0936 -0.0079  0.1714
 1035W        W 3185  21.771   2.063   1.752  0.4004 -0.2751  0.2698
 1036W        W 3186  18.392   0.966  10.070  0.0744 -0.0560 -0.1393
 1037W        W 3187  22.611   3.167  10.994 -0.1617  0.1073  0.2958
 1038W        W 3188  26.945   5.521   7.275 -0.0203  0.2026 -0.2661
 1039W        W 3189   9.630   0.927  10.087 -0.0004 -0.1363  0.0423
 1040W        W 3190  16.264   1.326   7.748  0.0616 -0.2887 -0.1276
 1041W        W 3191  17.219   3.197  21.388 -0.3380  0.1629 -0.0962
 1042W        W 3192  25.587   5.569   8.088  0.1095 -0.0868 -0.1684
 1043W        W 3193   3.652   6.393   2.649  0.3145 -0.3094 -0.0218
 1044W        W 3194  13.285   5.954  24.157 -0.1308 -0.1686  0.1214
 1045W        W 3195  18.293   0.173  21.681 -0.0376  0.1304 -0.0776
 1046W        W 3196   3.459   6.997  17.217  0.0149  0.1137  0.0211
 1047W        W 3197   4.648   2.973  23.957  0.0339 -0.0034 -0.2158
 1048W        W 3198  25.888   4.083   1.860 -0.5625  0.0455  0.0722
 1049W        W 3199  12.533   4.413   5.559  0.1974  0.5105 -0.1610
 1050W        W 3200  14.520   3.146  17.894  0.2996  0.0965  0.0702
 1051W        W 3201  16.897   2.274   3.954  0.1341 -0.1569 -0.0792
 1052W        W 3202  15.904   1.648  18.069  0.0922 -0.1648  0.1571
 1053W        W 3203  18.853   2.121   0.092 -0.0386 -0.2967 -0.0713
 1054W        W 3204  24.256   3.180  10.352  0.1100 -0.1378 -0.0183
 1055W        W 3205   9.020   3.390  21.274 -0.0443  0.2790 -0.0538
 1056W        W 3206  22.844   0.341  26.251 -0.1728 -0.2162  0.1931
 1057W        W 3207  28.646   5.885  21.297  0.0006  0.1042  0.0792
 1058W        W 3208  11.243   4.281   8.276  0.0189  0.2597 -0.1194
 1059W        W 3209  24.821   3.336  18.155  0.0550 -0.0379  0.3662
 1060W        W 3210  17.383   7.233  21.904  0.3589 -0.2105 -0.1728
 1061W        W 3211  11.134   2.513  20.708 -0.2169  0.2530 -0.0663
 1062W        W 3212  18.659   0.983  25.275  0.0328 -0.0166  0.1470
 1063W        W 3213  13.383   6.243  18.201  0.1125 -0.2275  0.2882
 1064W        W 3214  16.875   5.208  17.652 -0.0969  0.0075 -0.0791
 1065W        W 3215   1.974   0.862   4.338 -0.3003  0.1458 -0.0714
 1066W        W 3216   9.649   6.940  22.702 -0.2294  0.1093 -0.3043
 1067W        W 3217  28.504   2.508   6.728 -0.1569 -0.0698  0.0884
 1068W        W 3218  29.660   6.728   0.547 -0.0754  0.2702  0.2162
 1069W        W 3219  30.400   0.302   6.033  0.0949  0.0302 -0.0760
 1070W        W 3220  10.550   6.522  21.476  0.0057 -0.0053 -0.0240
 1071W        W 3221  14.545   6.773   6.354  0.0758  0.0447  0.0753
 1072W        W 3222   8.069   3.532  17.052 -0.0786  0.1648  0.0547
 1073W        W 3223   6.918   1.494  22.418 -0.0607  0.1275 -0.1152
 1074W        W 3224   6.754   6.915   8.098 -0.0185  0.2458 -0.1635
 1075W        W 3225  28.633   3.613   8.927  0.0131  0.1130 -0.0276
 1076W        W 3226  25.538   0.810  19.219 -0.0694  0.0201  0.1933
 1077W        W 3227  25.599   7.470  23.562 -0.1564 -0.2152 -0.0197
 1078W        W 3228   6.823   3.054   9.120 -0.3304 -0.1687 -0.0002
 1079W        W 3229  26.197   3.406   3.705 -0.2443 -0.1463  0.2350
 1080W        W 3230  26.664   3.020   7.988 -0.0685  0.4433 -0.1761
 1081W        W 3231  13.193   1.800   9.363 -0.1046 -0.2275 -0.3650
 1082W        W 3232   3.825   7.237  20.924  0.1182 -0.0833 -0.0358
 1083W        W 3233  26.734   3.594  19.907  0.2777  0.1556 -0.1696
 1084W        W 3234  16.334   3.429   2.167  0.0781  0.1040  0.2032
 1085W        W 3235   0.886   7.569  16.946  0.0805 -0.1375 -0.1845
 1086W        W 3236  14.027   4.908  23.073  0.0172 -0.0761 -0.2196
 1087W        W 3237  16.757   3.109   5.008 -0.0620  0.1056  0.0424
 1088W        W 3238   7.749   3.254   5.489 -0.0996  0.0106  0.0056
 1089W        W 3239  28.661   4.324   0.263 -0.0731 -0.0932 -0.1952
 1090W        W 3240  21.184   3.697   3.038 -0.3317  0.2313 -0.0992
 1091W        W 3241  21.454   3.228   1.606  0.2521  0.1529  0.1302
 1092W        W 3242  25.407   4.430   3.271  0.1385  0.1361 -0.2126
 1093W        W 3243  30.655   3.743  24.968 -0.0575 -0.2032 -0.4180
 1094W        W 3244  22.638   3.923   5.146  0.2254 -0.2502 -0.0284
 1095W        W 3245  21.019   6.324  22.348  0.1109  0.0150 -0.2496
 1096W        W 3246   9.761   0.514  21.601  0.1387  0.1608  0.0091
 1097W        W 3247  22.842   5.753  19.595 -0.1342 -0.0342 -0.0668
 1098W        W 3248  22.702   2.451  20.367  0.0457  0.1738  0.0017
 1099W        W 3249  15.906   0.314   1.011 -0.0872 -0.0219 -0.1336
 1100W        W 3250   3.220   0.590   5.118  0.0819  0.0842  0.0302
 1101W        W 3251   2.895   6.716  18.395 -0.0511 -0.0430  0.1519
 1102W        W 3252  19.166   1.885  18.924  0.2152  0.3423  0.1400
 1103W        W 3253  22.301   4.124   3.796 -0.1723 -0.1820  0.1563
 1104W        W 3254   0.560   0.635  21.158 -0.4155 -0.0503  0.0467
 1105W        W 3255  10.718   6.198  25.767  0.0446 -0.1527 -0.0541
 1106W        W 3256  19.945   2.456   3.583 -0.1150  0.0153  0.0892
 1107W        W 3257   7.196   3.588   4.848 -0.0602 -0.1097  0.0370
 1108W        W 3258  15.859   6.596  19.945  0.3475  0.1805 -0.1262
 1109W        W 3259  13.972   3.707   7.142  0.2233 -0.0982 -0.2045
 1110W        W 3260   1.545   4.436  20.851 -0.1744  0.0427 -0.0431
 1111W        W 3261  11.934   6.657  24.934  0.1981 -0.2458 -0.2385
 1112W        W 3262  20.536   2.255   8.774 -0.1625  0.1487  0.0587
 1113W        W 3263   0.145   3.614   4.540 -0.2075  0.0295 -0.1324
 1114W        W 3264  25.228   0.978  11.253 -0.2833 -0.0700  0.0119
 1115W        W 3265  18.739   3.675   1.719 -0.1463  0.1693  0.0687
 1116W        W 3266   5.499   4.151   6.169  0.1274 -0.4036 -0.1061
 1117W        W 3267  29.932   5.037  10.476  0.0696  0.2096  0.0186
 1118W        W 3268  15.157   0.484  23.489  0.1266 -0.2238  0.2675
 1119W        W 3269  17.136   0.158  20.388  0.0008 -0.1733  0.1056
 1120W        W 3270  15.676   7.384  19.378  0.2249  0.0999  0.0423
 1121W        W 3271  16.969   4.117   6.282  0.1663  0.0083  0.0183
 1122W        W 3272  26.183   7.019  19.077 -0.2044 -0.2822 -0.3292
 1123W        W 3273  26.782   5.312  18.879  0.2058  0.0667  0.1189
 1124W        W 3274  15.951   4.633   2.698  0.4814 -0.2519 -0.1074
 1125W        W 3275  14.526   4.847  24.872 -0.1641 -0.1351  0.1638
 1126W        W 3276  17.940   4.777  16.509  0.0088  0.0457  0.3547
 1127W        W 3277  17.774   2.481  10.260  0.2404  0.2368 -0.1160
 1128W        W 3278  26.006   7.353   5.260 -0.1468 -0.1319 -0.5123
 1129W        W 3279  14.818   4.830  26.001  0.1719 -0.2315 -0.2534
 1130W        W 3280   9.133   7.110  25.322 -0.1469  0.1651  0.0604
 1131W        W 3281  27.570   7.557  10.686 -0.0024 -0.1775  0.2017
 1132W        W 3282  16.756   2.711   0.078  0.0433  0.1329 -0.0162
 1133W        W 3283  23.396   2.033  19.340 -0.1735 -0.1719 -0.0836
 1134W        W 3284   9.029   4.926  22.454 -0.3521  0.1245 -0.0023
 1135W        W 3285  27.748   4.466   2.376  0.0133  0.3340 -0.1416
 1136W        W 3286  15.150   6.369  22.756  0.0356 -0.0865  0.2249
 1137W        W 3287  10.810   4.257   6.869 -0.2551 -0.0136 -0.1188
 1138W        W 3288  24.367   4.203   5.346 -0.0216 -0.2594  0.1950
 1139W        W 3289  21.157   5.173  15.541  0.1124  0.1324  0.1346
 1140W        W 3290  17.107   5.384  22.719  0.2850  0.1534 -0.0020
 1141W        W 3291  18.403   2.610  20.185  0.1131  0.3667  0.0155
 1142W        W 3292  11.009   7.330  19.241  0.3456 -0.0062 -0.0739
 1143W        W 3293  14.991   2.413  22.834  0.0208  0.4324  0.1058
 1144W        W 3294   4.174   1.414  18.715 -0.1263  0.0604  0.1440
 1145W        W 3295  14.844   7.315   1.320  0.1277  0.0117  0.2838
 1146W        W 3296  20.681   5.797   8.179  0.0714  0.0832 -0.1216
 1147W        W 3297   7.709   1.617  10.070  0.2821 -0.2578 -0.2659
 1148W        W 3298  21.023   6.043   7.789  0.1697 -0.0507 -0.0632
 1149W        W 3299  21.036   4.260   0.558 -0.2183  0.0871 -0.0780
 1150W        W 3300  14.055   2.648  16.932  0.1500  0.2677 -0.1015
 1151W        W 3301  10.725   3.320  19.389 -0.1305  0.0961 -0.0395
 1152W        W 3302  28.822   2.837   1.573  0.0875 -0.1018  0.2262
 1153W        W 3303   5.507   7.464   3.833 -0.2428 -0.3168  0.0743
 1154W        W 3304   3.170   3.536   1.598 -0.0911 -0.0727 -0.0924
 1155W        W 3305   0.856   3.259  15.345 -0.2197  0.0863  0.0787
 1156W        W 3306  16.556   6.374  15.950  0.0765 -0.1580 -0.1726
 1157W        W 3307  22.010   7.215  19.471  0.1599  0.1689 -0.1626
 1158W        W 3308  30.885   1.286   8.934  0.2061  0.0329 -0.3433
 1159W        W 3309  24.491   0.312  21.751  0.1013 -0.2124  0.1294
 1160W        W 3310  30.605   5.350   0.971  0.1603  0.0635 -0.2636
 1161W        W 3311  16.000   3.956  24.724  0.0874  0.0415  0.0929
 1162W        W 3312  21.721   5.836   1.731  0.2083  0.0324  0.0388
 1163W        W 3313  14.594   0.305   8.623  0.0055  0.0084  0.3849
 1164W        W 3314  19.356   3.342   5.222 -0.0524 -0.2276  0.0631
 1165W        W 3315   5.619   6.597   2.411  0.0393  0.0779 -0.0294
 1166W        W 3316  25.926   3.533   4.719 -0.2119 -0.1605  0.0809
 1167W        W 3317  16.979   5.207  22.132  0.6712 -0.0626  0.0644
 1168W        W 3318   0.221   3.609  20.936  0.2393  0.2917  0.2069
 1169W        W 3319   9.142   1.808  10.775 -0.5349 -0.2541 -0.0594
 1170W        W 3320   8.297   3.206  24.913  0.0713  0.2549 -0.0951
 1171W        W 3321   5.264   2.139  24.893 -0.0383  0.1363 -0.3332
 1172W        W 3322   1.352   3.226   6.111 -0.2062 -0.1378 -0.2829
 1173W        W 3323  28.117   6.837   8.126  0.2607  0.1979 -0.3859
 1174W        W 3324  30.708   7.603  10.537  0.0673  0.0812 -0.2129
 1175W        W 3325  15.698   4.742  20.353  0.2157  0.0982  0.1222
 1176W        W 3326   1.154   2.583  15.487 -0.2613  0.0546 -0.2002
 1177W        W 3327   4.725   2.203   6.637 -0.3349  0.1089  0.2890
 1178W        W 3328   3.445   2.975  23.255 -0.1865  0.0883 -0.0481
 1179W        W 3329  11.270   6.879   9.402  0.1791  0.2275 -0.0303
 1180W        W 3330  11.502   7.029  16.361  0.0927 -0.2328 -0.0586
 1181W        W 3331  15.907   3.652  18.171  0.2618 -0.0118  0.0231
 1182W        W 3332  13.532   2.940  26.253 -0.0297  0.0091  0.0640
 1183W        W 3333  27.290   7.340  18.610  0.1917  0.1428  0.1065
 1184W        W 3334  18.229   5.008   8.818 -0.1508 -0.1947 -0.0390
 1185W        W 3335  26.807   4.117   0.576 -0.0339 -0.2947 -0.3057
 1186W        W 3336  24.329   5.297  20.712 -0.3792  0.1292 -0.1334
 1187W        W 3337  30.089   5.940  15.507  0.1252 -0.2118  0.0826
 1188W        W 3338   6.254   3.235   4.254  0.4029 -0.2534 -0.2114
 1189W        W 3339  13.829   2.196   0.232 -0.0425  0.2580  0.0302
 1190W        W 3340  22.018   5.398  20.622  0.0963 -0.0543  0.0166
 1191W        W 3341  25.296   2.210  18.167  0.0844 -0.2125  0.0927
 1192W        W 3342   1.897   2.321   5.299 -0.3578  0.0660  0.2034
 1193W        W 3343   8.864   0.913  22.699  0.1574  0.0632  0.1236
 1194W        W 3344  28.360   5.228   7.226  0.0536  0.0516 -0.1001
 1195W        W 3345  17.573   0.094  19.104  0.3062 -0.0380  0.0865
 1196W        W 3346  12.119   2.736   3.756 -0.2730  0.1304  0.1418
 1197W        W 3347  20.520   2.863  25.783  0.1010  0.2689 -0.3741
 1198W        W 3348  12.093   2.402  21.500 -0.1219 -0.2004  0.1393
 1199W        W 3349   0.855   5.798   4.325  0.2541 -0.0981  0.1256
 1200W        W 3350   2.881   1.567   7.222 -0.0916  0.2104 -0.2652
 1201W        W 3351   6.888   3.119   5.614 -0.0148 -0.0431  0.2947
 1202W        W 3352   2.954   2.234   5.090  0.2949  0.0243 -0.0267
 1203W        W 3353  16.586   0.237  18.807 -0.1162 -0.1698 -0.3013
 1204W        W 3354  10.299   7.164  23.868  0.0447  0.0232  0.2558
 1205W        W 3355   5.747   6.760  20.021  0.3185  0.0585  0.0489
 1206W        W 3356  28.520   3.081   7.930  0.1282 -0.0725  0.3232
 1207W        W 3357  27.926   1.532  25.235 -0.1206 -0.0035 -0.0058
 1208W        W 3358  20.836   5.331  10.556 -0.2444  0.1503  0.4942
 1209W        W 3359  25.667   2.413  21.255 -0.1621  0.2120  0.4206
 1210W        W 3360   9.223   3.067  15.752 -0.2511 -0.0378  0.1118
 1211W        W 3361  24.595   6.703  24.049  0.1080 -0.0532  0.0938
 1212W        W 3362  26.334   1.735  18.008 -0.1421  0.0707  0.3451
 1213W        W 3363  30.782   3.368   8.247  0.0714 -0.0907  0.0671
 1214W        W 3364  27.124   1.834  20.903 -0.0112 -0.1678 -0.0463
 1215W        W 3365  18.890   0.535  20.920  0.0633 -0.2197  0.0524
 1216W        W 3366   6.752   6.808   8.988  0.0877  0.2449 -0.0112
 1217W        W 3367   9.327   6.949   1.623  0.3249  0.0990  0.0383
 1218W        W 3368  19.917   6.028   2.235  0.0617 -0.0689  0.1967
 1219W        W 3369  30.518   2.856  20.381  0.2128 -0.1697  0.0259
 1220W        W 3370  16.020   1.919   1.007  0.0356 -0.3834  0.0470
 1221W        W 3371  28.902   4.415  23.609  0.0513  0.0578 -0.2186
 1222W        W 3372  20.805   4.154   4.735 -0.3645 -0.1091 -0.0917
 1223W        W 3373   1.517   1.188  16.935 -0.4175  0.1075  0.1775
 1224W        W 3374   7.726   2.400   6.645  0.1742 -0.3678 -0.0092
 1225W        W 3375  15.899   4.983  18.472  0.1786  0.1004  0.0479
 1226W        W 3376  21.464   3.319   6.594 -0.0290 -0.2408 -0.0627
 1227W        W 3377   2.965   1.455  20.179  0.0614  0.0861  0.2949
 1228W        W 3378   3.751   1.686  10.598  0.3354 -0.0494  0.1211
 1229W        W 3379  25.627   5.683   6.315 -0.0271  0.2087 -0.0989
 1230W        W 3380  30.552   0.223   4.185  0.2964  0.0491  0.2113
 1231W        W 3381  14.834   5.203   8.699  0.0022 -0.0966  0.2195
 1232W        W 3382   0.610   3.417  10.170 -0.0641 -0.0487  0.2786
 1233W        W 3383  22.813   4.629   6.566  0.1307 -0.3412 -0.1730
 1234W        W 3384  15.584   0.621  25.522  0.3561  0.1460  0.2545
 1235W        W 3385   8.655   3.325  20.269  0.1595  0.0014  0.0286
 1236W        W 3386  11.131   5.671   7.012  0.0573  0.0892 -0.1220
 1237W        W 3387   8.825   5.937   2.730  0.1234  0.1146  0.0914
 1238W        W 3388   4.151   6.486   2.544  0.1139 -0.1331  0.2597
 1239W        W 3389   1.788   7.469  21.125  0.0709 -0.1275 -0.0614
 1240W        W 3390  28.949   3.818   2.440 -0.1168 -0.0999  0.1026
 1241W        W 3391   3.441   3.963   2.038  0.1183  0.0238 -0.0001
 1242W        W 3392  23.007   4.500   4.758  0.1922  0.0336 -0.0464
 1243W        W 3393  31.095   1.962  23.835  0.0975 -0.0120 -0.1324
 1244W        W 3394  14.804   4.380   3.660 -0.0307  0.0182  0.0578
 1245W        W 3395   2.122   3.618  17.066  0.1917 -0.0544 -0.3945
 1246W        W 3396  21.541   6.691   9.757 -0.0983  0.1755  0.0330
 1247W        W 3397  28.407   6.986   3.320  0.2205 -0.0624  0.1989
 1248W        W 3398  28.246   6.582   4.920 -0.1786 -0.0141 -0.1468
 1249W        W 3399  29.882   2.753   6.953 -0.0448 -0.0625 -0.0422
 1250W        W 3400  27.922   0.769   8.564 -0.1845 -0.1347 -0.2048
 1251W        W 3401  17.409   6.839  16.074 -0.2730 -0.3457 -0.0648
 1252W        W 3402  19.277   2.224  16.134  0.1175  0.0773 -0.1948
 1253W        W 3403  13.169   0.913   9.367 -0.1909  0.3534  0.1225
 1254W        W 3404   4.703   6.661   5.333 -0.5477 -0.1554 -0.2664
 1255W        W 3405  21.261   5.708  18.661 -0.2875  0.0852 -0.3242
 1256W        W 3406  24.283   7.260   3.615  0.0374  0.3851 -0.0865
 1257W        W 3407  19.577   3.366   8.519  0.3863 -0.0056  0.2942
 1258W        W 3408  13.403   4.822  21.405 -0.0749 -0.2816  0.0982
 1259W        W 3409  13.007   5.370   8.032 -0.3332 -0.0873 -0.0669
 1260W        W 3410   7.109   4.785   0.165 -0.1132  0.1425  0.1499
 1261W        W 3411   5.177   6.230  15.768 -0.0494 -0.0780  0.0158
 1262W        W 3412   5.227   1.183  15.082  0.0629  0.0971  0.2305
 1263W        W 3413  25.578   6.817  26.273 -0.0812 -0.0049 -0.0053
 1264W        W 3414  29.257   7.499  10.499 -0.1278  0.0676  0.1198
 1265W        W 3415  28.945   5.624  22.087 -0.0442  0.1887  0.2186
 1266W        W 3416  16.605   5.357  22.476 -0.0462  0.0709 -0.0156
 1267W        W 3417   0.145   0.920  21.065  0.0301  0.3222 -0.0135
 1268W        W 3418  15.391   3.555  22.200 -0.0131 -0.0109  0.3163
 1269W        W 3419   2.263   6.099   5.245  0.0263  0.1935 -0.0765
 1270W        W 3420  14.077   4.069  24.774 -0.1977  0.1282  0.1581
 1271W        W 3421  14.526   3.607  16.012  0.1683 -0.0552  0.0881
 1272W        W 3422  13.030   3.165  19.258 -0.0490  0.1871 -0.2320
 1273W        W 3423  29.801   3.339   3.099  0.1357 -0.0955  0.0240
 1274W        W 3424  29.324   1.404  17.705  0.0316 -0.3229  0.0650
 1275W        W 3425  28.535   7.008  26.205  0.2240  0.2625  0.0744
 1276W        W 3426   1.306   6.309  24.004 -0.2936  0.1565  0.0539
 1277W        W 3427  21.281   5.036  25.221  0.1934 -0.1011 -0.0960
 1278W        W 3428  16.861   2.805   7.347 -0.0822  0.1355 -0.0146
 1279W        W 3429   8.566   1.315  23.933  0.1603  0.0355  0.2223
 1280W        W 3430  23.778   7.437  10.187  0.1941 -0.0599  0.1560
 1281W        W 3431   0.501   4.747   1.634 -0.4338 -0.3525  0.1489
 1282W        W 3432  24.216   5.052  17.109  0.0008 -0.1129  0.2066
 1283W        W 3433   6.887   5.816   7.916  0.0031  0.0422  0.0389
 1284W        W 3434  19.295   5.921  25.037 -0.1172 -0.2165  0.1909
 1285W        W 3435  27.277   1.436   1.231  0.0571  0.3643 -0.1092
 1286W        W 3436  23.885   3.572  16.071  0.0717 -0.0735  0.1425
 1287W        W 3437   5.822   2.752   2.400  0.0631 -0.0655 -0.0884
 1288W        W 3438  14.506   5.580   7.445  0.1858  0.2430 -0.2041
 1289W        W 3439  12.476   2.411  26.197  0.0732 -0.0300 -0.3783
 1290W        W 3440  12.778   1.898   0.449 -0.1472 -0.0611  0.1668
 1291W        W 3441  31.010   4.299  19.546  0.2442  0.1066  0.0294
 1292W        W 3442  30.970   5.206  17.452 -0.1225 -0.0697  0.0807
 1293W        W 3443   3.616   4.598   6.554  0.0855 -0.0521 -0.1804
 1294W        W 3444   2.569   1.411  22.118 -0.1404 -0.1943 -0.3646
 1295W        W 3445   5.664   6.139  21.313 -0.0332 -0.1876 -0.0113
 1296W        W 3446  17.821   6.890   5.465  0.1013 -0.0544  0.1706
 1297W        W 3447  11.489   0.107   2.723  0.2835  0.1987  0.0887
 1298W        W 3448   3.909   4.351  21.052  0.1684  0.2132  0.2466
 1299W        W 3449   3.339   4.472   7.316 -0.0386  0.1133  0.1614
 1300W        W 3450   1.873   1.425  20.845 -0.2444 -0.1202 -0.0539
 1301W        W 3451   1.716   7.001   6.267 -0.0464 -0.0170 -0.2068
 1302W        W 3452  24.834   7.052  16.727  0.0673  0.0390  0.1258
 1303W        W 3453   4.363   2.424  26.168  0.0195  0.0426 -0.0861
 1304W        W 3454  21.346   5.521   4.107  0.0880 -0.1304 -0.0562
 1305W        W 3455  18.881   3.507   8.945  0.0289  0.0163  0.1037
 1306W        W 3456   2.514   6.934  18.664  0.3399 -0.1799 -0.2060
 1307W        W 3457   0.873   3.225  16.040  0.1603  0.2753 -0.2828
 1308W        W 3458   5.562   0.067  15.641 -0.1729  0.1796 -0.2931
 1309W        W 3459  16.555   3.838   4.879  0.3157 -0.3793 -0.0128
 1310W        W 3460  25.448   3.096  21.631  0.0306  0.0617 -0.0891
 1311W        W 3461  19.255   2.317  18.679  0.0778 -0.1647  0.0730
 1312W        W 3462   7.607   4.752  22.633  0.0146  0.4705 -0.0728
 1313W        W 3463  16.368   7.297   8.387 -0.0216 -0.0997 -0.4464
 1314W        W 3464  26.748   7.175   1.833  0.4557 -0.1424  0.0394
 1315W        W 3465  23.507   6.212  16.149 -0.0764 -0.1295 -0.0816
 1316W        W 3466  12.206   6.848   6.509 -0.0430 -0.1606 -0.2105
 1317W        W 3467  25.841   3.594  20.130 -0.0466 -0.0840 -0.2850
 1318W        W 3468  27.350   6.982   7.699 -0.1016 -0.1121 -0.0358
 1319W        W 3469   1.460   7.328   7.442 -0.5245  0.0328  0.0264
 1320W        W 3470  25.330   0.748   8.735 -0.0231 -0.0001  0.0127
 1321W        W 3471  28.986   2.422   7.970 -0.0285  0.2952 -0.0897
 1322W        W 3472   0.267   6.381  22.477 -0.2170 -0.1273 -0.0673
 1323W        W 3473   0.374   6.774  19.734 -0.1441  0.1323 -0.0495
 1324W        W 3474   2.404   2.772   0.127 -0.1231  0.3015 -0.2988
 1325W        W 3475   9.155   0.617   5.421 -0.2339  0.0308  0.1357
 1326W        W 3476  15.004   5.246   3.578  0.0119  0.1839 -0.1699
 1327W        W 3477  12.176   3.367   2.819  0.2206  0.4147  0.0866
 1328W        W 3478  23.893   5.721  10.997  0.0681 -0.0271  0.0271
 1329W        W 3479  13.725   6.357   2.362  0.0441  0.0064 -0.0544
 1330W        W 3480  30.410   1.785  25.739 -0.2756  0.2009  0.2483
 1331W        W 3481   7.908   6.017  22.414 -0.1755 -0.0773 -0.3367
 1332W        W 3482   5.459   6.099  20.060  0.2887  0.3126  0.0038
 1333W        W 3483  11.759   1.078  16.386 -0.1233 -0.1422  0.1519
 1334W        W 3484  21.943   0.518  26.285 -0.2252  0.0213 -0.1649
 1335W        W 3485  12.655   7.388  18.655  0.0356 -0.2185  0.0683
 1336W        W 3486  28.589   5.954  20.771  0.0399 -0.1347  0.0274
 1337W        W 3487  11.672   2.846   9.827 -0.1496 -0.4563 -0.1924
 1338W        W 3488  30.052   7.447   5.531 -0.4125 -0.1690  0.0412
 1339W        W 3489  26.236   3.031   4.047 -0.0173  0.4270  0.1539
 1340W        W 3490  12.401   3.830  19.311  0.2171  0.1547 -0.1987
 1341W        W 3491  26.146   4.356  10.342  0.1011  0.0491  0.0056
 1342W        W 3492   7.462   7.537   7.950  0.0891 -0.0901 -0.0399
 1343W        W 3493  15.756   7.609  18.886  0.1387 -0.3062 -0.0281
 1344W        W 3494  16.013   4.938  24.789  0.0728  0.2394  0.0553
 1345W        W 3495  11.313   0.007   3.987 -0.2296  0.5423 -0.1453
 1346W        W 3496  18.675   0.169  16.179  0.1990  0.0438  0.1507
 1347W        W 3497  10.394   3.909  23.670  0.1566 -0.0996 -0.0336
 1348W        W 3498  17.935   4.190  21.275  0.2955  0.2845  0.1199
 1349W        W 3499  31.004   6.753  24.209 -0.3107  0.0136 -0.0988
 1350W        W 3500  15.832   1.903   8.456  0.0411  0.0879 -0.0904
 1351W        W 3501  11.114   3.985   1.461 -0.0292  0.0889  0.0230
 1352W        W 3502  23.299   5.552   1.681  0.2199  0.0578 -0.1356
 1353W        W 3503  25.731   1.660  24.047 -0.1126  0.0182 -0.0766
 1354W        W 3504  16.558   0.166   4.481 -0.0046  0.1477 -0.3433
 1355W        W 3505  27.246   3.187  24.735 -0.2704  0.0008  0.1197
 1356W        W 3506  28.723   1.342   6.508 -0.0340 -0.1225  0.0012
 1357W        W 3507  10.435   6.282  25.332 -0.1870 -0.1523 -0.2363
 1358W        W 3508   3.323   3.734  10.181  0.1812  0.0095  0.1100
 1359W        W 3509  23.081   0.028   1.619 -0.1224  0.5498  0.0167
 1360W        W 3510   4.363   6.284   1.598 -0.1493  0.0626 -0.0001
 1361W        W 3511  25.345   4.219  23.788 -0.2685 -0.1912 -0.0086
 1362W        W 3512  26.602   3.791   8.496  0.0291 -0.0366 -0.1432
 1363W        W 3513   6.294   0.809  10.530  0.0743  0.1467 -0.4034
 1364W        W 3514   5.315   3.632   8.309 -0.1710 -0.0070 -0.2067
 1365W        W 3515  22.305   2.657  17.485 -0.3257 -0.2621  0.2169
 1366W        W 3516  28.592   4.813   7.493  0.3314  0.0587 -0.0294
 1367W        W 3517   9.357   7.616   2.807  0.0080 -0.1700 -0.3400
 1368W        W 3518   2.461   1.416   0.137  0.1384 -0.0614  0.0554
 1369W        W 3519  11.655   5.864  24.418  0.0452 -0.0604  0.0341
 1370W        W 3520  20.612   0.728   0.566  0.2175 -0.2398  0.1093
 1371W        W 3521  15.218   3.871  21.272  0.0903  0.1184  0.1009
 1372W        W 3522  22.363   4.823  21.043 -0.1256  0.1616  0.0966
 1373W        W 3523  16.779   1.732  17.998 -0.1345 -0.1160 -0.1011
 1374W        W 3524  29.684   5.257  21.430  0.4244 -0.1737 -0.0452
 1375W        W 3525   9.307   5.952   5.935  0.3007 -0.2326 -0.2284
 1376W        W 3526  14.649   4.116   8.994  0.2311  0.2352  0.2457
 1377W        W 3527  17.749   4.619  21.443 -0.0969  0.0029 -0.1420
 1378W        W 3528   8.714   5.852  25.018  0.2273  0.0419 -0.2277
 1379W        W 3529   5.787   4.771  20.723  0.2327 -0.1944  0.1632
 1380W        W 3530  13.735   5.782  18.482  0.1329  0.0858  0.0034
 1381W        W 3531   6.604   0.087   5.493  0.0896 -0.0450 -0.3212
 1382W        W 3532   3.412   5.647   8.716  0.1426  0.0510  0.0866
 1383W        W 3533  25.360   2.375  10.940  0.1498 -0.1117  0.1203
 1384W        W 3534  28.881   2.018   2.875 -0.1104  0.1586 -0.1111
 1385W        W 3535  12.689   2.578   1.796 -0.1011  0.1727  0.0543
 1386W        W 3536  22.527   3.928  17.798 -0.0671 -0.1492  0.0877
 1387W        W 3537  28.248   6.700   6.610 -0.1863  0.1489  0.0981
 1388W        W 3538   6.741   4.419   0.077  0.0830 -0.1525  0.4171
 1389W        W 3539  11.644   3.305   6.924  0.0803 -0.1852  0.3006
 1390W        W 3540   8.295   5.533  15.887  0.1316 -0.1731 -0.0610
 1391W        W 3541   7.189   0.940  18.803 -0.1883 -0.0405  0.2216
 1392W        W 3542   4.138   5.479   2.108 -0.0731 -0.0870  0.2178
 1393W        W 3543  20.965   7.050  11.289  0.1098 -0.3203 -0.1084
 1394W        W 3544  22.346   5.804   2.976 -0.3019 -0.0820  0.2633
 1395W        W 3545   6.981   4.765  25.597  0.1892  0.3346  0.0685
 1396W        W 3546  22.476   7.625   4.409  0.0782 -0.1539  0.2179
 1397W        W 3547  21.022   5.133   3.474 -0.0335  0.4106  0.0430
 1398W        W 3548  25.192   5.243  15.475  0.2950  0.0742  0.1077
 1399W        W 3549  11.710   4.298   6.724 -0.0607  0.1517 -0.1835
 1400W        W 3550   3.876   0.818   7.983  0.0232 -0.2644  0.3505
 1401W        W 3551  30.850   5.115   4.519 -0.0181  0.0129  0.0102
 1402W        W 3552  25.645   4.878  22.485  0.0503  0.0839 -0.1086
 1403W        W 3553  16.960   7.094  23.673  0.4589 -0.2251  0.0519
 1404W        W 3554  12.581   5.834  22.716  0.0325  0.0366 -0.0380
 1405W        W 3555  24.338   5.021  23.819  0.0858  0.0248  0.1496
 1406W        W 3556  17.806   1.124   8.433  0.3449 -0.3269  0.1063
 1407W        W 3557   5.448   0.070  18.020 -0.2129  0.0998 -0.0186
 1408W        W 3558   4.180   2.648  15.349 -0.2569  0.0173 -0.0328
 1409W        W 3559  13.112   5.809  18.050  0.1500 -0.0206  0.1377
 1410W        W 3560   7.403   5.293  20.812 -0.0278 -0.0700  0.0444
 1411W        W 3561  25.843   0.886  20.646  0.3003  0.0482 -0.0940
 1412W        W 3562   7.450   2.630   2.372  0.0654  0.2180  0.2265
 1413W        W 3563   2.090   4.470   2.224  0.2690  0.0676  0.3275
 1414W        W 3564   3.486   7.171  18.766 -0.2083 -0.0008 -0.0488
 1415W        W 3565   0.330   1.568   1.414  0.0112  0.3013 -0.1031
 1416W        W 3566  13.507   7.724  25.645  0.1414  0.0290  0.0911
 1417W        W 3567  28.588   7.426   1.482 -0.0625  0.2758 -0.1166
 1418W        W 3568   0.430   3.687  10.700 -0.2554  0.2561 -0.0710
 1419W        W 3569  25.186   5.309  25.875 -0.1912  0.2103 -0.1128
 1420W        W 3570  10.195   0.657  16.668  0.1157 -0.1626  0.0174
 1421W        W 3571  10.922   4.840   7.694 -0.0891  0.0245 -0.3470
 1422W        W 3572   8.800   6.344  17.533 -0.0117 -0.1877  0.2544
 1423W        W 3573  12.987   3.021  15.148 -0.2735 -0.0066  0.0624
 1424W        W 3574  23.644   4.183  19.399  0.0970  0.0062  0.2002
 1425W        W 3575   6.281   6.309   1.444  0.0229  0.0063  0.1655
 1426W        W 3576  16.248   0.130   4.965  0.0841  0.0660 -0.4100
 1427W        W 3577  23.094   4.215   9.231  0.0119 -0.2175 -0.1495
 1428W        W 3578  17.561   1.762  24.325 -0.3373  0.1188 -0.0984
 1429W        W 3579  15.975   2.663  19.311 -0.0112 -0.0843 -0.2659
 1430W        W 3580  17.263   4.136  20.617  0.2675 -0.1798  0.2188
 1431W        W 3581  29.471   2.250  20.371 -0.1981 -0.1206 -0.0913
 1432W        W 3582  30.528   2.811  19.697  0.0323 -0.4113  0.0975
 1433W        W 3583  27.476   2.436  20.435  0.0081  0.1974 -0.1321
 1434W        W 3584   5.429   7.389   7.921 -0.1582 -0.0375  0.0955
 1435W        W 3585  27.033   1.955  16.568 -0.0598  0.2942  0.1483
 1436W        W 3586  17.296   1.546   0.546  0.3151  0.0500  0.0468
 1437W        W 3587  21.717   5.728  25.224  0.1717 -0.2308  0.1086
 1438W        W 3588  21.879   4.488   2.130 -0.0076  0.0074  0.1083
 1439W        W 3589  20.467   5.722  23.899 -0.2137 -0.0288  0.1280
 1440W        W 3590  23.811   2.231  25.270  0.2045 -0.2863  0.2247
 1441W        W 3591  11.716   6.927  19.865 -0.0061 -0.1327  0.1388
 1442W        W 3592  25.611   2.450  23.748 -0.0553 -0.1911 -0.1363
 1443W        W 3593  13.303   0.699  24.551 -0.1411  0.1142 -0.1308
 1444W        W 3594   2.316   6.700  10.881  0.1603  0.1170  0.1677
 1445W        W 3595  29.684   3.222   6.419  0.0127  0.0226  0.1697
 1446W        W 3596   9.748   1.554   2.935  0.2492 -0.0289 -0.2911
 1447W        W 3597  14.977   6.719   2.837  0.1409 -0.0348  0.2086
 1448W        W 3598  15.785   4.767  10.014 -0.1718  0.1738 -0.1101
 1449W        W 3599   9.366   2.039  22.028 -0.1585 -0.1859  0.0127
 1450W        W 3600   2.627   1.886  19.341  0.0428 -0.0501 -0.2534
 1451W        W 3601  25.680   1.456   7.000  0.1101  0.0925 -0.1092
 1452W        W 3602  16.688   1.029  24.227  0.2875  0.0415 -0.1845
 1453W        W 3603  10.612   7.053   9.241 -0.0027 -0.0515  0.2647
 1454W        W 3604   8.474   7.451   3.169 -0.2643 -0.1997 -0.3337
 1455W        W 3605  21.390   6.254   9.574 -0.0658  0.2858  0.0646
 1456W        W 3606   5.693   4.628   7.433 -0.1485  0.0611  0.0173
 1457W        W 3607  27.547   6.094  20.861  0.0531 -0.0950  0.0873
 1458W        W 3608  27.223   2.644   7.611 -0.0269 -0.2150 -0.0820
 1459W        W 3609  19.010   1.259  21.398 -0.4016  0.1650  0.0783
 1460W        W 3610  26.294   7.211   1.219 -0.0192 -0.4267 -0.1502
 1461W        W 3611   7.904   7.261   5.704 -0.0705  0.0621 -0.0414
 1462W        W 3612   2.298   4.714   9.497 -0.3248 -0.4213 -0.3962
 1463W        W 3613   9.086   2.683  21.825  0.1848  0.4585  0.0158
 1464W        W 3614   9.494   3.004   7.849  0.2040 -0.1832 -0.0226
 1465W        W 3615   4.679   4.869  23.513  0.1321 -0.0571  0.0165
 1466W        W 3616  29.687   2.534   3.798  0.0852  0.1353  0.0767
 1467W        W 3617  16.637   1.664  18.536  0.0004 -0.2374 -0.0003
 1468W        W 3618   9.287   1.086   7.517  0.2351 -0.1470  0.1708
 1469W        W 3619  28.435   0.164  15.758  0.0126 -0.2902  0.0867
 1470W        W 3620  26.653   6.630  23.964  0.3665  0.1028 -0.1109
 1471W        W 3621  25.101   2.244   7.955 -0.1034 -0.3254  0.0227
 1472W        W 3622  25.134   7.634  10.470 -0.4459  0.1635 -0.0934
 1473W        W 3623   4.370   1.393  20.261  0.2424 -0.3088  0.0304
 1474W        W 3624   9.829   1.042  15.280 -0.1928  0.1685 -0.0006
 1475W        W 3625  21.541   0.945  16.298  0.1415  0.0808  0.1415
 1476W        W 3626  13.082   0.641  23.627  0.0735  0.3282 -0.3638
 1477W        W 3627   6.054   2.563  10.013 -0.0714 -0.1624  0.0628
 1478W        W 3628  24.953   4.612  21.668 -0.1961 -0.3951  0.0827
 1479W        W 3629   1.362   5.983  11.227  0.0162  0.0982 -0.1606
 1480W        W 3630   8.127   0.659  17.945 -0.0738 -0.1094  0.2017
 1481W        W 3631  21.791   7.791  23.649  0.3100  0.1095  0.2801
 1482W        W 3632   9.939   5.609   6.064  0.2921 -0.0280 -0.1142
 1483W        W 3633  17.905   1.331   2.504 -0.3925 -0.2493  0.0210
 1484W        W 3634   8.856   0.870   0.214  0.0443 -0.0417  0.3212
 1485W        W 3635   0.150   6.903   0.686  0.2210  0.0263  0.1779
 1486W        W 3636  10.242   0.521   9.887 -0.2094 -0.0667  0.0520
 1487W        W 3637  13.142   0.957   9.957  0.3219  0.0845  0.1350
 1488W        W 3638   5.718   3.006   7.628 -0.1125 -0.1914 -0.1960
 1489W        W 3639   1.287   6.749   8.137 -0.0500  0.2226  0.0180
 1490W        W 3640   8.458   2.487   9.095  0.0682 -0.0847  0.1778
 1491W        W 3641  14.358   3.736   4.245  0.2225  0.0682  0.2057
 1492W        W 3642   3.344   0.419   1.741 -0.2429  0.1998 -0.3719
 1493W        W 3643  23.711   7.649  23.228  0.0711 -0.1143 -0.0738
 1494W        W 3644   5.973   0.572  19.109 -0.0783 -0.0936 -0.0099
 1495W        W 3645  26.445   0.702  20.000  0.0980  0.0935 -0.1212
 1496W        W 3646  31.082   3.829   0.263  0.1767 -0.1566  0.1241
 1497W        W 3647  21.239   1.223  23.824 -0.2015 -0.0354  0.1278
 1498W        W 3648  20.470   7.497  24.161  0.0552  0.1049 -0.0678
 1499W        W 3649  18.799   1.277  23.514  0.1457  0.3305 -0.0280
 1500W        W 3650  17.442   6.084   9.833  0.1710 -0.4344  0.1075
 1501W        W 3651  26.328   7.213  21.890 -0.0498  0.2064 -0.0259
 1502W        W 3652   8.000   1.316  10.376  0.4047  0.0159  0.1015
 1503W        W 3653  21.499   1.061  16.893 -0.0990 -0.1927 -0.0445
 1504W        W 3654  20.618   3.701   4.646  0.0671 -0.2080 -0.3322
 1505W        W 3655  10.706   3.511   2.394  0.0859 -0.0809  0.0737
 1506W        W 3656   5.314   1.228   4.487 -0.0998  0.1643 -0.2036
 1507W        W 3657  17.161   7.309   4.393 -0.1192  0.3149  0.0050
 1508W        W 3658  20.234   6.300   8.826 -0.0111  0.1494 -0.1026
 1509W        W 3659   3.008   1.968   8.579 -0.0777 -0.2213  0.0493
 1510W        W 3660   4.026   3.356   9.563 -0.1047 -0.0301 -0.1437
 1511W        W 3661  11.417   1.374  21.639  0.2470  0.0311  0.1408
 1512W        W 3662  21.879   4.443  25.267  0.0751 -0.1767 -0.2208
 1513W        W 3663   7.568   6.277  14.997  0.2464 -0.1928 -0.2910
 1514W        W 3664  28.186   4.874  19.742 -0.0124  0.2300  0.0859
 1515W        W 3665  30.678   1.456  26.010 -0.3550  0.1800  0.0303
 1516W        W 3666   1.475   2.731  17.325 -0.0648 -0.0958 -0.2570
 1517W        W 3667   1.461   3.074   9.493 -0.0267 -0.0001 -0.0890
 1518W        W 3668   1.905   5.197  11.172  0.1284 -0.0487 -0.0320
 1519W        W 3669  27.823   4.796  20.685  0.0988  0.0693  0.0061
 1520W        W 3670   9.155   4.545   0.764 -0.2169 -0.0102  0.1858
 1521W        W 3671  16.933   0.687   8.387 -0.0788 -0.1271 -0.0933
 1522W        W 3672   0.075   5.561  17.235 -0.2872 -0.0158  0.0247
 1523W        W 3673  28.209   2.477  17.054  0.1511 -0.0289 -0.0881
 1524W        W 3674   2.542   0.028  18.311 -0.1243 -0.2601 -0.1415
 1525W        W 3675  21.302   2.824   1.932  0.0708  0.1323  0.1855
 1526W        W 3676  20.792   3.856  25.595  0.1144 -0.0373 -0.0551
 1527W        W 3677   6.839   1.478   9.467 -0.2395  0.1292 -0.0672
 1528W        W 3678   8.393   6.813   7.569  0.0001 -0.1673  0.1089
 1529W        W 3679   8.196   2.489  17.765  0.1844  0.0299 -0.1171
 1530W        W 3680  10.927   6.265  22.320  0.1306 -0.2721 -0.1822
 1531W        W 3681  17.508   4.502  17.897  0.2563 -0.2833 -0.0570
 1532W        W 3682  15.295   1.206  19.724 -0.0830  0.0421  0.0775
 1533W        W 3683   5.620   3.067   8.312  0.0649 -0.1624 -0.2271
 1534W        W 3684   6.983   5.416  22.249  0.0812  0.0316 -0.3521
 1535W        W 3685  19.734   1.020  17.721 -0.1727 -0.1735  0.1636
 1536W        W 3686   4.801   7.697  25.753 -0.0859 -0.2337 -0.0413
 1537W        W 3687   2.452   7.046  23.733 -0.1715  0.1198 -0.2247
 1538W        W 3688  17.954   2.761   7.636 -0.0772  0.0720 -0.2610
 1539W        W 3689  25.943   6.202  15.647  0.0899 -0.3247  0.1767
 1540W        W 3690  11.322   5.477  25.994 -0.1973  0.1345  0.2946
 1541W        W 3691  10.600   6.075  10.474  0.0480 -0.0679  0.0542
 1542W        W 3692  23.592   3.786  15.200 -0.0072  0.1737 -0.0001
 1543W        W 3693  18.760   1.606  21.176  0.3357  0.1300  0.0414
 1544W        W 3694  15.134   1.037   1.091  0.0571  0.1121 -0.2289
 1545W        W 3695   0.421   1.518  26.304 -0.0784 -0.3908  0.0184
 1546W        W 3696  15.825   4.557   6.414  0.1078  0.1700  0.0503
 1547W        W 3697  18.623   1.384   4.621  0.0474  0.0405  0.1609
 1548W        W 3698   9.755   3.227   5.400 -0.0241 -0.0651 -0.0046
 1549W        W 3699  14.419   3.321   2.745 -0.2088 -0.1480  0.0853
 1550W        W 3700  25.866   3.378  16.164  0.1529  0.1320  0.2487
 1551W        W 3701   0.970   4.118  21.792  0.2638 -0.2855 -0.1674
 1552W        W 3702   4.373   5.819   1.776  0.4588  0.0348  0.0405
 1553W        W 3703  13.209   6.700  17.844  0.1946 -0.0101 -0.1956
 1554W        W 3704  30.897   0.396  24.443  0.1844 -0.0857  0.0365
 1555W        W 3705  29.278   7.703   4.352 -0.0925 -0.1021 -0.1506
 1556W        W 3706  24.289   6.540   2.313  0.1398 -0.1588 -0.1756
 1557W        W 3707  26.771   1.470  20.777 -0.0939  0.1921  0.3720
 1558W        W 3708   0.595   4.237  10.724 -0.1079 -0.0847  0.1239
 1559W        W 3709  14.694   6.512  16.482 -0.2056  0.0310  0.2823
 1560W        W 3710  14.405   1.885  22.706 -0.3057  0.1033  0.0131
 1561W        W 3711  18.361   5.408  20.132  0.0140 -0.4171 -0.1137
 1562W        W 3712   8.199   0.028  16.995  0.1993 -0.1175 -0.1120
 1563W        W 3713  20.946   6.965  10.386  0.4607 -0.3568 -0.1799
 1564W        W 3714   2.284   0.304   0.558  0.0840  0.0403  0.0814
 1565W        W 3715  28.068   1.899  16.229  0.0525  0.1418 -0.0964
 1566W        W 3716  14.706   0.231   5.911  0.0333  0.1804  0.2426
 1567W        W 3717   8.212   7.406  23.728  0.1316  0.0536  0.1026
 1568W        W 3718  10.510   1.591   8.019  0.0212 -0.0849  0.0113
 1569W        W 3719   1.270   7.678   5.215 -0.2160  0.0679 -0.1115
 1570W        W 3720  13.085   0.612   6.246  0.1749 -0.1008  0.2723
 1571W        W 3721  23.974   4.899   9.186 -0.1148  0.0847  0.0162
 1572W        W 3722   7.186   6.581  16.227 -0.0064  0.1469  0.1591
 1573W        W 3723   5.456   2.837   6.015  0.3188  0.4326 -0.3012
 1574W        W 3724  16.387   0.468   9.098  0.1041  0.0951  0.0808
 1575W        W 3725  27.220   3.033  16.974  0.0066 -0.0913  0.1676
 1576W        W 3726  10.984   2.935   1.019  0.0109 -0.0986  0.2251
 1577W        W 3727  19.563   3.824   5.626 -0.1244  0.0386  0.1211
 1578W        W 3728  20.831   0.494  17.370 -0.1068  0.0516  0.0313
 1579W        W 3729   6.004   5.479   0.226 -0.0123  0.2165 -0.0950
 1580W        W 3730  25.004   6.791  17.660 -0.2681 -0.1342 -0.2532
 1581W        W 3731  12.594   4.074   1.996 -0.1231  0.2484  0.5085
 1582W        W 3732   2.015   1.586   1.104  0.0084 -0.2358  0.1764
 1583W        W 3733   3.927   2.474  25.089  0.2038  0.1003 -0.0588
 1584W        W 3734  30.253   0.938  19.966 -0.1942 -0.0044 -0.2384
 1585W        W 3735  30.492   1.423   9.818 -0.4975 -0.3309  0.0268
 1586W        W 3736  26.221   3.239  17.657  0.0346  0.1054  0.1190
 1587W        W 3737   0.162   4.164  18.440  0.1188  0.4060  0.0448
 1588W        W 3738  18.191   3.735   5.907  0.1505 -0.0538 -0.2086
 1589W        W 3739  24.369   6.245  10.417 -0.0756 -0.1055 -0.0871
 1590W        W 3740  21.288   3.134  10.905  0.0342 -0.0916 -0.1133
 1591W        W 3741   0.809   5.167  26.091 -0.0870  0.1532 -0.2874
 1592W        W 3742   3.591   4.221   2.922  0.1592 -0.0047 -0.1489
 1593W        W 3743   4.807   6.332  10.696 -0.2245  0.1026 -0.0511
 1594W        W 3744  15.124   7.109   0.626  0.0550 -0.0951  0.3650
 1595W        W 3745   1.447   5.557  10.877  0.0546 -0.1562  0.2538
 1596W        W 3746   3.640   0.401  15.228  0.1232  0.0368  0.2690
 1597W        W 3747   0.628   6.949   0.693 -0.1642  0.0515  0.0403
 1598W        W 3748  12.487   4.514   2.175 -0.0204  0.1002  0.0912
 1599W        W 3749  26.923   3.291  20.697 -0.4996 -0.3903 -0.0726
 1600W        W 3750  28.943   0.158   5.928  0.0362 -0.2485  0.0206
 1601W        W 3751  26.941   1.573   0.358  0.1104  0.1422 -0.0427
 1602W        W 3752  10.980   1.277  25.878 -0.1953  0.2384  0.1063
 1603W        W 3753  11.292   4.421   1.462  0.0176  0.1615 -0.2838
 1604W        W 3754   6.087   0.233  22.619 -0.0645 -0.2143 -0.2203
 1605W        W 3755   0.457   4.711  17.829 -0.2168 -0.0414 -0.0467
 1606W        W 3756   0.755   1.720  20.770 -0.1725 -0.0003 -0.0001
 1607W        W 3757  24.380   7.058  23.720 -0.3144  0.3332 -0.1447
 1608W        W 3758  12.189   3.026  20.041 -0.3202  0.0759  0.0040
 1609W        W 3759  13.799   1.243  24.055  0.2000 -0.1757 -0.1287
 1610W        W 3760   8.635   2.879   1.228 -0.2535  0.1326  0.0675
 1611W        W 3761  21.535   4.334   0.327  0.0293  0.1531 -0.0400
 1612W        W 3762   6.851   7.082   6.497  0.3321  0.1823  0.0621
 1613W        W 3763   2.657   5.091   5.630  0.2631  0.1466 -0.1889
 1614W        W 3764   7.991   2.501  20.809  0.1356 -0.3536 -0.2138
 1615W        W 3765  28.826   1.842  24.151  0.2243 -0.0742 -0.1037
 1616W        W 3766  12.635   7.443  15.778  0.2960 -0.2478 -0.1064
 1617W        W 3767  23.741   2.136  24.306  0.1937  0.1311  0.3642
 1618W        W 3768   3.238   4.280  23.075  0.1358  0.0501  0.0383
 1619W        W 3769  27.568   6.646  19.605 -0.0306 -0.0897  0.0472
 1620W        W 3770   5.113   3.115   1.507 -0.1413 -0.0386 -0.2390
 1621W        W 3771  24.209   2.284  11.063 -0.0539  0.0267  0.1251
 1622W        W 3772  11.749   1.403   5.055 -0.0269  0.1712  0.3091
 1623W        W 3773  11.983   2.175   9.058  0.3383 -0.2372  0.4201
 1624W        W 3774  29.024   5.150   4.957  0.0745 -0.0502  0.2315
 1625W        W 3775  16.749   2.634   0.986 -0.1595 -0.0420  0.1826
 1626W        W 3776  23.360   4.514  19.688  0.3316  0.1150 -0.2307
 1627W        W 3777  26.476   7.593  20.091  0.1651 -0.0670 -0.0373
 1628W        W 3778   4.251   4.859  23.885  0.1662  0.0265 -0.0667
 1629W        W 3779  12.022   0.300   7.512  0.0722 -0.0130 -0.0798
 1630W        W 3780  28.925   6.708  22.357  0.0879 -0.1665 -0.1118
 1631W        W 3781  16.104   2.751  25.681 -0.3590 -0.1459 -0.0441
 1632W        W 3782   3.402   1.651   8.541  0.3342 -0.0467  0.0164
 1633W        W 3783  18.382   3.936   1.444  0.0892  0.3071  0.2400
 1634W        W 3784  28.496   2.323   3.142 -0.2141  0.0676  0.0076
 1635W        W 3785   9.926   6.286   1.171  0.0851  0.0226 -0.1385
 1636W        W 3786  16.534   5.617  14.924  0.0335 -0.1769  0.2498
 1637W        W 3787  15.878   5.184  19.927 -0.1431 -0.0609  0.0624
 1638W        W 3788  15.632   2.212  20.354  0.0189  0.1221  0.1311
 1639W        W 3789  24.221   3.888   8.501  0.1416  0.0258 -0.0035
 1640W        W 3790  30.400   2.013   4.014 -0.1405  0.0676  0.1033
 1641W        W 3791  27.158   5.669  17.995  0.1670 -0.1780 -0.0003
 1642W        W 3792  30.887   2.510   0.760 -0.0225  0.2468  0.2367
 1643W        W 3793  24.290   4.819  10.324  0.2214 -0.1790 -0.0139
 1644W        W 3794   8.418   2.909   5.536 -0.0052 -0.3391  0.3219
 1645W        W 3795   6.486   3.969  17.242  0.1140 -0.1241 -0.0892
 1646W        W 3796  21.887   2.772  24.654 -0.1143 -0.0541 -0.1829
 1647W        W 3797  14.099   5.313  19.832 -0.0469  0.0808 -0.0007
 1648W        W 3798   9.820   4.335  21.999 -0.1490  0.0737  0.0623
 1649W        W 3799  26.151   5.447  23.583 -0.1971 -0.1001 -0.2715
 1650W        W 3800  27.779   3.911  22.619 -0.0806 -0.1878  0.1669
 1651W        W 3801  25.177   5.050  20.822  0.0527  0.1449  0.1002
 1652W        W 3802  15.936   2.863  23.185  0.0694 -0.2505 -0.0286
 1653W        W 3803   8.527   3.319  17.636 -0.0175  0.0505  0.0592
 1654W        W 3804  30.249   5.824   6.385  0.2312  0.1145 -0.0469
 1655W        W 3805  29.610   6.550   2.186 -0.2159 -0.0810 -0.2553
 1656W        W 3806  12.722   7.742  20.566  0.2123  0.0625 -0.1981
 1657W        W 3807  15.631   0.537  10.928  0.2959 -0.0531  0.0384
 1658W        W 3808   8.490   2.832   6.539 -0.1678  0.3028  0.1520
 1659W        W 3809   5.148   4.750  25.786  0.1557 -0.2590 -0.0873
 1660W        W 3810   1.027   3.273   7.058 -0.2062  0.0144  0.0561
 1661W        W 3811  10.661   4.052  20.715 -0.0030 -0.0237  0.3349
 1662W        W 3812   6.284   5.643  22.900 -0.1536 -0.1206  0.3804
 1663W        W 3813   4.199   7.513   6.282 -0.1578  0.0719  0.1429
 1664W        W 3814   2.850   2.731  18.705  0.3322  0.2203 -0.1210
 1665W        W 3815  25.239   6.001   3.610  0.0249 -0.1438 -0.0856
 1666W        W 3816  28.225   0.235  18.293  0.0631  0.1766 -0.1410
 1667W        W 3817  14.139   3.883   0.229  0.2771 -0.1130 -0.2521
 1668W        W 3818   8.428   6.037   6.918 -0.0936  0.2168 -0.1532
 1669W        W 3819  12.750   7.311   3.796  0.1558 -0.2050 -0.0906
 1670W        W 3820  25.665   4.041  24.654  0.0393 -0.2338  0.0228
 1671W        W 3821  12.443   6.020   9.825 -0.1146 -0.0915  0.1830
 1672W        W 3822   0.345   3.269  21.910  0.0453  0.0590 -0.0035
 1673W        W 3823  24.204   6.098  10.891  0.0659 -0.1509 -0.0323
 1674W        W 3824  12.892   2.165  22.822 -0.1829  0.1432 -0.0732
 1675W        W 3825  29.994   2.056  15.777 -0.2931  0.1289  0.4321
 1676W        W 3826  21.624   5.828   5.423  0.0389  0.0256  0.3698
 1677W        W 3827  25.487   3.886   1.520  0.0636 -0.0155  0.0416
 1678W        W 3828  19.833   0.327   8.693 -0.0874  0.2506 -0.2800
 1679W        W 3829   2.989   0.842   8.532 -0.1690 -0.2321  0.2078
 1680W        W 3830  11.948   6.113  18.272  0.0463  0.1936 -0.0181
 1681W        W 3831  28.588   1.842   3.306  0.0734 -0.0348 -0.3282
 1682W        W 3832   4.507   6.227  23.452  0.1085  0.0865 -0.2321
 1683W        W 3833   2.630   5.303  21.028  0.0827 -0.0019  0.0127
 1684W        W 3834   8.848   2.399   1.596 -0.3006 -0.2104  0.0768
 1685W        W 3835  29.388   2.512  23.605 -0.1931  0.0927 -0.2919
 1686W        W 3836   2.435   4.380  19.591 -0.0158  0.2280  0.1648
 1687W        W 3837  19.243   1.081   5.317  0.0024 -0.1891 -0.3104
 1688W        W 3838  20.140   1.716   7.506 -0.0698 -0.0873 -0.2732
 1689W        W 3839  26.512   1.108   1.004 -0.0244 -0.0430  0.1574
 1690W        W 3840   3.088   4.902   2.817 -0.3420  0.1820 -0.0289
 1691W        W 3841   6.336   0.026  22.164 -0.0576  0.2650 -0.1159
 1692W        W 3842  28.365   1.603  17.742  0.0978 -0.0169 -0.3396
 1693W        W 3843  18.536   3.761  15.636 -0.1142 -0.1286  0.0052
 1694W        W 3844  16.301   3.078  15.457  0.0057 -0.0576 -0.1529
 1695W        W 3845   2.795   6.974  26.095 -0.2622 -0.0419  0.3008
 1696W        W 3846  24.356   6.005  16.637 -0.1343  0.2429  0.0874
 1697W        W 3847  14.554   4.798   8.577  0.0083 -0.1639 -0.0996
 1698W        W 3848   1.894   5.530   3.504 -0.1559  0.3427  0.0292
 1699W        W 3849  12.348   0.077   1.268  0.2796 -0.1558 -0.2113
 1700W        W 3850  22.255   5.415   8.993 -0.0705 -0.0322 -0.2248
 1701W        W 3851  28.444   1.183   9.150 -0.3850 -0.3169  0.0098
 1702W        W 3852  30.217   0.576   3.978 -0.1650 -0.0780 -0.1109
 1703W        W 3853  30.906   4.241   7.326  0.0449 -0.0634  0.1596
 1704W        W 3854  24.841   7.193  10.597  0.1173 -0.2065  0.0021
 1705W        W 3855  30.107   3.089  18.974 -0.0603  0.0349  0.1969
 1706W        W 3856   5.439   6.773   4.777 -0.0217  0.1413 -0.2002
 1707W        W 3857  23.146   1.486  16.651  0.1009  0.1416  0.1427
 1708W        W 3858  29.010   2.314  21.396 -0.0611  0.1353  0.0599
 1709W        W 3859  11.720   7.166   4.782 -0.1877  0.2568  0.1448
 1710W        W 3860  21.087   0.562   0.440 -0.0601  0.3789  0.2007
 1711W        W 3861  14.596   3.718  24.233  0.0561 -0.0758 -0.2052
 1712W        W 3862  12.350   5.814   5.431 -0.2216 -0.0629  0.0607
 1713W        W 3863  22.178   4.256  18.915  0.2393  0.1679  0.2140
 1714W        W 3864   9.786   0.567  20.264 -0.2155 -0.0171  0.1635
 1715W        W 3865  18.612   2.155   5.240 -0.2330  0.0505  0.0328
 1716W        W 3866  19.292   7.642  18.834  0.2631  0.0673  0.2324
 1717W        W 3867   4.206   2.637  14.760  0.2023 -0.0379  0.0794
 1718W        W 3868  15.328   5.092  16.344  0.3549  0.0015  0.4179
 1719W        W 3869  13.801   2.081  15.586  0.0556 -0.0311 -0.0781
 1720W        W 3870  30.908   1.555  11.519 -0.1369 -0.3113 -0.0714
 1721W        W 3871  24.757   0.100  16.501 -0.2932  0.0092 -0.2272
 1722W        W 3872   7.826   6.822  18.925 -0.1334 -0.2477 -0.2317
 1723W        W 3873  12.051   5.473   8.935  0.1354  0.3828 -0.0276
 1724W        W 3874   5.335   4.073  18.050 -0.1135 -0.2213 -0.1024
 1725W        W 3875  18.092   3.215  17.608 -0.1021  0.0731 -0.0267
 1726W        W 3876   0.796   1.103  10.897  0.1665  0.4059 -0.0458
 1727W        W 3877  24.133   5.398   1.680 -0.0141 -0.0266 -0.0798
 1728W        W 3878   9.662   7.232   1.367  0.3525 -0.1210 -0.0269
 1729W        W 3879  18.376   7.215  19.039 -0.1707 -0.1318 -0.0153
 1730W        W 3880  22.912   5.414  24.722 -0.0691  0.1936 -0.2673
 1731W        W 3881  19.903   5.703   9.621 -0.0571 -0.0062  0.0248
 1732W        W 3882  22.389   4.841  24.683 -0.3985  0.2330 -0.3219
 1733W        W 3883  22.197   3.698  15.801  0.0237  0.2372  0.1541
 1734W        W 3884  20.681   7.635   2.421 -0.2127  0.2085  0.0175
 1735W        W 3885  20.092   7.560   2.733 -0.0746  0.0742 -0.1001
 1736W        W 3886  29.524   0.747   0.599 -0.1141  0.1029  0.0777
 1737W        W 3887   9.118   0.669   6.322 -0.1684 -0.2637  0.1606
 1738W        W 3888  19.218   2.933   2.920  0.4391  0.1896 -0.0678
 1739W        W 3889  25.926   6.173  19.580  0.0866  0.0139  0.0360
 1740W        W 3890  11.358   1.812   4.328  0.3586 -0.1337 -0.2256
 1741W        W 3891   7.848   0.961  25.904 -0.1010 -0.1229  0.0729
 1742W        W 3892   3.239   7.519  16.291  0.0962 -0.0560 -0.1778
 1743W        W 3893   4.876   1.555   7.632  0.1507 -0.3330 -0.0469
 1744W        W 3894   6.305   4.381  11.095  0.1414 -0.1165  0.1239
 1745W        W 3895  26.900   4.985  19.220  0.0067 -0.0664  0.0825
 1746W        W 3896   6.662   4.178  18.173 -0.0101 -0.2642  0.2994
 1747W        W 3897  27.549   6.256  17.448  0.0572  0.0178  0.1660
 1748W        W 3898   7.709   0.700   6.102 -0.4162  0.0535 -0.0984
 1749W        W 3899  19.007   3.884  22.781  0.1380  0.2040 -0.0912
 1750W        W 3900  12.497   3.186  19.300  0.1192  0.1709  0.2049
 1751W        W 3901  13.851   0.751  23.941  0.0498 -0.0525  0.1233
 1752W        W 3902  19.186   6.832  19.916 -0.1778  0.0857  0.2195
 1753W        W 3903  19.445   6.007   1.161  0.0267  0.1167 -0.0681
 1754W        W 3904  25.389   6.338   4.282 -0.0115  0.1324 -0.0146
 1755W        W 3905  26.462   5.812   9.644  0.1387 -0.0424  0.3345
 1756W        W 3906  11.454   5.611   7.462  0.3714 -0.2192 -0.0666
 1757W        W 3907  18.715   2.158   1.729  0.1821 -0.0345 -0.2252
 1758W        W 3908   4.554   7.776  22.862 -0.0469  0.2049  0.1753
 1759W        W 3909   1.877   4.184  26.248 -0.0264  0.1437 -0.3911
 1760W        W 3910   0.519   5.340   8.440  0.3055 -0.0733  0.4139
 1761W        W 3911  24.851   0.399   5.951 -0.0684 -0.0035 -0.1092
 1762W        W 3912  13.625   7.597   4.335 -0.0516  0.1241 -0.0658
 1763W        W 3913  31.187   6.478  21.941 -0.0597 -0.0650 -0.4358
 1764W        W 3914  13.950   1.866  25.460  0.0070  0.2830  0.0002
 1765W        W 3915  16.217   4.375   4.235 -0.2615  0.1927  0.1684
 1766W        W 3916  15.990   4.163  18.165  0.1661 -0.1598 -0.0380
 1767W        W 3917  23.046   5.461   8.495 -0.0325  0.0372  0.2831
 1768W        W 3918   7.449   4.641  17.727  0.1412 -0.1495 -0.1281
 1769W        W 3919  24.392   6.272  23.924  0.1823  0.2075 -0.0730
 1770W        W 3920  17.066   7.690   5.500 -0.1234 -0.0819 -0.1716
 1771W        W 3921  11.264   6.589   3.345 -0.2074  0.0511 -0.0204
 1772W        W 3922   5.967   5.118  11.055  0.0843  0.0505  0.3568
 1773W        W 3923  15.113   1.488  15.018  0.2104 -0.1123 -0.1228
 1774W        W 3924  12.218   0.210  17.204  0.1240  0.1698 -0.0726
 1775W        W 3925  16.538   3.171   4.113  0.2633 -0.0100  0.1000
 1776W        W 3926  10.429   7.528  15.240 -0.1205  0.0031  0.0389
 1777W        W 3927  20.430   6.798   0.344  0.0288  0.3775 -0.2800
 1778W        W 3928  25.997   2.444  11.494 -0.1796 -0.2251 -0.2761
 1779W        W 3929   5.076   0.481  25.222 -0.0063  0.3971  0.4081
 1780W        W 3930  13.555   0.204  17.505  0.2196  0.0297  0.1323
 1781W        W 3931   7.698   0.604   0.745  0.2207  0.2571  0.1882
 1782W        W 3932  17.476   3.575  17.291  0.2856  0.1003  0.2217
 1783W        W 3933  15.546   5.211   6.261 -0.0207 -0.1736 -0.0059
 1784W        W 3934  21.548   7.393   4.250  0.1757 -0.2007 -0.0386
 1785W        W 3935   2.339   0.946  22.275 -0.2854  0.1280  0.2123
 1786W        W 3936  13.450   0.963  21.657  0.1438 -0.1259  0.2244
 1787W        W 3937  15.004   5.479  21.929  0.2610  0.1580 -0.1281
 1788W        W 3938   7.678   2.064   3.538 -0.2029  0.0449 -0.2320
 1789W        W 3939   2.163   5.168  18.014 -0.0523  0.2153  0.2719
 1790W        W 3940  20.388   1.425   5.488 -0.1942  0.3485  0.0959
 1791W        W 3941  17.217   1.901  16.247  0.1012  0.2377  0.0339
 1792W        W 3942   5.530   6.450  26.058  0.0276  0.1903  0.2348
 1793W        W 3943  18.099   1.383   4.575 -0.1319 -0.0556 -0.0287
 1794W        W 3944  15.039   1.510   8.016  0.2717  0.2728 -0.0343
 1795W        W 3945   8.152   3.248   5.927 -0.3212 -0.1478  0.3297
 1796W        W 3946  14.646   4.580  18.126  0.1481  0.0373  0.2074
 1797W        W 3947  19.505   2.426  20.821  0.1311 -0.2437 -0.1064
 1798W        W 3948   1.518   3.695  25.730  0.0584 -0.0751 -0.0266
 1799W        W 3949   5.524   3.478  26.380 -0.3030 -0.0638  0.1335
 1800W        W 3950   6.373   3.000   2.572  0.3303  0.1058 -0.0366
 1801W        W 3951   0.190   0.140  18.053 -0.1656 -0.1335  0.1058
 1802W        W 3952   5.411   4.429  11.634  0.2308  0.0598  0.2387
 1803W        W 3953  30.281   3.581   8.115  0.2562 -0.1701  0.1229
 1804W        W 3954  22.067   5.384   5.672  0.0562  0.1725  0.1187
 1805W        W 3955  21.520   6.494   4.731  0.0835  0.2530  0.2119
 1806W        W 3956  19.199   6.596   9.145  0.2949  0.0657 -0.1843
 1807W        W 3957  22.950   5.574   3.700 -0.1067 -0.1326  0.1332
 1808W        W 3958  24.714   6.450   5.927  0.2260  0.4967  0.2965
 1809W        W 3959  15.438   4.276   1.634  0.0293 -0.1256 -0.1588
 1810W        W 3960  29.020   2.059  18.953  0.1598 -0.0900  0.1154
 1811W        W 3961  19.721   1.552   3.253  0.2042  0.1046 -0.0726
 1812W        W 3962  16.797   0.837  20.008 -0.0051 -0.2500 -0.1242
 1813W        W 3963  22.101   5.780  11.061 -0.1775 -0.0431 -0.3176
 1814W        W 3964  28.660   7.510  24.486 -0.2684 -0.0627 -0.2400
 1815W        W 3965  10.976   4.136  15.806 -0.2535 -0.1738  0.1921
 1816W        W 3966   0.891   0.782  22.375 -0.0694  0.4504  0.0503
 1817W        W 3967  29.948   0.935  22.552 -0.1296  0.1514  0.4851
 1818W        W 3968   9.222   4.302   6.308 -0.0093  0.1200  0.3477
 1819W        W 3969   6.075   2.552  21.340  0.0555 -0.1968  0.0105
 1820W        W 3970  12.205   4.541  16.783  0.0387 -0.1289  0.0618
 1821W        W 3971   4.628   5.310   2.830  0.1931  0.0824 -0.4482
 1822W        W 3972  21.638   6.840  24.327 -0.0914 -0.0879 -0.1832
 1823W        W 3973  26.693   6.295  20.234 -0.0316 -0.0474 -0.0333
 1824W        W 3974  25.318   4.464   2.605 -0.3506 -0.0918  0.0277
 1825W        W 3975  17.497   0.617  24.618  0.1485  0.1443 -0.0075
 1826W        W 3976  26.060   5.747  18.003  0.0461  0.0535  0.2627
 1827W        W 3977  25.766   5.993  10.345  0.0945 -0.0484 -0.0518
 1828W        W 3978   6.444   5.466  24.811 -0.1173 -0.1270 -0.2818
 1829W        W 3979  13.205   1.422  25.143 -0.1477 -0.0481 -0.0740
 1830W        W 3980  19.422   7.568   5.681  0.0457 -0.1744 -0.0355
 1831W        W 3981  27.989   1.190  17.513 -0.0119 -0.0824 -0.4126
 1832W        W 3982  10.977   7.791  21.067  0.2050 -0.2047 -0.3042
 1833W        W 3983   8.550   0.537   1.033  0.1705 -0.2593 -0.0121
 1834W        W 3984   6.886   3.152   8.604 -0.1392  0.2129 -0.1685
 1835W        W 3985   2.672   2.553   9.178 -0.2160  0.1346  0.3227
 1836W        W 3986  15.585   5.119   9.118 -0.0522 -0.0877 -0.2076
 1837W        W 3987   0.368   7.777  23.913  0.0483  0.0216  0.0632
 1838W        W 3988  17.788   0.375  15.844  0.1400 -0.1805 -0.0092
 1839W        W 3989   4.682   0.805   5.600 -0.2111 -0.0327 -0.0737
 1840W        W 3990  16.641   2.176  25.218 -0.3644 -0.0696  0.2428
 1841W        W 3991  24.236   5.618  23.861 -0.3422  0.1050 -0.3215
 1842W        W 3992   1.748   1.651   4.741  0.0037  0.0974 -0.2673
 1843W        W 3993  29.122   0.014  16.210  0.2501 -0.4271 -0.0490
 1844W        W 3994   8.890   3.478   7.222  0.0180 -0.0484  0.0106
 1845W        W 3995  19.580   2.789   8.493  0.3062  0.1880 -0.2673
 1846W        W 3996  14.624   3.924   1.935  0.2229 -0.0030 -0.1188
 1847W        W 3997  18.969   6.907  23.611 -0.1133  0.0615  0.0072
 1848W        W 3998   9.737   2.472  16.253 -0.2240 -0.1256 -0.0871
 1849W        W 3999  20.779   6.817   4.097 -0.2228 -0.0781  0.0023
 1850W        W 4000  29.115   2.354  24.333 -0.0207 -0.0801 -0.1022
 1851W        W 4001  19.637   0.244  18.726  0.1100  0.0815 -0.1184
 1852W        W 4002  17.504   4.289   9.684 -0.2534 -0.0854 -0.0099
 1853W        W 4003   3.865   3.819  21.265 -0.1983 -0.2083 -0.1607
 1854W        W 4004  14.589   4.698  21.146 -0.1523 -0.0006 -0.0282
 1855W        W 4005  30.924   1.716   8.681 -0.2243 -0.2363 -0.1245
 1856W        W 4006  18.362   7.686   6.315 -0.1090  0.0367  0.0144
 1857W        W 4007   1.159   6.300   8.541  0.1263  0.0222  0.0795
 1858W        W 4008   7.121   3.746  22.441 -0.0208 -0.0049  0.0285
 1859W        W 4009   6.512   2.328  17.019  0.1516  0.0198  0.0662
 1860W        W 4010  30.961   1.021  23.246  0.3611  0.1293 -0.0463
 1861W        W 4011  13.757   5.013  25.092  0.1122  0.3781 -0.0542
 1862W        W 4012  22.536   1.372  10.500 -0.1231  0.0695  0.3023
 1863W        W 4013  30.223   1.130  17.025  0.1098 -0.1585 -0.0909
 1864W        W 4014  26.959   4.557  21.401  0.0244  0.0789 -0.1714
 1865W        W 4015  19.433   6.507  22.318 -0.2105 -0.2336 -0.3017
 1866W        W 4016  11.900   6.664  23.777 -0.1913 -0.1610 -0.0811
 1867W        W 4017  13.858   4.474   5.283 -0.1730  0.1250 -0.0297
 1868W        W 4018  23.967   5.419   5.967  0.2038 -0.1441  0.1717
 1869W        W 4019   0.885   4.408   0.774 -0.2086  0.0136 -0.2046
 1870W        W 4020  15.682   7.455   5.045 -0.0400 -0.0053  0.2154
 1871W        W 4021   3.306   6.833   7.876 -0.0301  0.1435 -0.0260
 1872W        W 4022  18.956   4.287  24.934 -0.0965  0.2056 -0.0387
 1873W        W 4023  29.314   5.035  22.627 -0.2143  0.3099  0.0690
 1874W        W 4024  23.844   3.577  26.167 -0.1118 -0.1579  0.0686
 1875W        W 4025  10.338   3.559   9.745  0.3240 -0.1810 -0.1514
 1876W        W 4026   7.273   4.336  23.606 -0.1370  0.1130  0.0830
 1877W        W 4027   1.165   6.982  26.136 -0.2985 -0.0420  0.0066
 1878W        W 4028  12.944   7.406  24.247 -0.1590  0.0732 -0.3404
 1879W        W 4029  19.383   3.680   4.346  0.1337  0.1987  0.0878
 1880W        W 4030   1.504   4.419  10.814 -0.0920  0.0172 -0.0461
 1881W        W 4031  29.825   2.267  17.316 -0.3026  0.1287  0.2048
 1882W        W 4032  17.426   3.656   4.971  0.0357 -0.0097  0.0160
 1883W        W 4033  14.588   2.838   2.933  0.0980 -0.3634 -0.0221
 1884W        W 4034  18.533   7.029  15.931  0.0005  0.3890  0.0078
 1885W        W 4035  25.068   0.391   6.747  0.0261  0.1076 -0.2239
 1886W        W 4036  11.249   7.051  17.596 -0.1975  0.2126  0.1015
 1887W        W 4037  12.611   0.329   6.376  0.0622  0.3577 -0.1158
 1888W        W 4038  21.320   2.143   0.837  0.0024 -0.2496  0.0149
 1889W        W 4039  22.510   3.596  10.083  0.1469  0.0531 -0.0760
 1890W        W 4040   0.771   3.127   1.883  0.3945 -0.1844  0.1634
 1891W        W 4041   4.644   2.842   9.276  0.1510 -0.0335 -0.1783
 1892W        W 4042   1.183   5.197  21.175 -0.0166  0.2253  0.1223
 1893W        W 4043   0.133   5.350  26.201 -0.0705  0.6465 -0.0361
 1894W        W 4044  25.265   0.182  18.046 -0.0133  0.2130  0.0157
 1895W        W 4045  28.852   3.034   5.397  0.4619  0.0948  0.2475
 1896W        W 4046   1.756   4.498  15.050 -0.2133 -0.0254  0.4124
 1897W        W 4047  10.445   3.007  25.732  0.1957 -0.2799  0.0071
 1898W        W 4048  11.494   4.671  18.722 -0.0488  0.2447 -0.0593
 1899W        W 4049  30.475   7.599   3.376 -0.0644  0.1232 -0.0328
 1900W        W 4050  20.375   3.821  23.093  0.0439 -0.4454 -0.1320
 1901W        W 4051   1.554   3.496  21.442 -0.1809 -0.1106 -0.2014
 1902W        W 4052  26.607   6.847  18.791 -0.1658  0.1116  0.0202
 1903W        W 4053   4.218   4.352   5.762  0.2531 -0.0311  0.1927
 1904W        W 4054  14.020   5.717   2.612 -0.0775  0.0623 -0.1269
 1905W        W 4055   6.606   1.830   5.393  0.0928  0.0454 -0.1551
 1906W        W 4056   4.611   4.278  17.689  0.3976 -0.3842 -0.1134
 1907W        W 4057  19.063   7.560  24.097 -0.1677  0.0796 -0.1995
 1908W        W 4058   2.328   5.655  25.090  0.0207 -0.0260  0.0014
 1909W        W 4059  18.335   3.681  23.700  0.2351  0.0359 -0.2135
 1910W        W 4060   1.790   2.445  19.517 -0.1420  0.1733  0.3383
 1911W        W 4061  16.282   6.568  24.363  0.1597  0.0047 -0.1855
 1912W        W 4062  21.419   5.091  22.861 -0.2176  0.0596 -0.1534
 1913W        W 4063  29.661   6.077   6.482  0.0026  0.2521  0.0161
 1914W        W 4064   6.670   0.640  18.427  0.0271  0.0172  0.0983
 1915W        W 4065   5.786   6.759   9.399  0.0385  0.0983  0.3743
 1916W        W 4066   8.867   4.713   3.122 -0.2349 -0.2291  0.2085
 1917W        W 4067  21.307   6.490  21.978  0.1100  0.0097 -0.1977
 1918W        W 4068  25.949   1.206  23.703 -0.3211 -0.1455 -0.1066
 1919W        W 4069  20.128   7.256  18.636 -0.2390 -0.0713  0.3803
 1920W        W 4070  26.734   7.578  24.253 -0.2667 -0.0491  0.1610
 1921W        W 4071  11.431   2.609  19.521  0.2836 -0.0941 -0.0737
 1922W        W 4072   9.941   5.614   0.906  0.0356  0.1479 -0.0685
 1923W        W 4073  18.857   7.465   3.410 -0.0274 -0.0158 -0.0832
 1924W        W 4074  30.196   3.440  24.220 -0.2764  0.0812 -0.1841
 1925W        W 4075   1.780   0.844   2.478 -0.2772  0.0028 -0.0117
 1926W        W 4076  20.066   4.333  16.035 -0.1075 -0.1495 -0.1469
 1927W        W 4077   6.854   3.496   9.993  0.1082  0.0771 -0.2200
 1928W        W 4078  30.796   2.706   5.512 -0.2040 -0.0470  0.2047
 1929W        W 4079  25.598   1.766  20.273  0.2450  0.0594  0.1223
 1930W        W 4080   7.049   6.721   4.287  0.1561 -0.2241 -0.0486
 1931W        W 4081  23.989   6.867  25.260  0.3565 -0.1060  0.2892
 1932W        W 4082  14.305   4.485  23.055  0.0957 -0.2535 -0.2384
 1933W        W 4083  29.018   3.919  18.318 -0.2639  0.0611  0.0948
 1934W        W 4084  26.414   3.108  15.313  0.0142  0.1181  0.0113
 1935W        W 4085  14.256   7.314   5.013  0.0296 -0.2360 -0.0402
 1936W        W 4086   1.716   2.727  22.025 -0.0530 -0.3280 -0.0543
 1937W        W 4087  14.804   1.804  25.532 -0.1045  0.0542 -0.0190
 1938W        W 4088  11.176   2.518  15.222  0.0823 -0.1061  0.2818
 1939W        W 4089  24.935   1.318  12.180 -0.1319  0.0803 -0.0415
 1940W        W 4090  19.696   3.703  20.751  0.1434  0.1267 -0.2972
 1941W        W 4091  25.292   4.416  21.205  0.0572  0.3099 -0.3262
 1942W        W 4092  16.290   3.365  18.240 -0.0568  0.0434  0.2319
 1943W        W 4093   8.069   6.066  19.461  0.3578 -0.0384 -0.3073
 1944W        W 4094   7.294   0.993  20.840 -0.2151  0.0664 -0.0755
 1945W        W 4095  18.149   2.372  17.705 -0.3780  0.0519  0.0563
 1946W        W 4096  13.190   0.104   6.404  0.1819 -0.3642  0.3205
 1947W        W 4097  24.947   1.538   9.727  0.1513  0.0145  0.0446
 1948W        W 4098   3.204   7.509  17.203 -0.1546  0.1022 -0.0864
 1949W        W 4099   1.491   0.640  19.677  0.2234 -0.5266  0.2068
 1950W        W 4100  13.128   5.709   5.493  0.0835  0.3236  0.1339
 1951W        W 4101  29.645   5.136   5.576 -0.0017 -0.0088  0.0197
 1952W        W 4102  27.890   4.671  17.284 -0.4054  0.3240  0.0268
 1953W        W 4103   1.899   4.243  21.305 -0.0831  0.2462  0.1592
 1954W        W 4104  28.197   1.509   1.660 -0.2913  0.1927 -0.3197
 1955W        W 4105   6.886   4.281   3.636 -0.1759 -0.0191  0.1455
 1956W        W 4106  23.198   6.289  22.974 -0.0848  0.0443 -0.1684
 1957W        W 4107  28.293   5.158   4.542 -0.0223 -0.0944 -0.1259
 1958W        W 4108   0.710   5.251  18.932  0.0998 -0.0121  0.1858
 1959W        W 4109   2.856   2.677   4.834  0.1570  0.3393 -0.0409
 1960W        W 4110  14.695   2.208  22.046 -0.2477  0.0020  0.1472
 1961W        W 4111  16.662   4.780  17.545  0.1557 -0.2689 -0.1363
 1962W        W 4112  16.683   7.055  21.368  0.1528 -0.2219 -0.1163
 1963W        W 4113  15.065   3.687   1.739 -0.1424 -0.0614  0.0384
 1964W        W 4114  17.860   1.039  17.101 -0.3739 -0.0918 -0.0244
 1965W        W 4115  14.424   1.438  24.440 -0.0091  0.1524 -0.0573
 1966W        W 4116  25.315   0.137   2.007  0.3132  0.1989  0.2646
 1967W        W 4117  16.242   1.539   4.441  0.0093  0.0419 -0.0546
 1968W        W 4118  20.654   4.660   2.306 -0.0938 -0.0691 -0.2874
 1969W        W 4119   3.660   0.155   7.887 -0.0349 -0.3874  0.0898
 1970W        W 4120   7.481   3.245  10.691 -0.1100  0.0208  0.0673
 1971W        W 4121  19.120   0.054   3.301 -0.1450  0.3191  0.0288
 1972W        W 4122  17.223   6.631  20.606  0.1448  0.0951 -0.1574
 1973W        W 4123  15.768   5.172  16.008  0.3781 -0.1155 -0.0592
 1974W        W 4124  30.230   2.502   3.973  0.0286  0.0746  0.2389
 1975W        W 4125   0.648   4.705  10.569  0.1293  0.0097  0.1393
 1976W        W 4126  21.650   6.223   2.021 -0.2164  0.5162 -0.7197
 1977W        W 4127  15.220   5.431   0.576  0.0723 -0.1658 -0.0549
 1978W        W 4128   9.076   3.807  17.368  0.0690 -0.2069 -0.1172
 1979W        W 4129   5.558   3.673   5.267 -0.1219  0.1801  0.0506
 1980W        W 4130  25.564   1.086  18.279 -0.1584 -0.2264  0.1611
 1981W        W 4131   2.981   2.718  23.544  0.2153 -0.0306 -0.1413
 1982W        W 4132  24.302   2.369  16.031  0.1784  0.0640 -0.1996
 1983W        W 4133   7.982   6.965  16.396 -0.1065 -0.4135  0.0990
 1984W        W 4134   5.640   2.284   1.229 -0.1227  0.1794  0.0619
 1985W        W 4135  15.092   3.683  15.432 -0.1691  0.1433 -0.0380
 1986W        W 4136   7.677   1.497   4.915 -0.0289  0.0537  0.3386
 1987W        W 4137  10.763   3.145   5.230  0.0487  0.0504  0.0781
 1988W        W 4138  23.733   4.077  25.400  0.0921 -0.0786  0.3139
 1989W        W 4139   0.142   0.716   0.934  0.1623  0.0560 -0.2634
 1990W        W 4140   1.601   0.282   2.077 -0.0239 -0.0326 -0.0016
 1991W        W 4141   6.855   4.994  16.448 -0.0363  0.1210  0.1744
 1992W        W 4142  12.427   3.564  25.731 -0.2870  0.0978  0.0843
 1993W        W 4143  11.080   0.386  24.495 -0.2478 -0.0939  0.0195
 1994W        W 4144  23.949   7.071   1.015 -0.1974  0.0935  0.1868
 1995W        W 4145  12.517   3.465  21.862  0.0111  0.2022  0.0051
 1996W        W 4146  25.186   6.460  25.657 -0.0312  0.2235 -0.0275
 1997W        W 4147  17.364   0.832  24.163 -0.0557  0.0862 -0.3544
 1998W        W 4148  25.758   2.434  17.720  0.1401 -0.0020 -0.2850
 1999W        W 4149   3.418   5.732   2.577 -0.1582  0.2297  0.3197
 2000W        W 4150  16.350   4.616   9.206 -0.1280  0.2815 -0.0594
 2001W        W 4151  12.039   4.567   5.619 -0.4737 -0.0226  0.1530
 2002W        W 4152   8.327   3.600  17.997  0.0039 -0.2269  0.1511
 2003W        W 4153  16.991   6.627  16.155  0.2087  0.2411 -0.4073
 2004W        W 4154  16.522   0.909  18.225  0.0284  0.1102 -0.1418
 2005W        W 4155  30.068   7.146   0.071 -0.1989 -0.2046  0.2832
 2006W        W 4156  14.100   7.673   3.627  0.2095 -0.0131 -0.2034
 2007W        W 4157  12.272   7.769   6.638 -0.3108 -0.0298  0.1526
 2008W        W 4158  19.283   2.222   1.894  0.1105 -0.0486  0.0507
 2009W        W 4159  15.589   0.177   6.381 -0.1408 -0.0574  0.3243
 2010W        W 4160  26.820   6.054   6.486  0.1046 -0.0673 -0.2465
 2011W        W 4161  23.401   5.334  10.300  0.0784 -0.0386 -0.1102
 2012W        W 4162   2.740   1.882   7.662  0.1656  0.1611 -0.0525
 2013W        W 4163   9.844   1.416   6.506 -0.2543 -0.3993 -0.0067
 2014W        W 4164  27.860   0.008  23.396 -0.1920  0.3787  0.2577
 2015W        W 4165   4.001   5.042   2.998  0.0718  0.3159 -0.0094
 2016W        W 4166   0.871   6.666  16.559  0.1545  0.1022  0.2666
 2017W        W 4167  20.822   6.618  21.974  0.2386 -0.0253 -0.0355
 2018W        W 4168   1.764   4.237  17.003 -0.0787 -0.0573 -0.0952
 2019W        W 4169  18.464   0.576  25.090  0.1038  0.1871  0.1981
 2020W        W 4170   5.849   5.354  23.125 -0.0018 -0.2655 -0.2628
 2021W        W 4171   3.212   6.155  25.284  0.0304  0.0666 -0.0456
 2022W        W 4172   8.617   0.253   8.817 -0.2368 -0.0629 -0.1094
 2023W        W 4173   2.000   2.382   5.814  0.0460  0.1844  0.1162
 2024W        W 4174   4.828   7.735  21.226  0.3299  0.1990  0.0113
 2025W        W 4175   7.171   6.824  15.532  0.3124 -0.0826 -0.1611
 2026W        W 4176   2.373   7.255  19.844 -0.0203  0.0787 -0.0985
 2027W        W 4177  21.894   1.358  22.962 -0.1273  0.0830  0.0072
 2028W        W 4178   3.495   3.945  18.640  0.1404 -0.0799 -0.0364
 2029W        W 4179   9.004   2.096  10.376  0.4325  0.1103 -0.1724
 2030W        W 4180  22.549   1.989   2.254 -0.0237 -0.3211  0.1811
 2031W        W 4181   1.971   1.249  23.763 -0.2579 -0.0404 -0.0224
 2032W        W 4182  22.424   0.522  19.754 -0.1309 -0.0501 -0.1368
 2033W        W 4183  13.522   1.590  15.587  0.1055 -0.1580 -0.1314
 2034W        W 4184  19.330   6.583   4.956 -0.2817 -0.0881 -0.3017
 2035W        W 4185   2.805   4.041   1.782  0.1876  0.1607  0.0134
 2036W        W 4186  19.072   2.794  25.560 -0.2078  0.0614 -0.0046
 2037W        W 4187  27.045   4.681  17.018  0.1881  0.0148  0.1741
 2038W        W 4188  28.729   0.834  20.760  0.3243 -0.0870 -0.0680
 2039W        W 4189  17.875   6.180  23.537 -0.3184 -0.3208 -0.0917
 2040W        W 4190   1.361   3.465   2.132  0.1181 -0.2005 -0.1494
 2041W        W 4191  15.416   5.040  20.656  0.0902  0.2631  0.1457
 2042W        W 4192  27.245   5.487  17.590 -0.1979  0.1828  0.1085
 2043W        W 4193  23.238   6.542  19.938  0.0828  0.1674  0.1125
 2044W        W 4194   8.852   7.266  11.327  0.1292  0.2274  0.4271
 2045W        W 4195  28.501   7.729   0.235  0.1332  0.1912  0.3087
 2046W        W 4196   0.954   0.596   9.474 -0.1866  0.0039 -0.1332
 2047W        W 4197   6.093   1.694   2.639 -0.1242  0.0969 -0.0435
 2048W        W 4198   3.309   6.293  24.752 -0.2036  0.0360  0.1284
 2049W        W 4199  12.457   2.567   8.783 -0.0801 -0.1991 -0.1682
 2050W        W 4200   8.410   1.789   2.964 -0.1543 -0.0055 -0.1281
 2051W        W 4201  23.238   2.120   0.962  0.2162  0.3025 -0.0422
 2052W        W 4202   7.383   5.227   2.215 -0.0377  0.0621  0.4463
 2053W        W 4203  26.393   4.487  25.975 -0.0769  0.1791  0.2945
 2054W        W 4204  16.637   0.897   4.707 -0.0509  0.2512 -0.2253
 2055W        W 4205  26.496   1.234   0.475 -0.0345 -0.1177 -0.3783
 2056W        W 4206   6.148   5.726  21.991 -0.0558 -0.0214 -0.1480
 2057W        W 4207  18.370   7.722  16.979  0.1040  0.0423 -0.0957
 2058W        W 4208  18.907   7.436  19.837 -0.1129 -0.0824  0.1208
 2059W        W 4209   9.674   5.117   8.601  0.0152 -0.0549 -0.1079
 2060W        W 4210  24.436   2.075  21.173 -0.0427 -0.1692  0.2497
 2061W        W 4211  17.295   2.564  18.156  0.1433 -0.2231  0.0638
 2062W        W 4212   0.240   1.353  20.160  0.1786  0.0458 -0.3110
 2063W        W 4213  12.158   0.614  17.519  0.0651  0.1020 -0.1967
 2064W        W 4214   7.829   6.065   5.374  0.2272  0.0397  0.1212
 2065W        W 4215  16.738   2.202   5.170 -0.1710 -0.0986 -0.1594
 2066W        W 4216   9.848   2.288   6.394 -0.0431  0.1639 -0.0589
 2067W        W 4217   4.082   4.683  24.275 -0.3911  0.1999  0.1393
 2068W        W 4218   9.257   4.761  25.914 -0.0939 -0.1608 -0.2245
 2069W        W 4219  12.441   1.476   0.914  0.0197  0.1298 -0.1367
 2070W        W 4220   5.529   4.110   9.516  0.1844 -0.1771 -0.1557
 2071W        W 4221  10.417   6.227  20.266 -0.0212  0.0855  0.1535
 2072W        W 4222  16.748   1.408  18.938 -0.1880 -0.0570 -0.1186
 2073W        W 4223  10.419   0.582  25.213 -0.2480 -0.1831 -0.0545
 2074W        W 4224  17.316   0.094   4.243  0.1796  0.2487  0.2745
 2075W        W 4225   7.267   2.388  24.721  0.2507  0.1561 -0.3378
 2076W        W 4226  27.149   2.934  10.464 -0.4508 -0.1298  0.3937
 2077W        W 4227  21.215   7.335   7.929  0.2224 -0.0571  0.3867
 2078W        W 4228  18.106   4.906  24.431 -0.0599  0.1418  0.0538
 2079W        W 4229  20.434   4.114   4.352  0.1800 -0.0545 -0.1284
 2080W        W 4230  15.908   4.418   3.241 -0.0101 -0.2563 -0.0635
 2081W        W 4231  22.890   0.830  25.432  0.4276  0.1385  0.0784
 2082W        W 4232   7.313   3.592   6.149 -0.1302  0.1957  0.2604
 2083W        W 4233   5.922   2.863  17.653  0.1050  0.1312  0.2274
 2084W        W 4234  19.255   2.422   5.625 -0.1079 -0.2195 -0.0389
 2085W        W 4235  16.087   1.818  25.812  0.3113 -0.1700  0.2480
 2086W        W 4236  24.416   3.076   5.980  0.0382  0.0179 -0.2439
 2087W        W 4237  11.389   6.207  16.483  0.1378 -0.3664 -0.1364
 2088W        W 4238   0.350   7.735  23.398 -0.1057  0.0298  0.1429
 2089W        W 4239  21.571   2.978   3.835 -0.1940  0.0656  0.2152
 2090W        W 4240  27.655   4.814  19.909  0.0978 -0.0489  0.2143
 2091W        W 4241   5.984   3.453   9.598 -0.2949  0.0479  0.2231
 2092W        W 4242  27.417   5.157   3.974  0.0086 -0.0694 -0.1047
 2093W        W 4243  26.735   0.457  15.780 -0.0809 -0.1623  0.3419
 2094W        W 4244  27.900   6.622  16.413  0.0045  0.1983  0.1508
 2095W        W 4245  29.256   7.016  21.746 -0.1603  0.3312  0.0313
 2096W        W 4246   3.985   2.341   0.168 -0.2148 -0.0872  0.2365
 2097W        W 4247  19.230   1.553   7.936 -0.0487 -0.1260  0.1168
 2098W        W 4248   9.743   0.186   4.824  0.1094 -0.3733 -0.0159
 2099W        W 4249   9.095   4.396   8.236  0.1708  0.0515 -0.2309
 2100W        W 4250   9.128   6.713   0.244  0.2103  0.1607  0.2591
 2101W        W 4251   2.416   0.741  21.174  0.1489 -0.1778  0.0384
 2102W        W 4252   6.256   6.562   8.622  0.0590  0.0680  0.1250
 2103W        W 4253  22.721   1.669  22.733 -0.2344 -0.0455 -0.1220
 2104W        W 4254  10.127   5.627  16.203 -0.6853 -0.0416  0.1272
 2105W        W 4255  27.175   3.450  10.348  0.1067 -0.1998  0.0282
 2106W        W 4256  17.630   4.160  17.108 -0.1016 -0.2692 -0.4389
 2107W        W 4257   6.457   1.748  16.363 -0.0276 -0.0517  0.1354
 2108W        W 4258  30.944   5.580  22.266 -0.0837  0.2276  0.1513
 2109W        W 4259  13.336   2.209  21.984 -0.0154 -0.0502  0.0310
 2110W        W 4260  19.679   3.146  17.110  0.1341 -0.0698 -0.1945
 2111W        W 4261  25.319   4.754  19.038  0.2549 -0.0520 -0.0239
 2112W        W 4262   1.812   0.726   6.822  0.0023 -0.0157  0.1813
 2113W        W 4263  21.863   7.736  23.079  0.0260  0.3045  0.0466
 2114W        W 4264  21.769   1.285  21.068  0.0877  0.1883 -0.0839
 2115W        W 4265  26.129   0.256  19.791 -0.1354 -0.0384  0.2047
 2116W        W 4266  25.732   3.395  17.689 -0.0265  0.0438 -0.2875
 2117W        W 4267   1.658   5.810  26.252  0.1693 -0.1146 -0.2544
 2118W        W 4268  20.520   3.827   3.614  0.2228 -0.1176  0.0292
 2119W        W 4269  22.482   4.636  20.527 -0.0410  0.2402 -0.3361
 2120W        W 4270   2.677   6.987  16.583 -0.0296  0.1125  0.0424
 2121W        W 4271  30.756   4.248  20.503 -0.0869 -0.0444 -0.2154
 2122W        W 4272   1.112   7.387  16.004 -0.1914  0.0095 -0.0922
 2123W        W 4273  14.711   7.776   1.265 -0.1258 -0.3085 -0.1209
 2124W        W 4274  12.773   2.751  19.733  0.0999 -0.3031  0.0813
 2125W        W 4275  13.715   0.979  18.261  0.0631 -0.1257  0.0722
 2126W        W 4276  29.234   6.267  23.169  0.2455  0.0025  0.2619
 2127W        W 4277  23.607   1.884  18.654 -0.1482 -0.1264 -0.0873
 2128W        W 4278  22.100   7.574  25.076  0.0237 -0.3030 -0.0877
 2129W        W 4279   0.472   5.215   0.747 -0.0211 -0.2084  0.1124
 2130W        W 4280  30.767   5.093  22.786 -0.2344 -0.4458 -0.0351
 2131W        W 4281   4.215   7.396  23.730  0.0798  0.0769  0.0575
 2132W        W 4282  15.060   1.688   7.427 -0.1845 -0.4225  0.1937
 2133W        W 4283  17.555   5.395   7.715 -0.0380 -0.1144 -0.1097
 2134W        W 4284  27.911   5.967  21.323 -0.3329 -0.1318 -0.1787
 2135W        W 4285   7.827   4.355   0.404  0.1237  0.5208  0.1156
 2136W        W 4286   7.289   0.543  23.390 -0.2052 -0.1321  0.0280
 2137W        W 4287  12.251   6.108  24.303  0.0764 -0.0574 -0.1838
 2138W        W 4288  11.950   6.988  22.401  0.4654 -0.0615  0.1572
 2139W        W 4289  17.629   0.106  20.560  0.1238 -0.1261  0.0524
 2140W        W 4290   3.471   4.955   7.333  0.0825  0.1856 -0.3711
 2141W        W 4291  23.557   2.895  21.542  0.1158  0.2122  0.2336
 2142W        W 4292   4.766   2.504   4.725 -0.0343 -0.0790  0.3248
 2143W        W 4293  12.144   0.513   0.908 -0.1600  0.0399  0.0084
 2144W        W 4294   7.209   5.522   7.315 -0.0712  0.1374 -0.0741
 2145W        W 4295  13.440   6.765   8.852  0.1409  0.1199 -0.1139
 2146W        W 4296  22.991   4.917   2.443 -0.3972  0.2201  0.0892
 2147W        W 4297  25.588   3.980   2.614 -0.1591 -0.1277  0.0321
 2148W        W 4298   9.277   0.229   4.608 -0.0827 -0.2016  0.1566
 2149W        W 4299  14.510   0.882   6.670 -0.3561 -0.4276  0.0553
 2150W        W 4300   2.960   0.628   8.105 -0.2193  0.3783 -0.1626
 2151W        W 4301  25.221   3.234  21.206 -0.1402  0.1455  0.2148
 2152W        W 4302  26.780   0.364   7.578  0.4548 -0.0416 -0.3713
 2153W        W 4303  18.566   0.342  21.227  0.1260 -0.3052 -0.2671
 2154W        W 4304   8.888   4.409  22.189 -0.1649  0.0021 -0.1308
 2155W        W 4305   1.371   1.700  25.087  0.1530 -0.0988  0.0638
 2156W        W 4306  17.859   3.499  22.702  0.3393 -0.3107 -0.1885
 2157W        W 4307   3.246   4.882  21.777  0.1603  0.2330 -0.0187
 2158W        W 4308   7.791   4.193   8.303  0.2245 -0.0050 -0.0373
 2159W        W 4309  28.167   1.707   0.017  0.3095  0.0269  0.0655
 2160W        W 4310   1.505   2.300   2.672  0.2027 -0.2886 -0.2871
 2161W        W 4311  20.375   2.461   5.906  0.0814 -0.2105  0.1687
 2162W        W 4312  23.337   2.640  15.919 -0.2431  0.0517 -0.0084
 2163W        W 4313  27.957   1.283  24.057  0.3676  0.0971 -0.1029
 2164W        W 4314  18.784   4.796  17.749 -0.0710  0.0738  0.0951
 2165W        W 4315  19.053   0.888   5.871 -0.3147 -0.0047  0.3824
 2166W        W 4316  16.040   4.416  21.847 -0.2840  0.0155  0.2289
 2167W        W 4317  22.290   3.305   7.455  0.1849 -0.0067 -0.3811
 2168W        W 4318  13.195   3.402   2.477  0.1689 -0.0926 -0.2168
 2169W        W 4319   6.108   1.535   1.218 -0.2257  0.3474 -0.1019
 2170W        W 4320  25.202   4.769  15.660 -0.0864 -0.0281 -0.0457
 2171W        W 4321  21.753   0.976   5.662  0.1686  0.2158  0.1793
 2172W        W 4322   9.598   3.653   2.721 -0.1815  0.2017  0.0403
 2173W        W 4323  18.289   5.969  16.401 -0.1334  0.0000 -0.0992
 2174W        W 4324  16.116   3.263  23.490  0.0494  0.0422  0.2217
 2175W        W 4325   8.821   1.234  19.030 -0.2233 -0.4261 -0.1253
 2176W        W 4326  20.358   5.450  17.119 -0.1982 -0.2552 -0.1093
 2177W        W 4327   9.032   3.622   5.642  0.0545 -0.2080  0.0112
 2178W        W 4328   2.971   3.834   3.631 -0.0052  0.2474 -0.3044
 2179W        W 4329  21.397   2.484  25.449  0.0616  0.1124  0.1149
 2180W        W 4330   2.184   2.729  26.042 -0.1634 -0.3047  0.0064
 2181W        W 4331  28.350   1.349   6.158 -0.1710 -0.5038 -0.2842
 2182W        W 4332   3.980   2.128  22.690  0.3915  0.2228  0.0248
 2183W        W 4333  29.057   7.441  16.594  0.1243  0.1006 -0.0771
 2184W        W 4334  24.197   6.261  25.814 -0.5106 -0.1021 -0.2181
 2185W        W 4335  19.353   3.718   2.596  0.0934 -0.2908 -0.0493
 2186W        W 4336  27.941   6.742  25.145  0.0379 -0.2248  0.1077
 2187W        W 4337  19.384   0.505  20.648 -0.4790 -0.0398 -0.1299
 2188W        W 4338   9.255   3.527   8.480 -0.1876 -0.2508 -0.0424
 2189W        W 4339  15.285   2.836  10.645 -0.1174  0.1123 -0.2405
 2190W        W 4340  27.272   0.753  18.654 -0.1682 -0.0858  0.3228
 2191W        W 4341   2.296   0.363  26.057  0.4271  0.0831  0.0072
 2192W        W 4342   3.262   3.720  19.944 -0.2204  0.0264 -0.1964
 2193W        W 4343  21.248   5.814  25.610 -0.1844  0.1673  0.1524
 2194W        W 4344   6.068   3.471  24.527 -0.1533  0.3464  0.0685
 2195W        W 4345  19.062   1.296  15.119 -0.0202 -0.1314 -0.2169
 2196W        W 4346  22.722   7.657  23.338 -0.0861  0.1698 -0.0490
 2197W        W 4347  18.333   7.768   4.015 -0.1738 -0.3786  0.1800
 2198W        W 4348  26.046   1.335  11.767 -0.0363 -0.1701  0.0812
 2199W        W 4349  13.844   6.568   3.185 -0.2738  0.0514 -0.0977
 2200W        W 4350  15.040   3.831  24.892 -0.0064 -0.0450 -0.1047
 2201W        W 4351  11.919   0.615  18.616  0.2703  0.3969  0.2602
 2202W        W 4352  16.609   0.652   9.570 -0.0276 -0.2175 -0.2807
 2203W        W 4353   1.303   5.886  25.455  0.0234  0.0970  0.1856
 2204W        W 4354   6.126   6.676   9.875 -0.1644  0.0226  0.0225
 2205W        W 4355   2.973   2.974  20.870  0.0588 -0.0149 -0.1580
 2206W        W 4356  17.137   7.647   5.989 -0.2311  0.0757 -0.1717
 2207W        W 4357  19.571   6.888   5.410 -0.0161 -0.1394  0.2805
 2208W        W 4358  11.115   7.198  21.309  0.1031 -0.0822 -0.0761
 2209W        W 4359   0.637   2.136  17.909  0.0044  0.2609  0.0716
 2210W        W 4360  15.703   0.484   5.482  0.2664 -0.0781  0.0173
 2211W        W 4361  18.229   5.211   3.555  0.1539  0.1109  0.0283
 2212W        W 4362  13.050   3.140   9.609 -0.0419  0.1882 -0.3041
 2213W        W 4363   7.813   2.683  21.257  0.0301  0.3970  0.0102
 2214W        W 4364  10.745   0.269   2.630  0.0018 -0.0123  0.2000
 2215W        W 4365  21.600   2.607  19.423 -0.2059  0.2262  0.0138
 2216W        W 4366  30.073   6.671   7.039 -0.3397 -0.0016 -0.1669
 2217W        W 4367  18.216   4.873   6.203 -0.0832  0.0769  0.2567
 2218W        W 4368  25.985   3.789   7.847  0.1115  0.2410 -0.2212
 2219W        W 4369  26.571   6.780  20.162 -0.1308  0.0494 -0.1927
 2220W        W 4370  13.158   4.585   1.428 -0.0459 -0.0849 -0.3268
 2221W        W 4371  16.313   0.478  21.455  0.0465  0.0608 -0.1433
 2222W        W 4372  28.380   1.952   2.834 -0.4503  0.0071  0.1197
 2223W        W 4373  27.707   6.713  16.910  0.3708  0.0730 -0.1193
 2224W        W 4374  24.081   5.852  20.810 -0.4545 -0.1425  0.1206
 2225W        W 4375  30.672   5.219  10.814  0.0453 -0.4255  0.0936
 2226W        W 4376   9.442   7.343  17.225 -0.0480 -0.0809  0.2208
 2227W        W 4377  12.492   6.823   1.280  0.2749 -0.0400 -0.1384
 2228W        W 4378  24.845   6.500   1.958  0.2211 -0.0933 -0.1634
 2229W        W 4379  29.388   2.759   7.068 -0.0748 -0.1074  0.1411
 2230W        W 4380  16.991   3.523  11.344  0.1455 -0.1639 -0.2683
 2231W        W 4381  18.877   6.115  10.204  0.0389  0.3028  0.2671
 2232W        W 4382  20.169   6.807  22.948 -0.0523  0.0544  0.3029
 2233W        W 4383  29.087   7.159   5.493  0.0366 -0.0987  0.2695
 2234W        W 4384  21.574   6.049  21.456 -0.1292 -0.1376 -0.0545
 2235W        W 4385  21.940   3.921   9.285 -0.2532  0.0674 -0.3291
 2236W        W 4386  18.512   6.718  17.230  0.0607  0.0448 -0.0045
 2237W        W 4387   3.390   6.000   7.725  0.0091 -0.2978 -0.0707
 2238W        W 4388   0.641   2.360  15.553 -0.0010 -0.2107  0.0330
 2239W        W 4389  18.133   2.187   2.507 -0.1672 -0.4052  0.1077
 2240W        W 4390  13.320   6.674  21.232  0.1905 -0.2717  0.0207
 2241W        W 4391   2.807   0.437   6.962 -0.2757 -0.0815 -0.1043
 2242W        W 4392  16.469   4.037  25.077  0.2673  0.4587  0.2420
 2243W        W 4393  28.811   2.796  24.377  0.1364 -0.1862 -0.1073
 2244W        W 4394  18.013   5.614   5.507 -0.0631  0.0692 -0.2677
 2245W        W 4395  12.488   0.340  25.953  0.1227  0.0763  0.1511
 2246W        W 4396  24.061   4.719  25.080 -0.0472  0.0963 -0.0674
 2247W        W 4397  26.907   7.200  24.015 -0.0111  0.2264 -0.3606
 2248W        W 4398  13.231   5.036  26.138 -0.2693  0.4302 -0.1500
 2249W        W 4399  22.070   6.903  19.869  0.3947  0.0043 -0.1016
 2250W        W 4400  23.717   2.636   9.634  0.2306  0.1006  0.1344
 2251W        W 4401  30.186   1.113  18.162  0.1939 -0.2641 -0.2894
 2252W        W 4402  11.299   2.718  21.560  0.0687  0.1982 -0.0549
 2253W        W 4403  13.336   1.897  19.534  0.2743 -0.2851 -0.1326
 2254W        W 4404   4.748   7.238   2.063 -0.0382 -0.1568  0.1325
 2255W        W 4405  29.853   2.822   6.056  0.1332 -0.0072 -0.0208
 2256W        W 4406  17.508   1.480  16.174 -0.0915  0.0373  0.1279
 2257W        W 4407  24.522   7.371   0.108 -0.0855  0.0063  0.2615
 2258W        W 4408  20.482   4.205  23.351 -0.1497 -0.2358 -0.1626
 2259W        W 4409   0.948   0.160   0.691 -0.0648  0.1657 -0.3922
 2260W        W 4410  16.464   1.564  19.896 -0.0860  0.0847 -0.3794
 2261W        W 4411   0.484   5.803  21.796 -0.0362  0.3088  0.0175
 2262W        W 4412  18.763   3.905  20.421 -0.0441 -0.1999 -0.1287
 2263W        W 4413   1.420   2.629   7.681  0.0421 -0.0906  0.1763
 2264W        W 4414  18.907   1.765  24.738 -0.4024  0.1003  0.2122
 2265W        W 4415   7.005   4.513  16.712  0.2412  0.2445 -0.0578
 2266W        W 4416   6.044   1.479   3.423 -0.0791 -0.2330  0.4178
 2267W        W 4417  12.240   3.376   1.248 -0.0525  0.1069  0.1740
 2268W        W 4418  30.094   1.051  15.428  0.1198 -0.0374 -0.0054
 2269W        W 4419   8.642   7.656  16.913 -0.3326  0.5454 -0.1979
 2270W        W 4420  13.045   6.456   9.623 -0.0063  0.0098  0.1040
 2271W        W 4421  19.432   3.002  18.798  0.2395 -0.2898  0.1455
 2272W        W 4422  26.015   4.056  24.296  0.1950  0.0542 -0.1785
 2273W        W 4423  13.896   0.113  19.775 -0.0908  0.0622 -0.1241
 2274W        W 4424  23.116   2.297   2.147  0.1175 -0.0699 -0.0532
 2275W        W 4425  29.391   1.107  26.106 -0.1499  0.0440 -0.3606
 2276W        W 4426   0.939   3.759  22.497 -0.0974  0.1837 -0.2125
 2277W        W 4427  30.254   4.159   1.369 -0.0991 -0.1358 -0.0617
 2278W        W 4428   9.380   0.431   3.424  0.0745 -0.0954 -0.1120
 2279W        W 4429  13.951   5.326   1.339 -0.1113 -0.1050 -0.1051
 2280W        W 4430  30.372   6.831   2.669  0.0652  0.0756 -0.0808
 2281W        W 4431  10.238   1.071   7.209 -0.0869 -0.0265  0.0484
 2282W        W 4432  26.422   0.276  10.098  0.1546 -0.0766  0.2326
 2283W        W 4433  29.461   6.667  16.425  0.1415 -0.0658 -0.1599
 2284W        W 4434  10.919   0.512  19.826 -0.0925  0.2157 -0.0318
 2285W        W 4435   3.960   5.481  20.944  0.1333 -0.2417  0.1819
 2286W        W 4436  14.510   3.785  18.222 -0.0080 -0.1752 -0.1173
 2287W        W 4437  24.490   3.194   2.207 -0.0618 -0.1159 -0.0148
 2288W        W 4438  17.843   0.583  20.790  0.0103  0.0410 -0.1175
 2289W        W 4439   4.283   3.488  24.521  0.1659  0.0276  0.0416
 2290W        W 4440   6.621   4.660  11.365  0.2167  0.2078  0.1508
 2291W        W 4441  25.791   3.772  23.597  0.1535 -0.2910 -0.1184
 2292W        W 4442  30.451   0.278  26.202  0.0061 -0.0038  0.1272
 2293W        W 4443  12.419   6.924  24.857 -0.1526 -0.0578  0.0402
 2294W        W 4444  18.496   6.084   9.338 -0.0417  0.0089  0.0993
 2295W        W 4445   7.906   7.423   8.844 -0.2309  0.0779 -0.4140
 2296W        W 4446  12.381   6.395   6.615  0.0786 -0.1913  0.1208
 2297W        W 4447  28.143   2.001   5.778 -0.1265  0.2541 -0.1625
 2298W        W 4448   3.716   1.421   9.772 -0.1169  0.0314  0.1601
 2299W        W 4449   5.572   3.474  19.913  0.0246  0.1240 -0.2365
 2300W        W 4450   0.860   1.192   6.973 -0.2891  0.1736 -0.1541
 2301W        W 4451   1.630   1.153   1.880 -0.0177 -0.0348  0.0643
 2302W        W 4452  30.142   0.272   7.813 -0.0881  0.1618  0.1935
 2303W        W 4453  30.000   7.275  19.483  0.0285  0.2378  0.1344
 2304W        W 4454   3.620   4.540   4.756  0.0331  0.0960 -0.1471
 2305W        W 4455  21.661   4.883  20.075 -0.1651 -0.1053 -0.2318
 2306W        W 4456   4.244   6.327  21.223 -0.0862  0.0426  0.1822
 2307W        W 4457   2.581   6.512  15.396 -0.1935 -0.0403 -0.0721
 2308W        W 4458  27.425   4.440  17.345  0.0931 -0.2386 -0.0558
 2309W        W 4459  23.870   0.706  18.308 -0.0540  0.0689 -0.0174
 2310W        W 4460  27.950   1.012   1.068  0.0583 -0.1447  0.0371
 2311W        W 4461  13.489   7.155   9.125  0.0252  0.0667  0.2046
 2312W        W 4462  21.393   0.379   5.267 -0.1313 -0.0542  0.0818
 2313W        W 4463  20.207   0.935   0.711 -0.2387 -0.2933 -0.0061
 2314W        W 4464  22.401   5.611   5.355  0.1960  0.0521  0.0251
 2315W        W 4465   7.053   6.550  25.722 -0.0473  0.1047 -0.0748
 2316W        W 4466  25.793   4.506   9.391  0.0330 -0.0272 -0.2325
 2317W        W 4467  19.630   3.949   1.735 -0.0624 -0.0434  0.1321
 2318W        W 4468   6.386   6.489   3.077  0.1273  0.3020  0.2348
 2319W        W 4469  26.655   1.188  22.511 -0.0097 -0.1725  0.1481
 2320W        W 4470  11.776   1.835  19.295  0.4338 -0.2075  0.0165
 2321W        W 4471  14.794   6.939   0.243 -0.0632 -0.5185 -0.2281
 2322W        W 4472   2.548   6.623   2.285  0.1998  0.2333 -0.2447
 2323W        W 4473  12.015   6.016   6.762 -0.2929 -0.0658  0.1840
 2324W        W 4474  13.372   0.543   0.389 -0.1938 -0.0416 -0.0777
 2325W        W 4475  20.651   5.491  25.161 -0.2104  0.1874 -0.1108
 2326W        W 4476  14.968   2.503   0.675  0.2351  0.1672 -0.0819
 2327W        W 4477  21.226   2.950  10.023 -0.1969 -0.0438  0.2090
 2328W        W 4478  15.826   1.080  23.188 -0.0445 -0.2903 -0.0300
 2329W        W 4479  30.131   5.705  21.335 -0.0492 -0.2134  0.1064
 2330W        W 4480  25.929   4.548  23.952 -0.0803  0.0202  0.0930
 2331W        W 4481  19.978   6.803  16.411 -0.2286  0.1667  0.0024
 2332W        W 4482   6.031   5.106   6.123 -0.1501 -0.2318  0.1995
 2333W        W 4483  16.103   0.815  17.302  0.1746  0.2241 -0.0078
 2334W        W 4484   2.360   0.468  17.139 -0.3463  0.0022 -0.3656
 2335W        W 4485  18.387   7.603  10.937  0.2384 -0.1033 -0.0532
 2336W        W 4486   0.888   1.772   4.088 -0.0962 -0.2791  0.2221
 2337W        W 4487   5.774   4.905  23.898 -0.1501  0.1610  0.0081
 2338W        W 4488  14.565   0.447  23.734  0.2011  0.0170  0.4413
 2339W        W 4489  25.304   6.519   8.432 -0.1709 -0.1809  0.1383
 2340W        W 4490  17.302   0.840  22.400 -0.0131 -0.0724 -0.1223
 2341W        W 4491   0.615   3.503   0.740 -0.0792 -0.1771  0.3461
 2342W        W 4492  20.095   7.270  21.952  0.1431  0.2116 -0.0825
 2343W        W 4493   8.892   3.874  11.036  0.1744  0.0454  0.1254
 2344W        W 4494  17.694   5.237  21.127 -0.2220 -0.0738  0.2524
 2345W        W 4495  23.851   0.072  22.014 -0.0543  0.2768 -0.2055
 2346W        W 4496  15.244   7.696  26.189 -0.2942  0.1863  0.1747
 2347W        W 4497  28.889   4.064   7.396 -0.1080 -0.2908 -0.1899
 2348W        W 4498  15.345   3.101   3.461 -0.0224  0.2110 -0.0184
 2349W        W 4499  28.531   4.034   8.520 -0.3067  0.0588 -0.0248
 2350W        W 4500   4.853   4.655  20.667 -0.0262  0.3023  0.0006
 2351W        W 4501  22.718   3.825   5.918 -0.0672  0.2226  0.2069
 2352W        W 4502  23.864   5.618  11.491  0.0986  0.0597 -0.1971
 2353W        W 4503  29.724   2.409  25.545 -0.0574 -0.1446 -0.2630
 2354W        W 4504  20.994   7.469   3.639  0.1452  0.2424 -0.0467
 2355W        W 4505   3.791   5.282   8.722  0.0547 -0.1545  0.0898
 2356W        W 4506   7.813   2.449  22.246 -0.4246  0.1843  0.0569
 2357W        W 4507  23.508   3.230   9.557 -0.3094 -0.2626  0.2648
 2358W        W 4508   5.071   6.884   5.087  0.0606 -0.1387 -0.3362
 2359W        W 4509  20.152   6.110  11.578  0.0510 -0.0391  0.0082
 2360W        W 4510  21.615   1.547  20.429 -0.0324 -0.0935 -0.0699
 2361W        W 4511  23.698   0.330  17.725  0.1150 -0.0019 -0.3569
 2362W        W 4512   1.822   6.249  23.609 -0.2504  0.1108  0.2083
 2363W        W 4513   1.923   3.900   6.300 -0.1001  0.1306  0.1504
 2364W        W 4514  10.657   1.506   7.219 -0.0379  0.1491 -0.1259
 2365W        W 4515  21.859   3.599   3.911 -0.0934 -0.1374  0.0435
 2366W        W 4516   2.312   5.542   9.881 -0.2682  0.0510 -0.1343
 2367W        W 4517  14.790   7.162  21.775  0.0867  0.2411  0.0830
 2368W        W 4518   2.619   2.441  26.039  0.0632  0.1086  0.2840
 2369W        W 4519  28.235   6.205  21.555 -0.1365  0.0273  0.3334
 2370W        W 4520  25.138   3.064  20.082 -0.1164 -0.2208  0.0212
 2371W        W 4521  29.029   4.507   7.194  0.2033 -0.1877 -0.0193
 2372W        W 4522  23.338   2.736  19.831  0.1236  0.1886  0.0806
 2373W        W 4523  19.060   3.681  15.560  0.0643 -0.1001 -0.1518
 2374W        W 4524   0.218   0.718   6.060 -0.0186  0.0892  0.0246
 2375W        W 4525   6.987   6.223   5.989  0.0194  0.2485 -0.1470
 2376W        W 4526  18.683   3.136   5.457 -0.2607 -0.2053  0.1625
 2377W        W 4527  16.564   3.102  22.172  0.0824  0.2480  0.0689
 2378W        W 4528  15.869   4.611   1.736 -0.0596 -0.0792  0.5527
 2379W        W 4529   6.058   1.032  19.944 -0.1968  0.1301  0.1124
 2380W        W 4530   1.368   4.633   0.963 -0.0446 -0.5477 -0.1273
 2381W        W 4531  18.782   5.953   6.325 -0.0627 -0.1960 -0.2330
 2382W        W 4532  18.036   1.561  24.531 -0.0319  0.0878 -0.2958
 2383W        W 4533  14.969   5.671  23.297  0.0869 -0.2406  0.4039
 2384W        W 4534   8.758   7.427   3.995  0.1503 -0.0325  0.1077
 2385W        W 4535  24.339   2.021   6.945  0.0988 -0.0035  0.1899
 2386W        W 4536  16.398   6.192   2.717  0.1916  0.1625 -0.0602
 2387W        W 4537   3.724   3.878  22.104 -0.1804  0.2792 -0.0057
 2388W        W 4538  28.634   2.914  26.189 -0.3432  0.3518  0.0713
 2389W        W 4539  22.358   7.595   1.504  0.2091  0.0285  0.1625
 2390W        W 4540  17.257   0.602   7.810 -0.2545 -0.2653  0.0994
 2391W        W 4541  23.662   6.907  18.470 -0.1147  0.4118 -0.2956
 2392W        W 4542  24.452   6.811   8.598 -0.4438 -0.1412 -0.3395
 2393W        W 4543  20.732   3.204  11.263 -0.1436  0.1081  0.1646
 2394W        W 4544  27.033   3.159   2.075  0.1164  0.1067 -0.1256
 2395W        W 4545  20.166   7.637   5.794 -0.0649 -0.2768  0.1683
 2396W        W 4546  30.959   3.978  25.785  0.1020  0.0984  0.3584
 2397W        W 4547  21.748   6.740  22.197 -0.1427 -0.1925 -0.1327
 2398W        W 4548  25.156   0.716  25.157  0.2999  0.0911 -0.1503
 2399W        W 4549  25.560   2.546  16.239  0.1593  0.0739 -0.0364
 2400W        W 4550  19.174   2.334  19.164  0.0260 -0.0313 -0.0593
 2401W        W 4551  30.532   1.994   7.892 -0.0127  0.0356 -0.0479
 2402W        W 4552   2.698   7.433   7.067  0.0780 -0.0006 -0.0059
 2403W        W 4553  23.073   0.553   8.027 -0.1137  0.0926  0.0329
 2404W        W 4554  27.270   6.471  11.188  0.0124 -0.0983 -0.4260
 2405W        W 4555  28.610   4.464  22.462 -0.2172  0.0978 -0.2083
 2406W        W 4556  21.636   2.831  19.895  0.2223 -0.1947 -0.0114
 2407W        W 4557  25.478   6.607   8.951 -0.1400  0.1131  0.0043
 2408W        W 4558  27.369   2.503   5.741 -0.1082  0.0050 -0.1653
 2409W        W 4559  15.044   0.599  25.595  0.1785  0.2178  0.1298
 2410W        W 4560  23.637   4.131   4.567 -0.1539 -0.2544 -0.3729
 2411W        W 4561  24.068   0.358   5.542  0.0565 -0.3453 -0.0896
 2412W        W 4562  21.522   2.296   4.313 -0.1568 -0.2494  0.4006
 2413W        W 4563  18.197   7.031  17.542 -0.1074  0.1486 -0.1873
 2414W        W 4564  14.821   0.159   8.167  0.1264  0.1201  0.0851
 2415W        W 4565   2.198   7.460   6.827 -0.0712 -0.0925 -0.0643
 2416W        W 4566  10.983   5.836   0.916  0.0561 -0.1192 -0.0290
 2417W        W 4567   4.036   3.870  20.370  0.1176 -0.0009 -0.3067
 2418W        W 4568   5.156   5.109  25.377 -0.0427 -0.1262  0.1240
 2419W        W 4569   3.015   5.903  26.185  0.2892  0.2669 -0.0309
 2420W        W 4570   0.639   7.498   8.076  0.0719  0.1488 -0.2651
 2421W        W 4571  16.708   3.266   9.263  0.0109 -0.0313  0.0193
 2422W        W 4572  21.423   3.524   2.013 -0.2586 -0.0655  0.2819
 2423W        W 4573  30.753   3.517  19.143  0.0439 -0.0082  0.1999
 2424W        W 4574  12.123   3.179   5.144  0.0722 -0.3362 -0.3292
 2425W        W 4575  28.136   7.550   5.060  0.2020  0.0683  0.0419
 2426W        W 4576  15.464   4.636  19.800  0.0435 -0.3377 -0.0557
 2427W        W 4577   5.118   0.919  18.113 -0.0212 -0.2170 -0.0652
 2428W        W 4578  10.147   3.151  22.693 -0.2137 -0.3334  0.0233
 2429W        W 4579  27.156   4.493   4.711 -0.0353 -0.1673  0.0162
 2430W        W 4580   7.596   2.314  25.483 -0.0041 -0.3880 -0.0146
 2431W        W 4581  15.819   7.237   1.474  0.0306  0.1003 -0.0984
 2432W        W 4582  21.188   4.073  11.057  0.0811  0.0866 -0.1528
 2433W        W 4583   7.385   7.178   1.720  0.1132 -0.4328  0.1537
 2434W        W 4584  29.470   5.223  17.958 -0.1325  0.3571 -0.1775
 2435W        W 4585  23.663   1.425   8.795  0.1108 -0.1085  0.1063
 2436W        W 4586   2.981   7.421   4.144  0.1153  0.3038 -0.0214
 2437W        W 4587  25.620   2.633  21.688 -0.0974  0.4355 -0.0898
 2438W        W 4588  19.367   4.434   1.872  0.0399 -0.1785 -0.1582
 2439W        W 4589   2.222   0.302   3.140 -0.1447  0.3433 -0.0336
 2440W        W 4590  26.004   4.796  19.418  0.0412 -0.1183  0.1724
 2441W        W 4591   7.112   7.175  16.712  0.0302  0.0260 -0.1448
 2442W        W 4592  16.702   5.585  21.970  0.0546  0.0245 -0.1063
 2443W        W 4593   4.632   2.479  15.990  0.4617  0.2207 -0.0526
 2444W        W 4594  29.250   1.259   9.991 -0.5346 -0.0070 -0.1547
 2445W        W 4595  16.692   5.276  16.684  0.0135 -0.0742 -0.2674
 2446W        W 4596  18.955   3.305  16.918 -0.2108  0.1792  0.1709
 2447W        W 4597  25.993   0.152  10.419  0.0652 -0.2334  0.0753
 2448W        W 4598  30.164   6.662  24.297 -0.1944  0.2344 -0.1756
 2449W        W 4599   1.525   7.782   2.493 -0.2250 -0.1175 -0.1311
 2450W        W 4600   9.404   5.744   5.149  0.0900  0.3436 -0.3099
 2451W        W 4601  18.148   5.721   1.846  0.1709 -0.1474 -0.0308
 2452W        W 4602  27.756   7.113  21.239  0.1219  0.0826 -0.1699
 2453W        W 4603  15.396   2.190   8.244 -0.2019  0.2315  0.1553
 2454W        W 4604   0.352   7.427  15.304  0.3355  0.1935 -0.2648
 2455W        W 4605  16.893   3.840   7.741  0.1627 -0.0969  0.0266
 2456W        W 4606  10.367   0.759   3.355  0.1620  0.0772  0.0478
 2457W        W 4607   3.723   0.547  17.429  0.1140 -0.1433  0.2026
 2458W        W 4608  15.414   0.745  10.108 -0.0057  0.0643  0.0158
 2459W        W 4609  12.653   7.255  17.031  0.2098 -0.0977 -0.0050
 2460W        W 4610   3.589   3.763   6.080 -0.1093 -0.1378  0.0422
 2461W        W 4611   6.835   1.981  26.116  0.6385  0.1109  0.0570
 2462W        W 4612  10.676   2.686   9.677  0.0434  0.1204 -0.0756
 2463W        W 4613  11.878   5.838   1.356 -0.0657  0.1083  0.1192
 2464W        W 4614   8.530   1.868  18.382 -0.1415 -0.0182  0.1661
 2465W        W 4615  23.506   6.862  21.108 -0.1881 -0.0818  0.0145
 2466W        W 4616  18.029   1.667  20.693  0.2227 -0.0049 -0.0096
 2467W        W 4617  17.027   0.777  19.524 -0.3056  0.0617 -0.2461
 2468W        W 4618  24.576   4.852   5.660 -0.2900 -0.2810 -0.2267
 2469W        W 4619  14.521   1.398   6.732 -0.1442 -0.2051  0.1149
 2470W        W 4620  22.362   6.461  10.570 -0.0093  0.2336  0.0263
 2471W        W 4621  20.663   2.225   4.935  0.1761  0.2466  0.1579
 2472W        W 4622   8.233   5.683   7.538 -0.1399  0.3147  0.0347
 2473W        W 4623  13.470   0.620   1.354 -0.1210 -0.0067  0.1652
 2474W        W 4624   4.025   1.710   6.796 -0.4535 -0.1168 -0.0057
 2475W        W 4625  12.045   0.713   7.186  0.0935  0.3808  0.2676
 2476W        W 4626  23.083   1.375  16.098  0.0890 -0.1141  0.0535
 2477W        W 4627  30.718   2.015   4.403  0.2735 -0.3063 -0.1018
 2478W        W 4628  21.327   0.239   8.930 -0.0601 -0.3088 -0.2115
 2479W        W 4629   1.417   6.887   3.007 -0.0031 -0.0540  0.3859
 2480W        W 4630  14.045   1.932  16.240 -0.0266  0.0507 -0.0517
 2481W        W 4631   9.033   2.941   3.034 -0.1663 -0.0991 -0.0948
 2482W        W 4632   2.551   4.182  18.604 -0.0399  0.0133  0.0538
 2483W        W 4633  28.767   7.054  17.891 -0.2158  0.0101  0.1875
 2484W        W 4634   9.458   3.854  15.096 -0.1463 -0.1336 -0.1953
 2485W        W 4635  13.611   6.186  24.953 -0.0932 -0.0602 -0.3741
 2486W        W 4636  28.090   0.503  17.417 -0.0171 -0.0470  0.1965
 2487W        W 4637   4.935   2.945   1.091 -0.3136 -0.2197  0.3043
 2488W        W 4638  22.440   2.020  15.670  0.1811 -0.0095 -0.1331
 2489W        W 4639  25.952   0.026   7.817 -0.0191 -0.0662 -0.1475
 2490W        W 4640  13.603   3.178  22.077  0.0094 -0.2505  0.3044
 2491W        W 4641  18.688   6.798   7.198 -0.0527  0.0301  0.2120
 2492W        W 4642  29.341   3.745  17.119  0.4154  0.2419  0.1351
 2493W        W 4643  13.637   6.793  14.883 -0.0286  0.1287 -0.1936
 2494W        W 4644  14.841   0.657   8.354  0.1619 -0.1290 -0.2908
 2495W        W 4645  20.612   5.209   8.851  0.4240 -0.1685 -0.1555
 2496W        W 4646  13.224   0.521   7.175  0.1603 -0.0020  0.2211
 2497W        W 4647   7.477   1.442  16.356  0.0281 -0.1483 -0.1878
 2498W        W 4648  25.491   5.298   4.749 -0.1482  0.3785  0.1689
 2499W        W 4649   4.513   2.064   1.513 -0.0381 -0.2896 -0.2455
 2500W        W 4650  18.858   1.474   3.067 -0.1135 -0.0860  0.1367
 2501W        W 4651  13.788   6.512  23.269 -0.1473  0.0621 -0.0525
 2502W        W 4652   2.804   4.675  18.671  0.2709  0.2115  0.1513
 2503W        W 4653   7.745   3.322   9.182  0.1525 -0.2739  0.0331
 2504W        W 4654   6.215   4.826  21.932  0.0215 -0.0038 -0.0747
 2505W        W 4655   5.934   3.150   1.264 -0.1472 -0.1537  0.0261
 2506W        W 4656  18.590   5.190  17.460 -0.2246 -0.1316 -0.1606
 2507W        W 4657  11.973   1.873  24.171  0.1093  0.2196  0.2950
 2508W        W 4658  19.591   5.744  17.630 -0.1345 -0.3716 -0.2150
 2509W        W 4659   3.511   0.395   2.224  0.2352  0.0977  0.2184
 2510W        W 4660  28.607   3.096   7.473  0.2778  0.2515  0.0490
 2511W        W 4661  27.472   0.749   1.896 -0.1312 -0.1520 -0.2380
 2512W        W 4662  28.203   6.970   7.615 -0.1242 -0.1941  0.0830
 2513W        W 4663  17.792   0.209   4.098 -0.0165 -0.0158  0.0427
 2514W        W 4664   0.897   5.663   9.153 -0.1721  0.1151 -0.0073
 2515W        W 4665   2.310   7.520   8.528  0.1487  0.2932  0.1731
 2516W        W 4666  27.542   7.547  25.065 -0.1704  0.0217 -0.1575
 2517W        W 4667  18.975   1.572  19.313 -0.2095 -0.1121 -0.1802
 2518W        W 4668   5.506   3.290  22.968  0.0321  0.1126 -0.0748
 2519W        W 4669  19.153   3.187   9.856  0.1458 -0.3104  0.0376
 2520W        W 4670   9.621   0.142   3.115 -0.1994 -0.0348  0.0294
 2521W        W 4671  23.477   4.874   9.141  0.0502  0.1417 -0.0505
 2522W        W 4672  17.394   4.431   6.420 -0.0385  0.0121  0.2626
 2523W        W 4673  11.303   7.493   7.464 -0.0226 -0.1359 -0.1822
 2524W        W 4674   0.758   6.502  17.845 -0.0816  0.1615  0.1745
 2525W        W 4675  16.669   0.380   8.706 -0.1233 -0.2082  0.0109
 2526W        W 4676   8.299   5.195  15.424  0.1295 -0.1100 -0.0319
 2527W        W 4677   9.482   5.467   5.897  0.0513 -0.1075  0.0912
 2528W        W 4678  21.875   1.322   7.877 -0.2182 -0.0234 -0.0131
 2529W        W 4679  20.813   4.321  25.340  0.2385  0.2392  0.2042
 2530W        W 4680  13.190   5.730   9.819 -0.1025  0.2835 -0.1158
 2531W        W 4681   2.722   6.070  25.214  0.3635 -0.0972  0.0671
 2532W        W 4682   7.132   4.250  17.843 -0.1524 -0.1977  0.1389
 2533W        W 4683  23.803   2.580  11.236  0.1810 -0.1823  0.0674
 2534W        W 4684   3.155   3.824   9.079 -0.0473  0.2362  0.1125
 2535W        W 4685  19.772   7.721   9.952  0.0057  0.2102 -0.1146
 2536W        W 4686   2.520   4.120  17.657  0.1047  0.0075 -0.1390
 2537W        W 4687   3.690   7.599  15.936  0.0216  0.0971  0.1515
 2538W        W 4688  19.769   3.943   2.870 -0.3622 -0.0930 -0.0956
 2539W        W 4689  12.985   0.083   4.925  0.1602 -0.3420 -0.2799
 2540W        W 4690  30.907   2.551   1.328 -0.0329 -0.2227  0.0086
 2541W        W 4691  25.253   7.749   5.857  0.0258  0.1164  0.2436
 2542W        W 4692   7.069   4.903  19.480 -0.0148  0.1838  0.1860
 2543W        W 4693  28.969   6.262  23.682 -0.3163  0.4280 -0.0142
 2544W        W 4694  18.424   6.028  18.287 -0.1548 -0.1470  0.0848
 2545W        W 4695  27.711   3.957  15.186  0.1526  0.1119  0.1432
 2546W        W 4696  17.311   4.470  25.469 -0.1546 -0.2463 -0.0157
 2547W        W 4697  24.763   5.574  23.264  0.0528  0.1920 -0.3188
 2548W        W 4698  29.909   6.606  25.212  0.0289  0.0028 -0.2275
 2549W        W 4699   2.302   2.628  22.276 -0.2357 -0.2797 -0.0336
 2550W        W 4700  22.103   4.038  16.691 -0.0638 -0.0842 -0.0938
 2551W        W 4701  14.610   1.397   9.351 -0.2134  0.2741 -0.0848
 2552W        W 4702   6.355   6.410  23.106 -0.4159 -0.0174  0.1572
 2553W        W 4703  22.363   3.031  22.052 -0.1412  0.0369 -0.2827
 2554W        W 4704  18.459   5.791  20.556 -0.0234  0.0365 -0.0091
 2555W        W 4705   4.591   0.641  24.340  0.0827 -0.1522  0.0670
 2556W        W 4706   8.281   7.242   9.387 -0.0125  0.3290 -0.1181
 2557W        W 4707   2.086   5.400  17.067  0.0024 -0.0232  0.0765
 2558W        W 4708   4.820   6.360   1.850 -0.0485 -0.2441 -0.0097
 2559W        W 4709   0.885   7.405   6.442 -0.1400 -0.0998 -0.1019
 2560W        W 4710   0.742   4.407  11.166  0.3908 -0.1182 -0.2256
 2561W        W 4711  28.044   0.611  22.365 -0.2043  0.1496  0.1523
 2562W        W 4712  12.614   6.298  25.078 -0.1729  0.0210  0.3076
 2563W        W 4713  18.402   0.718  22.533  0.2472 -0.0743  0.0055
 2564W        W 4714  17.910   3.625   6.327 -0.2254  0.1461  0.1760
 2565W        W 4715   0.997   3.314   4.594 -0.1681 -0.0102  0.0579
 2566W        W 4716  24.550   3.698  23.518 -0.0108  0.1455  0.2229
 2567W        W 4717  26.989   1.109   0.317 -0.4189  0.0796  0.2397
 2568W        W 4718  28.721   2.424  26.138 -0.0778  0.3343  0.1717
 2569W        W 4719  19.973   5.188  19.845  0.4617  0.1325  0.3087
 2570W        W 4720  14.863   2.974   0.954 -0.3632 -0.1647 -0.3460
 2571W        W 4721  18.580   3.629   3.979  0.0618  0.0758 -0.0893
 2572W        W 4722   4.536   1.671  16.974 -0.4330  0.0205  0.1886
 2573W        W 4723   3.336   2.419  15.167 -0.0233  0.0686 -0.0969
 2574W        W 4724  14.033   4.530   7.363  0.0965 -0.0644  0.2885
 2575W        W 4725  12.234   4.925  22.010  0.3160  0.1397 -0.0720
 2576W        W 4726  15.403   6.251  25.100  0.2157 -0.0352  0.1067
 2577W        W 4727  10.898   2.266  22.213  0.0684 -0.0064  0.2265
 2578W        W 4728  14.334   2.969  23.793  0.0878  0.3571  0.1485
 2579W        W 4729  20.106   1.637   5.110 -0.0269  0.2978 -0.1535
 2580W        W 4730  11.668   7.278  21.507  0.0720  0.2263  0.1026
 2581W        W 4731  22.888   4.987  20.344  0.2408 -0.1651  0.3563
 2582W        W 4732  17.638   6.427  20.354  0.0621 -0.2005  0.1416
 2583W        W 4733  24.465   7.625   1.209  0.0201 -0.1894 -0.1193
 2584W        W 4734  29.102   1.311  18.396 -0.3304 -0.2188 -0.0112
 2585W        W 4735   4.003   4.695   2.611  0.0129 -0.0639  0.2579
 2586W        W 4736  21.154   1.885  21.168 -0.4730  0.1516 -0.0240
 2587W        W 4737  24.343   2.655   5.174 -0.0855  0.1341  0.0929
 2588W        W 4738  16.566   0.055  16.307 -0.2081  0.2004  0.4316
 2589W        W 4739  22.956   0.122  20.552  0.0853  0.0604  0.0965
 2590W        W 4740  22.232   4.020  19.941  0.0426  0.0330  0.0603
 2591W        W 4741  30.151   7.765   6.382 -0.1451 -0.1721  0.1502
 2592W        W 4742  14.857   5.534   1.518  0.3966 -0.0147 -0.0134
 2593W        W 4743   5.490   0.142   3.953 -0.2289 -0.0808 -0.0120
 2594W        W 4744  20.914   4.468  22.663  0.0244 -0.3299 -0.2275
 2595W        W 4745   3.144   5.185   7.935 -0.0028 -0.0393 -0.1964
 2596W        W 4746  10.005   2.495   5.112  0.0773 -0.1826 -0.0511
 2597W        W 4747  27.696   7.153  22.750  0.0504 -0.1538 -0.2924
 2598W        W 4748   1.476   4.081  22.597 -0.0567 -0.2813 -0.1858
 2599W        W 4749  13.218   5.533  26.149 -0.1834 -0.2093 -0.0374
 2600W        W 4750  18.126   6.606   0.019 -0.0230  0.4661 -0.2474
 2601W        W 4751   9.923   3.579   2.294 -0.1760 -0.1670 -0.1922
 2602W        W 4752  19.930   4.733  22.977  0.0699  0.0533  0.2267
 2603W        W 4753   6.209   0.047  20.046  0.1364 -0.1836 -0.0938
 2604W        W 4754   1.378   3.451   7.962 -0.0479 -0.0093  0.0279
 2605W        W 4755  16.586   3.154   2.820 -0.2454 -0.1659  0.3471
 2606W        W 4756   5.475   0.578  16.858  0.2760 -0.1757 -0.1818
 2607W        W 4757  16.199   1.463   3.557  0.0295 -0.2625 -0.1369
 2608W        W 4758  27.690   7.214   2.136 -0.0689 -0.2819  0.4095
 2609W        W 4759  17.029   5.328   5.571  0.0980 -0.2439 -0.0973
 2610W        W 4760  18.946   2.011   3.957 -0.1099  0.4312 -0.0360
 2611W        W 4761   4.421   0.293  24.766 -0.0174  0.3734 -0.0027
 2612W        W 4762  27.707   6.934   9.607  0.1950  0.1942 -0.0419
 2613W        W 4763  14.058   0.695  21.040  0.0525 -0.0292  0.1938
 2614W        W 4764   2.047   5.294   1.516  0.0553 -0.1535  0.3128
 2615W        W 4765  14.305   2.797  19.866 -0.0569  0.1376 -0.3617
 2616W        W 4766   5.863   1.499  23.022  0.1367  0.1806 -0.1692
 2617W        W 4767  20.809   6.293  25.775 -0.3022  0.0520 -0.1724
 2618W        W 4768  22.793   0.263   9.810 -0.1359 -0.3682 -0.4979
 2619W        W 4769  16.772   0.711  23.198  0.2199 -0.0302  0.1590
 2620W        W 4770   5.100   7.744  10.703 -0.0213 -0.1741 -0.2834
 2621W        W 4771  12.318   7.463  18.314 -0.1226  0.0109 -0.1857
 2622W        W 4772  28.758   1.761  19.256 -0.0835  0.2239  0.0060
 2623W        W 4773   5.884   4.635  16.016 -0.4148 -0.0214  0.0953
 2624W        W 4774   1.446   2.440  25.814 -0.1164 -0.1615  0.2999
 2625W        W 4775  21.111   3.116   4.054  0.2007  0.2221 -0.0596
 2626W        W 4776   4.392   0.378   4.883  0.0309 -0.0722  0.3121
 2627W        W 4777  24.538   6.801   8.031 -0.0577 -0.1506 -0.2500
 2628W        W 4778  27.714   6.284   2.482 -0.3059  0.1204  0.0922
 2629W        W 4779   9.103   5.768  10.463 -0.1321 -0.1602 -0.0701
 2630W        W 4780  30.679   3.293  20.639 -0.1565  0.0265  0.1304
 2631W        W 4781   6.952   3.554  23.579 -0.0226  0.0534 -0.0405
 2632W        W 4782  21.685   4.546  22.131  0.3192 -0.0141  0.1085
 2633W        W 4783   5.795   3.321  17.754 -0.1076  0.0867 -0.2749
 2634W        W 4784   0.039   2.904  10.851  0.0251  0.2560  0.0785
 2635W        W 4785  17.783   3.701  25.693  0.2293 -0.0177  0.1491
 2636W        W 4786  17.122   1.635  18.367  0.0681  0.1270 -0.1694
 2637W        W 4787  29.788   1.177  23.875  0.0263 -0.1951 -0.1477
 2638W        W 4788  11.782   7.579  22.366 -0.1791 -0.0856  0.1702
 2639W        W 4789  22.781   4.378   7.008  0.2451 -0.2919 -0.1169
 2640W        W 4790  27.842   7.412  25.883  0.1101 -0.0704 -0.1144
 2641W        W 4791  12.405   4.973  20.407  0.0657  0.0417 -0.1350
 2642W        W 4792   7.465   4.646   2.710 -0.2822  0.2530 -0.0310
 2643W        W 4793  16.994   3.831  10.351  0.1486 -0.1378 -0.1458
 2644W        W 4794  26.050   5.586  10.413 -0.2457  0.0038 -0.0605
 2645W        W 4795   8.812   0.018  15.044 -0.0729  0.0465  0.0476
 2646W        W 4796  14.143   7.150  18.765 -0.0280  0.2103  0.1020
 2647W        W 4797  18.961   2.005   5.658  0.0715 -0.1526  0.0001
 2648W        W 4798  16.888   4.391  16.611  0.2028 -0.0327 -0.1468
 2649W        W 4799   7.360   3.299  16.016 -0.1019  0.3103 -0.3503
 2650W        W 4800  24.278   5.873   6.617 -0.0184  0.2274  0.0539
 2651W        W 4801   7.305   3.830   8.570 -0.1464 -0.0311  0.1312
 2652W        W 4802  24.100   7.327   5.555 -0.1017  0.3614  0.0176
 2653W        W 4803  16.556   1.581  15.890 -0.2371  0.3442 -0.2325
 2654W        W 4804  25.628   4.021  25.195  0.0749 -0.0085  0.1659
 2655W        W 4805  11.981   6.761   2.195 -0.1897 -0.0889  0.0093
 2656W        W 4806  25.836   7.681   5.902  0.0590  0.1053 -0.0205
 2657W        W 4807  28.357   6.441  18.167 -0.0432  0.0906  0.4475
 2658W        W 4808  29.357   2.930  20.938  0.1203  0.0406 -0.1359
 2659W        W 4809  13.312   0.478  17.862 -0.3311 -0.0816 -0.2234
 2660W        W 4810  18.648   6.771  23.987  0.2119 -0.2145 -0.2214
 2661W        W 4811  30.712   7.484   5.550  0.2656 -0.1057 -0.1842
 2662W        W 4812  28.090   2.419   1.249 -0.0887 -0.3752  0.1858
 2663W        W 4813  27.788   2.543  10.059 -0.1583  0.0022 -0.0562
 2664W        W 4814  11.699   4.223  10.087  0.0898  0.2164  0.2183
 2665W        W 4815   2.747   4.673   9.314  0.0162 -0.3101  0.0136
 2666W        W 4816  13.567   3.170   8.652 -0.0834  0.0008  0.0468
 2667W        W 4817  29.019   6.644   5.373 -0.1303  0.0464  0.0319
 2668W        W 4818  24.261   7.780   7.888 -0.0705  0.1173  0.2368
 2669W        W 4819  18.602   1.881   8.689  0.3445 -0.1778  0.1449
 2670W        W 4820   3.896   4.149   6.145  0.0945 -0.0868 -0.0512
 2671W        W 4821   9.672   5.912   7.855  0.1934 -0.2086 -0.2375
 2672W        W 4822  28.659   3.958  19.736 -0.5662  0.0201 -0.0980
 2673W        W 4823  25.860   4.844  20.452  0.0555  0.0720  0.5501
 2674W        W 4824  26.373   5.214  11.166 -0.0123 -0.0010 -0.1780
 2675W        W 4825   5.306   7.350  17.196 -0.0989  0.0954  0.1168
 2676W        W 4826  26.467   7.695   7.783 -0.0069  0.0878  0.3856
 2677W        W 4827  17.506   0.542  22.952 -0.0155  0.0682  0.2586
 2678W        W 4828  13.380   6.301  15.228  0.1866 -0.1488 -0.0743
 2679W        W 4829  19.720   7.780  25.143  0.0109 -0.0001 -0.0347
 2680W        W 4830  16.665   0.968  10.565  0.0519  0.1666  0.1876
 2681W        W 4831   7.116   0.399  10.326  0.1469  0.0857  0.4033
 2682W        W 4832   7.783   0.951  17.616  0.0051 -0.1879  0.1649
 2683W        W 4833   9.975   6.003  20.456 -0.1774  0.1175 -0.2257
 2684W        W 4834   7.013   1.870   0.956 -0.1212  0.3322  0.1502
 2685W        W 4835  23.211   2.877  24.817 -0.0246 -0.0874  0.0443
 2686W        W 4836   0.848   0.311   2.847  0.1495 -0.0246 -0.2048
 2687W        W 4837  28.927   6.037  24.153 -0.1234 -0.0997 -0.3928
 2688W        W 4838  26.898   7.012  20.763  0.1807 -0.0663 -0.0785
 2689W        W 4839   5.975   6.906   2.394 -0.1756 -0.0537 -0.0902
 2690W        W 4840   7.738   5.975  25.774 -0.1818 -0.1228 -0.1082
 2691W        W 4841  21.121   4.678  15.636  0.3250  0.0644 -0.3279
 2692W        W 4842  30.491   2.730  22.049 -0.0078 -0.0257 -0.1647
 2693W        W 4843  20.617   6.097  21.034 -0.1321  0.0686  0.2549
 2694W        W 4844   4.420   1.260  10.542 -0.0955 -0.3222  0.2664
 2695W        W 4845   4.247   1.165   2.321 -0.0650  0.1580 -0.0201
 2696W        W 4846   8.977   1.135   4.540 -0.0742  0.2831  0.1522
 2697W        W 4847   0.087   6.742  16.714 -0.2221 -0.1305  0.0970
 2698W        W 4848   6.575   0.108  19.691  0.2575  0.0724 -0.1161
 2699W        W 4849  25.488   4.746  23.804  0.2192 -0.2139  0.0135
 2700W        W 4850  29.105   3.511  22.187  0.0498  0.0849  0.0676
 2701W        W 4851   4.214   1.298   6.534 -0.2130  0.0987  0.0893
 2702W        W 4852   7.505   0.822  20.106  0.5436  0.1534 -0.0521
 2703W        W 4853  24.344   0.564  23.115 -0.0402 -0.0139  0.1545
 2704W        W 4854   8.544   5.340  25.745  0.0968 -0.1148  0.1179
 2705W        W 4855   2.501   3.983  10.345 -0.0854 -0.0320  0.0397
 2706W        W 4856   7.368   4.895  16.589 -0.0782 -0.4373 -0.1683
 2707W        W 4857  14.384   0.687   7.137  0.3409  0.0207  0.3866
 2708W        W 4858   1.775   4.466  23.353  0.1103  0.0096 -0.3891
 2709W        W 4859   7.661   2.583  10.044  0.0916 -0.0279  0.2543
 2710W        W 4860  14.870   2.841  21.429 -0.0177 -0.2054  0.2025
 2711W        W 4861  15.060   5.965   9.103  0.1104  0.5471  0.0195
 2712W        W 4862   2.757   4.783  16.879  0.0741 -0.0925 -0.0220
 2713W        W 4863  10.865   2.977  11.613  0.0602 -0.0394  0.0764
 2714W        W 4864  26.154   4.158   9.376 -0.0066  0.2195  0.1469
 2715W        W 4865  20.065   4.505   7.239  0.0955 -0.2278 -0.0130
 2716W        W 4866  20.003   2.735   5.274 -0.0428  0.1005 -0.0957
 2717W        W 4867  21.986   3.768   1.509  0.0061  0.0910  0.1218
 2718W        W 4868  18.749   6.237   8.935 -0.1712  0.2007  0.0541
 2719W        W 4869   7.048   1.564   0.221 -0.1072  0.0805 -0.1217
 2720W        W 4870  20.917   7.768  22.082  0.1211  0.0335  0.1306
 2721W        W 4871  10.419   4.864  22.585 -0.1736  0.1182 -0.1925
 2722W        W 4872  16.296   1.554   0.631  0.3592  0.3537  0.1228
 2723W        W 4873  22.520   1.198  25.719 -0.0043 -0.0482 -0.2280
 2724W        W 4874  15.559   3.423  10.024 -0.0619 -0.0404 -0.0153
 2725W        W 4875  27.290   6.994  24.256  0.2245 -0.0397 -0.1333
 2726W        W 4876  11.579   4.080   1.154 -0.2180  0.4260  0.0997
 2727W        W 4877   6.092   2.168   2.302 -0.2749  0.0817  0.1269
 2728W        W 4878  15.097   5.854  17.603  0.0238 -0.2548 -0.0166
 2729W        W 4879  25.076   6.376  20.060 -0.0223  0.1104  0.1239
 2730W        W 4880  22.779   7.596  17.883 -0.0343  0.1128  0.0876
 2731W        W 4881  19.524   6.466   6.095  0.0031  0.0446  0.0585
 2732W        W 4882  24.486   4.370  10.236  0.1263 -0.3690 -0.0740
 2733W        W 4883  11.924   6.010  16.748  0.2196 -0.1520 -0.1949
 2734W        W 4884   3.110   6.532   9.061 -0.1773 -0.1256 -0.4564
 2735W        W 4885  30.039   5.614  15.915 -0.1726  0.0892 -0.1440
 2736W        W 4886  21.538   4.893  10.166  0.0483  0.1831  0.0592
 2737W        W 4887   3.961   5.436  19.796  0.1861  0.0978  0.0453
 2738W        W 4888  19.682   7.684   0.003  0.0889  0.1196 -0.2655
 2739W        W 4889   4.049   7.745  24.667 -0.3022  0.3449  0.2179
 2740W        W 4890   7.330   4.638   3.552  0.0270 -0.0006 -0.0497
 2741W        W 4891  17.607   6.735  24.220  0.0476 -0.1911  0.0784
 2742W        W 4892  26.182   7.582  23.603 -0.0738  0.2943 -0.1723
 2743W        W 4893  15.633   0.784   9.667 -0.0070 -0.2298 -0.0762
 2744W        W 4894  18.977   5.998  15.814 -0.0870 -0.0006 -0.0179
 2745W        W 4895  12.204   4.433   7.004  0.1327 -0.0706  0.2020
 2746W        W 4896  24.243   4.345  21.951 -0.0671  0.2331  0.0279
 2747W        W 4897  19.779   3.798   5.150 -0.0339 -0.0697  0.3162
 2748W        W 4898  25.805   1.684   5.304 -0.0815 -0.0417  0.4002
 2749W        W 4899  13.092   0.986  14.851  0.2553  0.1699  0.0254
 2750W        W 4900  29.632   1.847   8.028  0.0038 -0.1332 -0.2060
 2751W        W 4901  13.506   3.904  21.415  0.1289 -0.2874  0.1575
 2752W        W 4902   3.346   2.525   8.274 -0.1334  0.2427  0.0839
 2753W        W 4903   3.932   2.696  16.338  0.1289 -0.0350  0.0352
 2754W        W 4904  31.103   7.261  18.455  0.1333 -0.1267  0.1586
 2755W        W 4905  20.473   6.139   6.816  0.2027 -0.0128  0.0815
 2756W        W 4906  16.614   1.808  19.260 -0.2327 -0.2282 -0.0669
 2757W        W 4907  29.157   0.423  18.372  0.0258 -0.1885 -0.0900
 2758W        W 4908  27.566   1.587  26.088 -0.5150  0.0368 -0.0846
 2759W        W 4909  20.160   5.776  16.290  0.1410 -0.0951 -0.0792
 2760W        W 4910  23.108   6.017   6.494  0.1454  0.1247 -0.3351
 2761W        W 4911   4.360   7.678  19.144  0.2667  0.5596  0.1065
 2762W        W 4912   0.480   1.062  15.692  0.2747 -0.2019  0.1053
 2763W        W 4913   6.827   1.254   7.696 -0.2055  0.0308  0.0598
 2764W        W 4914  10.034   6.527   7.429  0.0521 -0.1784  0.0605
 2765W        W 4915  27.170   1.335  17.374  0.0618 -0.2301 -0.2092
 2766W        W 4916  11.823   0.354   4.771 -0.1416 -0.2289  0.2027
 2767W        W 4917   5.022   0.409   1.285  0.1204 -0.3160  0.1748
 2768W        W 4918   0.433   3.061  23.275 -0.2223  0.3097 -0.2642
 2769W        W 4919  29.317   2.126   5.735 -0.1185  0.1800 -0.0401
 2770W        W 4920  26.695   6.609   6.128  0.0284 -0.0504 -0.2993
 2771W        W 4921  23.904   0.614   4.732  0.0737 -0.0500  0.2494
 2772W        W 4922  26.847   4.311   6.060  0.2427  0.0534  0.0985
 2773W        W 4923  14.997   2.071  10.188 -0.1221  0.3592  0.0567
 2774W        W 4924  28.424   0.577   5.408 -0.0393 -0.0687 -0.1796
 2775W        W 4925  30.496   6.892  25.950 -0.0336  0.0083 -0.0176
 2776W        W 4926   1.548   2.695  10.647  0.0020  0.0858  0.1126
 2777W        W 4927   1.417   0.963  23.102 -0.2285 -0.2657 -0.0190
 2778W        W 4928  10.486   5.343   2.679  0.2874 -0.3055  0.0429
 2779W        W 4929  26.305   6.649  24.542 -0.2127 -0.0068 -0.1910
 2780W        W 4930  28.038   6.992  19.723  0.0446 -0.0633  0.0485
 2781W        W 4931   4.402   0.261   7.620  0.0322 -0.4459  0.2138
 2782W        W 4932  29.110   7.037   5.979 -0.0514 -0.2231  0.5048
 2783W        W 4933  12.083   2.467   9.874  0.2246  0.1349  0.1645
 2784W        W 4934  15.298   1.443   3.758 -0.1439 -0.1617  0.0445
 2785W        W 4935   6.608   6.159  17.407 -0.2436  0.3756 -0.1246
 2786W        W 4936  17.061   1.035  22.829 -0.0138 -0.1274  0.0878
 2787W        W 4937   4.894   7.533  17.429  0.0134 -0.1246 -0.0669
 2788W        W 4938  22.338   4.593   6.328 -0.2050 -0.2771 -0.1099
 2789W        W 4939   4.460   3.821   4.481 -0.1546 -0.0250  0.0366
 2790W        W 4940  14.999   3.447  17.330 -0.0742 -0.0500  0.0310
 2791W        W 4941   8.029   6.520   0.138 -0.1439 -0.0935 -0.1258
 2792W        W 4942  28.006   2.385  21.749  0.0891  0.1255 -0.2119
 2793W        W 4943  22.636   0.393   3.019  0.0415  0.0126 -0.0962
 2794W        W 4944  26.077   6.401   3.988 -0.1990  0.0458  0.0742
 2795W        W 4945  22.523   7.223   9.949 -0.0822  0.0959  0.0973
 2796W        W 4946   5.711   1.411  10.725  0.1408  0.1743 -0.0246
 2797W        W 4947  15.039   1.011  15.156 -0.1745 -0.0161  0.0600
 2798W        W 4948  20.556   4.513  18.617 -0.0593 -0.0287  0.0153
 2799W        W 4949  22.912   5.854  16.351 -0.0837  0.1774  0.2551
 2800W        W 4950  11.562   0.950  15.006  0.1172 -0.1473 -0.0421
 2801W        W 4951   8.528   1.345   2.176  0.0189  0.1564  0.0085
 2802W        W 4952  23.130   2.492  25.630  0.0664  0.1066 -0.0150
 2803W        W 4953   0.726   6.163   5.658 -0.2106  0.1292  0.0280
 2804W        W 4954  12.179   3.971  23.678  0.1338 -0.2559 -0.0235
 2805W        W 4955   3.360   1.844   4.667  0.1731 -0.0679  0.2922
 2806W        W 4956  11.620   1.382   5.934  0.0566  0.0591  0.2059
 2807W        W 4957  13.585   3.119  18.916  0.0688  0.0573  0.0928
 2808W        W 4958   8.083   4.037  25.331 -0.0044  0.1976 -0.0606
 2809W        W 4959  23.005   1.925  18.862 -0.3001  0.1836  0.1562
 2810W        W 4960   0.253   5.520  20.812  0.0457  0.0366  0.1658
 2811W        W 4961   7.823   6.674  10.547  0.0955 -0.0962  0.0507
 2812W        W 4962   4.592   2.642  17.183  0.1942  0.2269 -0.0725
 2813W        W 4963   8.276   6.739  20.895  0.3277  0.0804  0.0429
 2814W        W 4964  25.070   7.713  17.230  0.0137  0.0101  0.1601
 2815W        W 4965   1.426   7.216  21.932 -0.1350  0.1026 -0.0352
 2816W        W 4966  10.850   6.797  20.009 -0.0315  0.2223 -0.1638
 2817W        W 4967   0.500   4.190   8.722 -0.0908  0.1078  0.1858
 2818W        W 4968   0.611   0.938   0.784 -0.1870 -0.0563 -0.1130
 2819W        W 4969   5.467   4.825   8.277 -0.0254 -0.0177  0.0976
 2820W        W 4970  30.070   1.001  17.584 -0.2230 -0.1743 -0.0016
 2821W        W 4971  23.372   1.248  10.848 -0.0503  0.1100  0.0938
 2822W        W 4972  27.691   3.542   4.998 -0.1441 -0.2046  0.2555
 2823W        W 4973  27.647   7.396   3.948 -0.1131  0.1038  0.3880
 2824W        W 4974  23.006   3.825   6.350  0.0996  0.3298  0.1148
 2825W        W 4975   9.410   0.247   3.993  0.3294  0.0676  0.1629
 2826W        W 4976  25.516   0.370  25.952 -0.1670 -0.4667  0.1126
 2827W        W 4977  23.365   0.847   2.695 -0.0453 -0.0849  0.2131
 2828W        W 4978   2.598   3.145   8.543  0.2349 -0.1096  0.1813
 2829W        W 4979  22.771   5.256  21.526  0.1510 -0.1188  0.0870
 2830W        W 4980   7.802   7.487   8.333 -0.1815 -0.0972  0.0188
 2831W        W 4981   6.283   2.600   0.704  0.0258  0.1886 -0.0057
 2832W        W 4982   3.201   3.064   1.416  0.2708 -0.2841 -0.1454
 2833W        W 4983   6.971   3.874  21.658  0.2229  0.0796 -0.1269
 2834W        W 4984  30.652   3.001   2.212 -0.1150  0.0159 -0.3108
 2835W        W 4985  14.665   7.159   3.024 -0.0440 -0.1028  0.1657
 2836W        W 4986  24.837   6.027   8.313  0.2039 -0.3204  0.5404
 2837W        W 4987  20.556   2.983  17.221  0.2037 -0.0829  0.2919
 2838W        W 4988  21.451   5.240  18.459  0.2380  0.0321 -0.1341
 2839W        W 4989  23.965   2.040   4.006 -0.1376 -0.5284  0.0627
 2840W        W 4990  30.293   0.676  23.910 -0.2355 -0.1379 -0.2462
 2841W        W 4991  11.148   5.240  23.135 -0.1903 -0.4522 -0.0920
 2842W        W 4992  20.793   2.037   1.648 -0.4127  0.1119  0.2348
 2843W        W 4993  18.964   0.524  16.882 -0.0259 -0.0455 -0.2268
 2844W        W 4994  10.644   6.106  15.534 -0.3764 -0.0340 -0.0644
 2845W        W 4995   0.736   7.249   3.739 -0.1821  0.0865  0.0443
 2846W        W 4996   8.379   2.472  24.983 -0.2785  0.3211 -0.1293
 2847W        W 4997  10.014   4.022   6.220  0.2207  0.0682 -0.1613
 2848W        W 4998  26.413   4.236   0.851 -0.2042  0.2649  0.1174
 2849W        W 4999  11.151   4.894  20.506 -0.0210  0.1210 -0.2020
 2850W        W 5000   3.021   1.081  19.019  0.2903 -0.3196  0.2072
 2851W        W 5001  23.632   3.816  23.524 -0.1931  0.1074  0.0525
 2852W        W 5002  15.923   0.987   5.620 -0.0394 -0.1541 -0.0709
 2853W        W 5003  20.551   0.923  11.645 -0.0990 -0.1377  0.0217
 2854W        W 5004   3.953   1.875  21.813  0.3526 -0.0566 -0.2095
 2855W        W 5005  16.786   3.375   3.233  0.0554 -0.1900 -0.1444
 2856W        W 5006  21.418   5.880   8.066 -0.0557  0.1277 -0.0399
 2857W        W 5007  14.911   1.746   2.107  0.3260 -0.1046 -0.0343
 2858W        W 5008  22.055   1.798   9.072  0.1284  0.2632 -0.1390
 2859W        W 5009   2.080   3.946   5.219 -0.1001 -0.0090  0.0940
 2860W        W 5010  25.208   7.300  16.973  0.2237  0.2756  0.0206
 2861W        W 5011  18.692   4.548   5.627 -0.0505  0.4308 -0.3575
 2862W        W 5012   0.714   3.283   0.206  0.1260 -0.0536 -0.1959
 2863W        W 5013  12.509   2.545   2.802 -0.1248 -0.0982 -0.0346
 2864W        W 5014   1.129   4.932   1.345  0.0721  0.0316 -0.2297
 2865W        W 5015  25.315   7.281  20.645  0.0989  0.1132  0.0358
 2866W        W 5016  22.896   3.807  22.958  0.3799  0.2082 -0.1833
 2867W        W 5017  22.094   4.060   9.766 -0.3709  0.1429  0.2564
 2868W        W 5018  18.505   2.475  25.333 -0.2882  0.0501 -0.4430
 2869W        W 5019   5.178   7.699  22.210 -0.2613  0.0364  0.2637
 2870W        W 5020   5.895   1.792   6.003 -0.3954  0.1758  0.1869
 2871W        W 5021   7.001   4.629   8.273  0.3533 -0.0124  0.0685
 2872W        W 5022   4.268   7.191  15.861  0.1004  0.2032 -0.1096
 2873W        W 5023   0.744   3.284  23.594  0.0957 -0.2532  0.0626
 2874W        W 5024  17.988   4.700   3.473 -0.4197 -0.2307 -0.1697
 2875W        W 5025  18.273   7.430   2.121  0.1011  0.3116 -0.0820
 2876W        W 5026  30.834   2.546   2.362 -0.1623 -0.1894  0.4677
 2877W        W 5027  26.999   3.948  23.901 -0.2144 -0.1223 -0.0657
 2878W        W 5028  10.860   2.302  18.739  0.1974  0.0623  0.1814
 2879W        W 5029   4.874   5.701  15.975 -0.0164 -0.0544  0.0927
 2880W        W 5030  17.160   2.569  21.827  0.1519 -0.0738 -0.0444
 2881W        W 5031  26.849   3.315   4.846  0.0484  0.2397 -0.2738
 2882W        W 5032   3.390   1.139   8.454 -0.1493 -0.0874 -0.1631
 2883W        W 5033  25.270   6.275   2.570  0.0514 -0.2284 -0.0057
 2884W        W 5034   5.120   7.544   1.974 -0.1812 -0.1757 -0.0662
 2885W        W 5035  26.797   1.400   9.832  0.0644  0.0159  0.1564
 2886W        W 5036  17.525   6.904  25.698 -0.2486 -0.3710 -0.0962
 2887W        W 5037  13.395   0.731   6.669  0.1745 -0.1567  0.2596
 2888W        W 5038  19.376   5.862  18.402 -0.0692 -0.0232 -0.0837
 2889W        W 5039  22.974   0.762  10.177 -0.0393 -0.0572  0.1105
 2890W        W 5040  22.078   2.109   4.267 -0.0340 -0.2449 -0.1121
 2891W        W 5041  25.523   4.117   4.214 -0.2349  0.2379  0.0391
 2892W        W 5042  26.062   4.609   9.002 -0.1330 -0.0370  0.1547
 2893W        W 5043  28.860   6.473   1.170 -0.2471  0.0246  0.3321
 2894W        W 5044  19.898   4.258  25.043  0.1415  0.0386 -0.2436
 2895W        W 5045  19.461   6.754  23.699  0.0509  0.2305 -0.0466
 2896W        W 5046   5.704   7.712  16.426  0.0646  0.2029 -0.0436
 2897W        W 5047  12.733   3.959  24.738 -0.0828  0.0563 -0.2401
 2898W        W 5048   8.958   2.357   0.505  0.2860  0.0178  0.0001
 2899W        W 5049  25.974   3.321   7.798 -0.0441 -0.0633 -0.2991
 2900W        W 5050  14.626   0.065   2.891  0.1892  0.0358 -0.3040
 2901W        W 5051   1.409   2.723   1.708  0.2046  0.3154  0.2234
 2902W        W 5052   4.093   1.428  10.216  0.1269  0.2898  0.1374
 2903W        W 5053  11.795   1.336   9.322  0.1436 -0.4469  0.1563
 2904W        W 5054  27.871   4.377   7.866  0.1860 -0.2746 -0.0312
 2905W        W 5055  13.876   3.109   8.233 -0.1324  0.0056 -0.0904
 2906W        W 5056  20.835   2.685   4.821  0.2482  0.1569  0.1148
 2907W        W 5057  23.601   1.279   7.784 -0.0250  0.1026  0.2835
 2908W        W 5058  18.699   7.638  24.930  0.0454 -0.3545  0.1990
 2909W        W 5059  28.144   3.764  17.520  0.2522 -0.0857  0.3822
 2910W        W 5060   5.695   1.642  21.291 -0.0340 -0.0396 -0.0565
 2911W        W 5061  21.839   1.155   1.293 -0.0070  0.1154  0.2158
 2912W        W 5062  16.150   5.121  16.332  0.2727  0.0774 -0.1258
 2913W        W 5063  15.488   5.234   3.456 -0.1834  0.0190  0.0110
 2914W        W 5064  25.944   4.610   4.028 -0.1006 -0.3100  0.0568
 2915W        W 5065  12.190   7.731  25.563 -0.1137 -0.2669 -0.0543
 2916W        W 5066  12.329   6.791   5.598  0.0505  0.2086  0.1136
 2917W        W 5067  10.680   1.957   7.501  0.3022 -0.0910 -0.3001
 2918W        W 5068  15.647   6.733  17.321 -0.1982 -0.0231  0.0373
 2919W        W 5069  23.448   2.192   3.967 -0.0245  0.0127 -0.1209
 2920W        W 5070  23.966   1.134   4.918  0.1907 -0.0024  0.1320
 2921W        W 5071   8.953   2.870  19.408 -0.3001  0.1007 -0.3637
 2922W        W 5072   7.450   2.991  10.289  0.0141 -0.1942 -0.3083
 2923W        W 5073   3.116   7.604  23.838 -0.0807 -0.0606 -0.2725
 2924W        W 5074  13.182   1.435   1.548  0.1522 -0.1006 -0.1811
 2925W        W 5075  19.605   0.940  19.702 -0.0233 -0.3348  0.1292
 2926W        W 5076  14.655   6.647  18.761 -0.1206  0.1027 -0.1184
 2927W        W 5077   8.418   3.841  19.456  0.0741  0.2229 -0.0383
 2928W        W 5078  17.518   7.719  20.102  0.1623 -0.0510  0.3452
 2929W        W 5079  27.913   5.334   1.024  0.2384  0.1760 -0.2152
 2930W        W 5080  12.245   1.583   3.619 -0.3374 -0.1668  0.1665
 2931W        W 5081   4.805   7.231  20.588 -0.1417 -0.1721 -0.2827
 2932W        W 5082  23.874   6.411  24.247  0.2461 -0.1122  0.0048
 2933W        W 5083   6.934   6.915   2.415  0.2226  0.1417 -0.1281
 2934W        W 5084   2.584   6.524   6.862 -0.0549  0.0296 -0.1247
 2935W        W 5085  14.396   0.130  25.209 -0.4322  0.0184  0.2030
 2936W        W 5086  26.075   0.329   3.023  0.0638 -0.0113 -0.1531
 2937W        W 5087   2.909   6.806   8.695 -0.0090 -0.0512  0.2005
 2938W        W 5088  26.558   5.252  23.802  0.1925 -0.0863  0.3564
 2939W        W 5089  25.894   2.715  20.270 -0.0502 -0.0717  0.0042
 2940W        W 5090  15.417   4.911  18.570 -0.2482  0.0392  0.2748
 2941W        W 5091   5.774   3.003   6.607 -0.2485  0.0177 -0.2354
 2942W        W 5092  30.270   5.144   9.179 -0.0012  0.0736  0.0322
 2943W        W 5093   5.568   2.194  16.939  0.2699 -0.0124  0.1430
 2944W        W 5094  11.584   7.444   7.877  0.2086 -0.1521 -0.1897
 2945W        W 5095  28.498   1.192  20.454 -0.1464 -0.0559  0.0443
 2946W        W 5096   4.009   2.297   5.122  0.1523  0.3087  0.1528
 2947W        W 5097  11.027   5.682  21.614  0.0656 -0.0456 -0.2464
 2948W        W 5098  19.747   2.061  18.758 -0.0414 -0.0995 -0.1798
 2949W        W 5099  23.906   7.711  10.583  0.0306 -0.5403  0.0683
 2950W        W 5100   6.646   2.861   3.375  0.1039 -0.1823  0.1529
 2951W        W 5101  28.871   7.353   3.226 -0.1007  0.0362  0.0418
 2952W        W 5102   0.479   5.267   4.865 -0.2966 -0.0208  0.0829
 2953W        W 5103   4.439   5.147  10.769 -0.2475 -0.1070  0.2644
 2954W        W 5104  25.263   0.283  19.385  0.2478  0.1189 -0.0563
 2955W        W 5105   6.169   3.626  21.029 -0.0025 -0.0150  0.1761
 2956W        W 5106  13.675   4.953  15.144  0.0875 -0.0840  0.0911
 2957W        W 5107  28.108   4.647  21.724  0.2228 -0.0054  0.2397
 2958W        W 5108  27.450   6.610  25.155 -0.2430 -0.2491  0.4459
 2959W        W 5109  18.874   7.587   0.720 -0.2592  0.1915  0.0090
 2960W        W 5110   2.067   0.251  20.759 -0.4495  0.1496  0.0149
 2961W        W 5111   8.913   0.260  22.008  0.0436  0.0230 -0.0194
 2962W        W 5112  10.854   1.104   2.556 -0.0189 -0.1014 -0.0251
 2963W        W 5113  15.237   6.702   4.823  0.4053  0.2361  0.0452
 2964W        W 5114  30.611   1.503  22.362  0.1493  0.0240 -0.1206
 2965W        W 5115   5.056   7.662   0.120 -0.0456  0.2903  0.1819
 2966W        W 5116  20.880   7.347   3.148  0.0139  0.0710  0.0050
 2967W        W 5117  22.385   7.628   8.510 -0.3165  0.3266 -0.0512
 2968W        W 5118  14.342   6.071   0.864 -0.0362  0.2133  0.0103
 2969W        W 5119  14.535   0.645  20.803  0.0725 -0.1446 -0.1753
 2970W        W 5120   2.060   5.960   5.661  0.3585  0.0416 -0.2766
 2971W        W 5121   6.931   6.095   8.332 -0.0058  0.1414  0.3320
 2972W        W 5122  26.149   2.257  16.736 -0.1186 -0.0528 -0.1939
 2973W        W 5123  13.457   4.094  17.883 -0.1424  0.1270  0.1299
 2974W        W 5124  11.387   5.225   3.310  0.3990 -0.2989  0.0604
 2975W        W 5125   3.196   0.644   9.281  0.1753 -0.1792  0.1187
 2976W        W 5126   9.938   2.512   5.953  0.1341  0.2649 -0.1831
 2977W        W 5127  20.147   6.252   4.692  0.1228 -0.0658  0.0902
 2978W        W 5128   4.998   6.269  20.146  0.1812 -0.1485  0.3830
 2979W        W 5129  26.728   2.782  22.623  0.3282  0.1428 -0.1980
 2980W        W 5130   0.008   1.945   3.235 -0.1152 -0.0823 -0.2078
 2981W        W 5131  19.798   6.348  23.765  0.1420  0.0711 -0.1403
 2982W        W 5132   5.894   3.053  15.862 -0.1595 -0.0349 -0.2256
 2983W        W 5133  22.653   1.172   3.106 -0.0441 -0.2295  0.2950
 2984W        W 5134  20.620   5.226   0.484 -0.1325 -0.4223  0.0392
 2985W        W 5135   4.240   3.649  17.633 -0.0630 -0.2866  0.1980
 2986W        W 5136   8.516   3.065   8.840  0.1110 -0.3132  0.0710
 2987W        W 5137  13.554   7.366   2.552  0.0971  0.0897 -0.1523
 2988W        W 5138  17.721   6.531  16.849 -0.1699  0.0897 -0.1684
 2989W        W 5139   0.195   0.998  19.177  0.1187  0.2067 -0.0719
 2990W        W 5140   4.599   5.078   1.176  0.1697 -0.0558 -0.0828
 2991W        W 5141  16.773   4.783   8.700 -0.1232 -0.1848 -0.0788
 2992W        W 5142   8.798   5.750   9.198 -0.1713  0.0925 -0.0144
 2993W        W 5143  23.546   3.813  21.420  0.1856  0.1389 -0.0982
 2994W        W 5144  12.461   7.795  23.024 -0.2494  0.2780  0.1520
 2995W        W 5145  28.875   3.849   7.863 -0.0174  0.0294  0.1711
 2996W        W 5146  20.025   5.969  17.812  0.1769  0.0137  0.0756
 2997W        W 5147  29.416   1.992   3.027 -0.1766  0.3478  0.3249
 2998W        W 5148   1.105   2.675  16.638  0.2433  0.0497  0.2983
 2999W        W 5149   5.565   4.537  17.407  0.2127  0.0003  0.1327
 3000W        W 5150  20.881   4.439   4.295  0.3533  0.0625  0.0657
 3001W        W 5151  24.154   0.095  17.612  0.0259 -0.1304  0.0191
 3002W        W 5152  15.717   4.387  10.401 -0.0582  0.0870 -0.0460
 3003W        W 5153  16.263   5.324   2.118 -0.0390 -0.0465  0.2613
 3004W        W 5154   4.574   0.199   5.801 -0.1271  0.2217  0.4255
 3005W        W 5155   2.110   1.609  21.946  0.1409  0.0707  0.1669
 3006W        W 5156  29.812   2.015   6.692  0.2819  0.0756  0.3738
 3007W        W 5157  12.271   3.368  25.227  0.1472  0.0827 -0.0669
 3008W        W 5158  20.568   1.658   1.244 -0.1780  0.2470  0.1630
 3009W        W 5159  16.430   3.512  26.255 -0.1680  0.0534 -0.0919
 3010W        W 5160  12.877   5.975  18.503  0.0765 -0.0953 -0.1387
 3011W        W 5161  14.806   2.171  25.067  0.0610 -0.2739 -0.0553
 3012W        W 5162  28.703   1.483   2.908 -0.1233  0.3054 -0.2611
 3013W        W 5163   6.921   7.566   5.708  0.1666  0.2817  0.4624
 3014W        W 5164  17.510   3.962  10.235  0.0943  0.3654 -0.1048
 3015W        W 5165   5.741   0.321   9.786 -0.2324  0.2283 -0.1467
 3016W        W 5166  20.549   4.297  16.155  0.0695  0.2465 -0.0690
 3017W        W 5167  18.442   0.072  18.472  0.1471 -0.2469 -0.2956
 3018W        W 5168  25.299   3.605  19.920  0.0854  0.2623 -0.1081
 3019W        W 5169  30.077   6.497  22.518 -0.1883  0.2519 -0.0628
 3020W        W 5170  19.186   4.885   5.613  0.0507 -0.2121  0.3380
 3021W        W 5171  23.231   3.968   5.935  0.0569 -0.2297 -0.0125
 3022W        W 5172  16.777   1.527   4.519  0.2037 -0.0710 -0.1443
 3023W        W 5173  22.070   0.268  24.572 -0.1729 -0.0217 -0.2557
 3024W        W 5174  18.824   2.039  19.305 -0.3673 -0.1929 -0.2423
 3025W        W 5175  14.479   5.717  20.995  0.2548 -0.2396 -0.2065
 3026W        W 5176  10.219   5.927   4.115 -0.4204 -0.0475 -0.1437
 3027W        W 5177   6.028   1.632  18.200 -0.0314  0.1542 -0.0889
 3028W        W 5178   3.929   5.094   1.737 -0.0550 -0.0275  0.4137
 3029W        W 5179  28.292   4.171   3.049  0.0633  0.3352  0.0374
 3030W        W 5180  12.442   0.667   7.882 -0.0553  0.0336 -0.1138
 3031W        W 5181  17.757   3.428   4.657 -0.0393 -0.0692 -0.0683
 3032W        W 5182  22.581   4.946  10.217  0.3697 -0.0405 -0.0195
 3033W        W 5183  13.740   6.529   5.409  0.0845 -0.1037  0.3233
 3034W        W 5184   6.689   3.701  25.559 -0.2559  0.1965 -0.1309
 3035W        W 5185   2.520   6.635  22.079  0.0523 -0.0453  0.0052
 3036W        W 5186  25.426   6.603  25.106  0.0779  0.1248  0.3128
 3037W        W 5187  19.521   5.286   5.634 -0.1961  0.2075  0.0354
 3038W        W 5188  20.143   1.075   3.476 -0.0594 -0.0227 -0.1489
 3039W        W 5189  26.042   5.103   1.709 -0.2004  0.0495 -0.1621
 3040W        W 5190  25.744   0.654  16.131  0.1449  0.1112  0.0556
 3041W        W 5191  18.559   1.070   9.603  0.2849  0.0365  0.1678
 3042W        W 5192   3.278   0.479  10.610  0.2476 -0.0148  0.0349
 3043W        W 5193  21.643   4.534   8.118 -0.0972  0.0745  0.2346
 3044W        W 5194  13.840   0.776   2.044  0.0258 -0.1769  0.0571
 3045W        W 5195  18.975   0.638  23.835 -0.0646  0.0626  0.1399
 3046W        W 5196  15.165   6.522  23.598 -0.0358  0.2301  0.3444
 3047W        W 5197   4.678   0.267  19.241 -0.2036 -0.1992 -0.3226
 3048W        W 5198   4.497   6.528   7.792 -0.3746  0.1503  0.0937
 3049W        W 5199  14.059   0.119  22.853  0.0567 -0.1403 -0.1031
 3050W        W 5200  12.439   6.828  17.227 -0.0150 -0.3085 -0.1160
 3051W        W 5201  26.736   0.906   3.586  0.0437 -0.0775 -0.1934
 3052W        W 5202  30.604   2.615  16.379 -0.1200 -0.1179  0.0365
 3053W        W 5203  27.939   1.134  18.523 -0.2084  0.4112 -0.0658
 3054W        W 5204  24.954   1.207   4.632 -0.2568  0.0802 -0.0494
 3055W        W 5205  23.298   2.109   6.841  0.0115 -0.0239  0.2029
 3056W        W 5206  23.164   4.918  11.837 -0.1784 -0.0146  0.0553
 3057W        W 5207  15.444   6.960  17.705  0.3252  0.2447 -0.1438
 3058W        W 5208  12.977   5.975   1.660 -0.0555 -0.1285  0.1654
 3059W        W 5209  10.569   2.852  10.404  0.1718  0.0499 -0.0421
 3060W        W 5210   8.228   0.846  23.846  0.0989 -0.0084  0.0293
 3061W        W 5211  15.138   2.565   7.204  0.0199 -0.2079 -0.0759
 3062W        W 5212   0.094   4.527  22.578 -0.0256 -0.2687 -0.2009
 3063W        W 5213  30.461   4.217  17.388  0.1094 -0.1338 -0.1971
 3064W        W 5214  13.386   4.522   2.390 -0.3527 -0.0679  0.0140
 3065W        W 5215  29.586   7.788  24.420 -0.0917 -0.1537  0.1903
 3066W        W 5216  14.455   0.899  23.974  0.1354  0.0633  0.0438
 3067W        W 5217  19.010   3.391   0.920  0.5465 -0.1013  0.0512
 3068W        W 5218  29.417   3.440   8.592 -0.0653 -0.0605 -0.0982
 3069W        W 5219  24.820   2.179   0.097  0.0170  0.0142 -0.2199
 3070W        W 5220   5.985   4.590  18.171  0.1025  0.1986  0.0309
 3071W        W 5221  21.805   5.910  10.662  0.1437  0.4032 -0.1275
 3072W        W 5222  23.491   6.106  21.476  0.3132  0.1641 -0.2715
 3073W        W 5223   6.998   6.447  10.786 -0.1234 -0.0655  0.1491
 3074W        W 5224  24.415   6.969   6.342  0.2804 -0.0006  0.1190
 3075W        W 5225  18.854   6.988   1.877 -0.0561 -0.1749 -0.1043
 3076W        W 5226   5.966   7.386  10.531  0.0837  0.0453  0.0213
 3077W        W 5227  24.936   1.787  19.734  0.0719 -0.2363 -0.1957
 3078W        W 5228  18.425   7.516   7.081 -0.2047 -0.0018 -0.0489
 3079W        W 5229  26.039   5.552   0.645 -0.1831 -0.1131  0.0733
 3080W        W 5230   6.624   6.726  17.415  0.1512 -0.1832 -0.1675
 3081W        W 5231  24.523   5.250  21.382 -0.1205  0.0438  0.0626
 3082W        W 5232  16.607   0.643  17.334 -0.0412  0.0633 -0.1760
 3083W        W 5233  19.839   0.838   4.940  0.0028  0.5725 -0.0205
 3084W        W 5234  15.382   5.346  24.086  0.0161 -0.1958 -0.1657
 3085W        W 5235   9.845   1.347  18.667  0.0816  0.2359  0.1539
 3086W        W 5236  13.477   6.708   4.487  0.1074  0.4947 -0.0020
 3087W        W 5237  17.985   5.281   7.897  0.1714 -0.0061  0.0711
 3088W        W 5238   9.403   6.004  20.304 -0.0616  0.0987  0.1463
 3089W        W 5239   7.387   2.861   5.524  0.0379 -0.0783  0.0737
 3090W        W 5240   4.024   0.214   6.139 -0.0977 -0.1369 -0.3484
 3091W        W 5241   1.537   0.744   1.061 -0.4494 -0.0367 -0.3114
 3092W        W 5242   1.008   1.698   2.293  0.0511 -0.1566  0.1627
 3093W        W 5243  13.516   4.451  20.260 -0.0702 -0.0400  0.1470
 3094W        W 5244  16.425   4.374   6.119 -0.1797  0.1749 -0.1665
 3095W        W 5245   3.237   4.620  23.934 -0.1771  0.0118 -0.1633
 3096W        W 5246   3.410   2.477  10.657 -0.2323 -0.2417 -0.1095
 3097W        W 5247  21.430   7.420   7.485  0.2176 -0.0800  0.3366
 3098W        W 5248  23.175   5.487   4.712 -0.0783  0.2409 -0.2445
 3099W        W 5249   2.154   6.300  16.946 -0.0141  0.3819 -0.2842
 3100W        W 5250  26.556   3.531  24.430 -0.4114 -0.0169 -0.0894
 3101W        W 5251  27.822   0.310  16.577  0.0806  0.0583 -0.4112
 3102W        W 5252  12.121   1.080  21.354 -0.1616  0.0420  0.0068
 3103W        W 5253  26.591   2.947  10.595 -0.1501  0.0365  0.0839
 3104W        W 5254  16.017   2.589  10.703  0.1063 -0.0205  0.2718
 3105W        W 5255  20.980   5.174  18.670 -0.2462  0.2362  0.1505
 3106W        W 5256  24.534   7.426   9.750 -0.0299  0.2453  0.2211
 3107W        W 5257   6.980   6.769  16.906  0.0573 -0.0334 -0.0959
 3108W        W 5258  12.974   5.312  10.548  0.1170 -0.3261  0.0258
 3109W        W 5259  10.520   2.452  17.156  0.1796 -0.2852 -0.1860
 3110W        W 5260  20.820   1.675  18.391  0.1459 -0.0852  0.2527
 3111W        W 5261  26.927   6.993  25.217 -0.2944  0.1566  0.2690
 3112W        W 5262  23.065   0.750   6.991  0.1362 -0.1046 -0.0321
 3113W        W 5263  21.578   0.529   6.679 -0.1324  0.1320 -0.0155
 3114W        W 5264   6.534   3.685   0.848  0.0751 -0.1249  0.0668
 3115W        W 5265   3.243   1.234  21.691  0.2151 -0.0193 -0.5719
 3116W        W 5266   4.828   3.434  21.168  0.1166  0.0291  0.0626
 3117W        W 5267   5.472   2.832   2.870  0.3264 -0.5189  0.1269
 3118W        W 5268  19.035   6.546  21.182  0.1385  0.0724  0.1753
 3119W        W 5269  14.946   4.542  25.089  0.1431 -0.3294  0.0264
 3120W        W 5270  13.102   2.721   6.990 -0.1175 -0.1226 -0.0756
 3121W        W 5271  21.599   3.423   0.794 -0.0293 -0.2484  0.0035
 3122W        W 5272  25.517   4.780   7.395 -0.1330 -0.2721 -0.2475
 3123W        W 5273  10.082   4.387   9.659  0.1683  0.2806  0.2798
 3124W        W 5274  23.456   5.687  25.928  0.2150  0.1199 -0.1148
 3125W        W 5275   6.803   7.761  23.440  0.0853 -0.0911  0.1782
 3126W        W 5276   8.578   3.503   0.257  0.1752 -0.0640  0.1577
 3127W        W 5277  20.674   7.092  24.461  0.3441  0.0651 -0.0060
 3128W        W 5278  22.727   7.486   8.150 -0.3411  0.1376  0.0180
 3129W        W 5279  28.587   0.937   0.401 -0.4783  0.1030  0.1215
 3130W        W 5280   8.721   1.809  16.595  0.0407  0.0493  0.1300
 3131W        W 5281  23.966   1.402   0.315 -0.0216 -0.1157 -0.0507
 3132W        W 5282  24.219   6.030   4.755  0.0620 -0.1638  0.2431
 3133W        W 5283  18.531   3.292  10.965  0.1337  0.2428  0.0437
 3134W        W 5284  27.375   4.752  22.766 -0.0823 -0.1585  0.0432
 3135W        W 5285   8.302   7.096   7.141 -0.1015  0.0674 -0.2535
 3136W        W 5286   5.526   2.569   1.981 -0.3690 -0.4664  0.1047
 3137W        W 5287  25.633   7.550   1.966 -0.3693 -0.0930 -0.0336
 3138W        W 5288  13.069   4.867   2.294  0.2040  0.0784 -0.2393
 3139W        W 5289  17.587   2.181   3.403  0.0415  0.0289 -0.0612
 3140W        W 5290  16.872   6.074  23.275  0.0552  0.0197  0.0311
 3141W        W 5291  20.994   2.193   3.042 -0.1906 -0.0083 -0.2302
 3142W        W 5292   9.016   1.687  22.180 -0.1137  0.2189 -0.0652
 3143W        W 5293  17.277   1.952   3.799 -0.1972 -0.0794 -0.0961
 3144W        W 5294  27.298   6.135  16.894  0.0874 -0.1253 -0.0743
 3145W        W 5295  28.571   5.904  21.864 -0.1190  0.2150 -0.0691
 3146W        W 5296  30.062   2.520  16.928 -0.4550  0.1227 -0.2613
 3147W        W 5297   7.870   6.705   6.450  0.1141 -0.0881  0.0696
 3148W        W 5298  28.568   7.348  19.710 -0.2027 -0.0107 -0.0926
 3149W        W 5299  29.188   7.407  24.539 -0.0784 -0.2236  0.0345
 3150W        W 5300   5.664   2.338  20.637 -0.2061 -0.1074  0.1753
 3151W        W 5301   3.628   4.796   9.872 -0.0042  0.2692 -0.1938
 3152W        W 5302   3.308   3.734  21.145  0.0975 -0.2800  0.1972
 3153W        W 5303  10.586   0.368   3.102 -0.2019 -0.3390 -0.2118
 3154W        W 5304   0.071   4.900   0.387  0.1344 -0.0993 -0.1671
 3155W        W 5305   2.685   7.580   5.736 -0.0962 -0.0434 -0.0157
 3156W        W 5306  14.505   2.456  16.698  0.0772 -0.3323 -0.1995
 3157W        W 5307  16.817   6.454  22.425  0.1505 -0.0852 -0.0381
 3158W        W 5308  16.769   3.615  25.034  0.2531 -0.0107  0.1494
 3159W        W 5309  12.662   4.294  22.581 -0.1998  0.1388 -0.0449
 3160W        W 5310  26.040   2.860  19.273  0.0174  0.0787  0.2127
 3161W        W 5311  18.382   3.720  11.444 -0.3083 -0.1379 -0.1363
 3162W        W 5312   6.496   3.447  10.714 -0.0631 -0.1109  0.0103
 3163W        W 5313  17.055   7.599   1.344 -0.0994 -0.0790  0.1971
 3164W        W 5314  19.406   3.295   3.298  0.0166 -0.1850  0.2900
 3165W        W 5315  20.767   5.898   0.143  0.4300  0.2432  0.1967
 3166W        W 5316  15.030   5.049  25.019  0.2015 -0.0804  0.2630
 3167W        W 5317  19.033   4.308   9.296 -0.1054  0.0566  0.1444
 3168W        W 5318  26.084   0.496   5.463  0.0705  0.3281  0.2147
 3169W        W 5319  28.760   3.469  22.601 -0.0779  0.0457  0.2440
 3170W        W 5320  12.303   7.294   4.865  0.1119 -0.2816 -0.3806
 3171W        W 5321   3.539   1.414   0.279  0.0954 -0.0138  0.0678
 3172W        W 5322  23.861   6.605  22.037  0.3020 -0.0178 -0.1835
 3173W        W 5323  20.267   1.431   7.923 -0.0561 -0.1228  0.1714
 3174W        W 5324   0.881   1.103   2.448 -0.0903  0.0735  0.0282
 3175W        W 5325  30.597   5.550  24.873 -0.0062  0.1923 -0.1545
 3176W        W 5326  21.737   7.613  21.108  0.1342 -0.2211  0.0190
 3177W        W 5327   2.986   5.667  21.754  0.1505 -0.1147 -0.1256
 3178W        W 5328  10.833   6.589  10.707 -0.2711 -0.0906 -0.0589
 3179W        W 5329  11.008   1.421  25.376 -0.0660  0.0635  0.0546
 3180W        W 5330  17.158   2.811   3.742  0.2256 -0.0185  0.0662
 3181W        W 5331  16.039   6.961   6.900  0.2450  0.3810 -0.2941
 3182W        W 5332  16.869   1.346   3.303 -0.1001  0.0722 -0.0489
 3183W        W 5333   5.925   4.570  16.868 -0.3502 -0.1504  0.3410
 3184W        W 5334  16.866   3.322   1.547 -0.0258  0.0735 -0.2496
 3185W        W 5335  26.300   0.494   9.638 -0.0442  0.2356 -0.2783
 3186W        W 5336  11.496   4.902  21.986  0.2460 -0.3584  0.0746
 3187W        W 5337  26.862   5.826   9.298  0.0643  0.1618 -0.0077
 3188W        W 5338  10.224   4.382  20.629 -0.3655 -0.2638 -0.1759
 3189W        W 5339  26.917   4.552  10.938  0.0387  0.0222 -0.0051
 3190W        W 5340   1.447   6.349   3.167  0.1024 -0.1281  0.0339
 3191W        W 5341  19.672   1.597  15.791 -0.1079 -0.0592  0.0187
 3192W        W 5342   5.700   0.823   0.960  0.0715  0.1863  0.1989
 3193W        W 5343   6.550   1.243  17.442 -0.3217  0.2583 -0.0363
 3194W        W 5344   0.421   7.479  16.137  0.1507 -0.0949 -0.0919
 3195W        W 5345  30.831   4.474  16.826  0.0461 -0.0708  0.3033
 3196W        W 5346  19.934   6.222   9.745  0.2713  0.2214  0.0990
 3197W        W 5347  10.525   2.192  20.188  0.0039 -0.0925 -0.1388
 3198W        W 5348  21.684   4.943  10.671  0.1515  0.0614  0.1648
 3199W        W 5349   3.844   0.670  24.789  0.0690 -0.0968  0.1317
 3200W        W 5350  14.970   7.695   6.895  0.2512  0.0917 -0.0761
 3201W        W 5351  18.631   0.094  24.012  0.0207 -0.2375 -0.1488
 3202W        W 5352   1.313   4.945   3.613 -0.0703 -0.0072 -0.0282
 3203W        W 5353  27.055   5.003   4.767 -0.0611  0.2944  0.2056
 3204W        W 5354   8.109   0.986   2.409 -0.2447  0.0066 -0.2068
 3205W        W 5355  27.742   5.867   0.278  0.1811 -0.0201  0.1535
 3206W        W 5356  26.387   5.859   4.020  0.0501  0.1297  0.1041
 3207W        W 5357  30.746   0.985   9.437  0.3583  0.0160  0.1721
 3208W        W 5358   1.255   7.240  17.923  0.1600 -0.0348 -0.1803
 3209W        W 5359  16.579   1.173  16.149 -0.1708  0.0041  0.1680
 3210W        W 5360   9.531   0.134  17.293  0.2148  0.1422  0.1588
 3211W        W 5361   6.315   6.646  15.716 -0.2748 -0.4067 -0.0318
 3212W        W 5362  24.904   2.770   3.353 -0.1801 -0.0214 -0.0608
 3213W        W 5363   9.536   6.486  25.115 -0.0094  0.0452  0.2094
 3214W        W 5364   3.708   7.780  16.582 -0.3261 -0.1560 -0.3101
 3215W        W 5365   2.079   4.577   4.333 -0.1652  0.1398  0.2229
 3216W        W 5366  19.740   4.431   6.819  0.1112 -0.1132 -0.0109
 3217W        W 5367  14.315   3.691  16.604  0.0432 -0.1518 -0.2199
 3218W        W 5368   8.263   4.787  11.077 -0.0756  0.1800 -0.0149
 3219W        W 5369   6.067   6.864  16.102 -0.0591  0.0044 -0.0217
 3220W        W 5370   8.837   6.549   8.749 -0.1392 -0.0157 -0.0903
 3221W        W 5371  11.434   2.959   5.031  0.1876 -0.1618 -0.4476
 3222W        W 5372  27.977   4.319  18.828 -0.0024 -0.2355 -0.0194
 3223W        W 5373  16.525   6.718   7.418 -0.1158  0.1134 -0.0875
 3224W        W 5374  10.868   3.413   4.748  0.3672 -0.2528  0.0329
 3225W        W 5375   6.460   6.354   5.469 -0.1214 -0.4026 -0.0202
 3226W        W 5376   1.798   6.803  16.972  0.1153  0.0421  0.2782
 3227W        W 5377  13.403   1.342   7.563 -0.1668  0.0883  0.1649
 3228W        W 5378  21.873   6.289   8.834  0.0961 -0.0185  0.1016
 3229W        W 5379  19.311   0.081  16.714  0.0692 -0.2235 -0.2212
 3230W        W 5380  26.537   0.529   2.892  0.1098 -0.0929  0.3955
 3231W        W 5381  20.535   0.690   4.318  0.2046  0.1601  0.0715
 3232W        W 5382  20.395   7.172   2.297  0.1611  0.1064 -0.2866
 3233W        W 5383  16.153   3.170  25.367  0.2796  0.1482 -0.0333
 3234W        W 5384  14.120   4.036  19.702 -0.1631 -0.1839  0.0479
 3235W        W 5385  17.697   2.955  24.132 -0.1320 -0.2493 -0.0382
 3236W        W 5386  25.274   0.186  17.577  0.0025  0.0991  0.1070
 3237W        W 5387  25.030   4.598  20.785  0.0181  0.1425  0.1825
 3238W        W 5388  28.785   7.461  25.339 -0.3486 -0.1304 -0.1388
 3239W        W 5389  16.897   1.808  26.078  0.1568 -0.0653 -0.3048
 3240W        W 5390  14.534   0.492  15.843  0.0972 -0.1996 -0.0817
 3241W        W 5391  12.369   6.718   0.168 -0.2440  0.2376 -0.0791
 3242W        W 5392  26.343   3.439   9.803 -0.1258 -0.3703 -0.1529
 3243W        W 5393  17.132   3.142  25.027 -0.1637 -0.0377 -0.1172
 3244W        W 5394  21.583   1.510  22.551  0.0027  0.0074 -0.0312
 3245W        W 5395  23.885   3.301  22.107 -0.1126  0.1122  0.0581
 3246W        W 5396   9.854   2.730   5.515 -0.0918 -0.0218 -0.0561
 3247W        W 5397  25.895   4.516  25.938  0.0559  0.0216 -0.0544
 3248W        W 5398  11.881   4.619   3.540 -0.1308  0.0918  0.0394
 3249W        W 5399  20.072   4.331   4.643 -0.0212 -0.0987 -0.0457
 3250W        W 5400   9.982   0.901   8.310  0.0260  0.0288 -0.0291
 3251W        W 5401   2.132   5.750   7.238 -0.3258 -0.1561  0.2798
 3252W        W 5402  22.016   7.576   3.577  0.0135  0.0077  0.0442
 3253W        W 5403  28.776   2.174   5.409  0.0220 -0.4664 -0.0532
 3254W        W 5404  10.364   6.882   7.373 -0.0843 -0.0786  0.0741
 3255W        W 5405  29.042   4.651  17.067 -0.0470 -0.2104 -0.1364
 3256W        W 5406   6.023   2.023  26.354  0.2204  0.0411 -0.2868
 3257W        W 5407  16.975   2.183  10.346 -0.4352 -0.0812 -0.4466
 3258W        W 5408  12.254   5.201   4.297 -0.1096  0.1506  0.4002
 3259W        W 5409  11.382   1.141   3.526  0.1814  0.1418  0.1063
 3260W        W 5410  23.996   5.293  22.902 -0.0735 -0.2536  0.2282
 3261W        W 5411  30.594   7.344   7.893 -0.0869  0.1029 -0.1153
 3262W        W 5412  15.200   4.830  19.387 -0.3638  0.1953 -0.1136
 3263W        W 5413  10.423   1.328   9.503 -0.1240 -0.4544  0.0096
 3264W        W 5414   9.310   5.685  15.798 -0.0957  0.0510  0.0644
 3265W        W 5415  17.990   1.725   4.219 -0.1431 -0.0290 -0.0463
 3266W        W 5416  11.607   6.185   6.432  0.1979  0.0534  0.0316
 3267W        W 5417  21.717   2.481  16.050  0.1397  0.1091 -0.1118
 3268W        W 5418  24.708   2.141   4.780  0.2223 -0.0630 -0.1950
 3269W        W 5419  27.261   5.317  11.100 -0.1026 -0.0448  0.2201
 3270W        W 5420  12.988   2.026   8.815 -0.2685 -0.2222  0.2068
 3271W        W 5421  26.155   1.612   2.382 -0.0953 -0.0308  0.0396
 3272W        W 5422  22.514   5.668  17.400 -0.3484 -0.3711  0.0011
 3273W        W 5423  11.750   5.738   9.207 -0.0098  0.1366 -0.0853
 3274W        W 5424  13.133   3.780  17.292  0.3263  0.0778  0.2141
 3275W        W 5425  25.364   5.442  17.405  0.1033 -0.1857  0.0578
 3276W        W 5426  22.565   7.790  21.488 -0.0932  0.0861 -0.2028
 3277W        W 5427  13.045   5.670   0.979 -0.0254  0.0292 -0.0763
 3278W        W 5428  16.249   5.238  24.411 -0.0755 -0.0512 -0.1309
 3279W        W 5429  21.859   5.181   4.804 -0.1826 -0.1142  0.1287
 3280W        W 5430   7.144   1.539  20.772 -0.0796  0.1460  0.1588
 3281W        W 5431   3.813   3.589  17.376  0.1309 -0.1357 -0.0943
 3282W        W 5432  29.946   3.866  22.842 -0.1388  0.2006  0.4142
 3283W        W 5433  11.290   2.949  21.058  0.3587  0.1364 -0.1581
 3284W        W 5434   8.318   2.143   1.616  0.3130  0.3887 -0.0416
 3285W        W 5435   3.917   1.428   9.244  0.0811  0.1597 -0.1113
 3286W        W 5436  10.602   2.397  19.686  0.3694  0.2736  0.1602
 3287W        W 5437   5.673   4.860  24.435 -0.0715  0.0594 -0.4482
 3288W        W 5438   2.314   2.882   5.025  0.0069 -0.3066 -0.1399
 3289W        W 5439  25.651   3.860   7.395  0.1195 -0.1928 -0.2518
 3290W        W 5440  17.010   3.316   5.996 -0.0075 -0.0777  0.1018
 3291W        W 5441  14.180   1.402   2.441  0.0898  0.1410 -0.1703
 3292W        W 5442   3.985   6.790  25.377  0.0717 -0.5768 -0.1669
 3293W        W 5443  17.011   2.292  17.631 -0.5225 -0.1514  0.0077
 3294W        W 5444   2.136   1.018   1.619  0.1668 -0.0143  0.1313
 3295W        W 5445   7.548   6.123  21.324  0.1771 -0.0145  0.0587
 3296W        W 5446   6.789   0.630   1.651  0.0029 -0.0664  0.1759
 3297W        W 5447   1.823   7.590  21.605  0.0829 -0.0390 -0.0311
 3298W        W 5448  24.584   7.791  17.324 -0.0101  0.1150 -0.0691
 3299W        W 5449   1.802   6.534  10.708  0.1089 -0.1869 -0.2960
 3300W        W 5450  15.910   6.483  21.498 -0.1044 -0.0935 -0.0834
 3301W        W 5451  20.514   2.164  17.400  0.3607  0.0920  0.0470
 3302W        W 5452   3.896   1.099   1.885 -0.3937  0.0546 -0.1792
 3303W        W 5453   5.757   3.140   0.307  0.0180 -0.1380  0.3644
 3304W        W 5454   1.414   4.158   0.694 -0.1551  0.0862 -0.2241
 3305W        W 5455  16.020   1.299  17.633  0.0416 -0.1512 -0.4023
 3306W        W 5456   0.645   2.313  19.608  0.0650 -0.1125 -0.1811
 3307W        W 5457   7.710   3.451   1.883 -0.1523 -0.2474 -0.1164
 3308W        W 5458  31.133   0.292   3.788 -0.1104 -0.1414 -0.0661
 3309W        W 5459  28.099   5.839   1.246 -0.2307 -0.1949 -0.0508
 3310W        W 5460  21.737   7.459   2.013  0.2714  0.0164 -0.1096
 3311W        W 5461  21.934   1.934   5.450 -0.0594 -0.0316  0.1801
 3312W        W 5462  28.802   5.327  22.431  0.1697  0.4164  0.2509
 3313W        W 5463  11.018   5.786  17.203  0.0656  0.0399 -0.2977
 3314W        W 5464  26.040   3.898  17.014 -0.0409 -0.1418  0.3146
 3315W        W 5465  24.797   1.469  21.174  0.1461  0.2100 -0.2144
 3316W        W 5466  29.945   3.768   1.262 -0.0471 -0.0481  0.3314
 3317W        W 5467  31.115   5.825  10.175  0.0690  0.2300 -0.1324
 3318W        W 5468  16.996   1.542  22.828 -0.0229  0.1579 -0.0945
 3319W        W 5469   8.665   6.104  10.289 -0.0833  0.1175 -0.1770
 3320W        W 5470  25.611   7.656  10.660 -0.1004  0.0737 -0.1361
 3321W        W 5471  27.587   1.402  22.656 -0.1003  0.3469 -0.3574
 3322W        W 5472   8.385   5.604  20.054  0.1880  0.2760  0.2989
 3323W        W 5473   8.239   7.097  21.448  0.1757 -0.3671  0.1610
 3324W        W 5474  13.591   1.909   9.938  0.0354  0.1896 -0.0607
 3325W        W 5475  15.237   4.473   0.153 -0.0177  0.2377  0.1507
 3326W        W 5476  26.083   6.232  18.149 -0.1610  0.3218 -0.1831
 3327W        W 5477  24.013   4.335  10.365  0.0328  0.0338 -0.0396
 3328W        W 5478   7.095   1.463  21.374 -0.0952 -0.2003 -0.0049
 3329W        W 5479  28.147   1.081  22.575  0.1383 -0.0091 -0.1441
 3330W        W 5480   7.037   6.386   8.787  0.2003  0.3720  0.0988
 3331W        W 5481   1.161   2.279  18.276 -0.0355 -0.0577  0.0333
 3332W        W 5482  18.019   0.104   2.361  0.3113 -0.1660 -0.0444
 3333W        W 5483  14.990   1.577   9.749  0.0812 -0.1672 -0.0871
 3334W        W 5484  27.008   1.136  17.834 -0.2244  0.1303  0.1481
 3335W        W 5485  25.230   4.015  17.788 -0.2459  0.1729  0.0191
 3336W        W 5486  21.204   2.191  17.160  0.1801 -0.2504  0.1947
 3337W        W 5487  22.824   7.348   9.214  0.1942  0.1084 -0.1107
 3338W        W 5488  22.262   3.844   1.077  0.1037  0.1628 -0.0653
 3339W        W 5489   8.289   2.077   4.682  0.4941 -0.0769  0.0077
 3340W        W 5490  13.841   7.104  20.371 -0.1944 -0.0648 -0.1323
 3341W        W 5491  13.431   0.055  16.186  0.1720  0.0401  0.1766
 3342W        W 5492  16.161   4.049  24.173  0.0301  0.0461 -0.0638
 3343W        W 5493  30.987   3.515  18.264  0.1598 -0.1738 -0.0021
 3344W        W 5494  18.953   0.946   0.472  0.1703 -0.2049 -0.1139
 3345W        W 5495  14.497   0.179  19.041 -0.1099  0.2959 -0.0623
 3346W        W 5496  24.255   1.614   4.931 -0.1433 -0.0696 -0.0924
 3347W        W 5497  11.302   1.419   0.850  0.1676  0.0250  0.6095
 3348W        W 5498  25.385   6.819   8.017 -0.0852 -0.3361 -0.1302
 3349W        W 5499   1.478   2.424   9.925  0.2348  0.3582 -0.0495
 3350W        W 5500  22.848   7.271  25.118  0.1801 -0.1543 -0.0507
 3351W        W 5501  21.772   3.109  10.816 -0.1943  0.1175 -0.3555
 3352W        W 5502  19.367   4.724  17.587  0.4443 -0.0213  0.2385
 3353W        W 5503  30.092   3.938  24.395 -0.2036 -0.0094  0.1685
 3354W        W 5504  10.359   7.567  14.767  0.0920 -0.2438 -0.1551
 3355W        W 5505   8.001   6.035  17.918 -0.2472 -0.3454 -0.0746
 3356W        W 5506   4.726   5.680  22.936 -0.1247 -0.2847  0.1769
 3357W        W 5507   8.203   0.006  17.990  0.2223 -0.0018 -0.2610
 3358W        W 5508  11.415   2.267   3.408 -0.0918  0.2463  0.0254
 3359W        W 5509  13.838   1.085   6.138 -0.1940 -0.0993  0.1892
 3360W        W 5510  27.409   4.227  25.590  0.4616  0.1365 -0.1165
 3361W        W 5511  29.115   2.315  14.850  0.0012  0.1649 -0.2588
 3362W        W 5512   8.924   3.506   3.632  0.0981  0.1765 -0.0847
 3363W        W 5513  23.147   7.347  26.183 -0.1754 -0.1168 -0.1815
 3364W        W 5514   8.971   1.099  18.356 -0.2156 -0.0842 -0.0512
 3365W        W 5515  26.751   3.924   7.163  0.0950 -0.3003 -0.0834
 3366W        W 5516  27.598   2.881   4.266  0.1621  0.2157  0.2754
 3367W        W 5517  21.377   4.490  25.335 -0.0594 -0.2444 -0.1194
 3368W        W 5518  16.354   7.307  17.676 -0.1422 -0.0859 -0.0061
 3369W        W 5519  15.367   4.411   2.435 -0.2074  0.1975 -0.2429
 3370W        W 5520   2.582   1.621   5.836  0.3573 -0.0747  0.3356
 3371W        W 5521   7.325   0.310   4.297  0.4460  0.1671 -0.1939
 3372W        W 5522  21.575   5.920   4.937 -0.0087 -0.1686 -0.1722
 3373W        W 5523  22.163   6.392   2.089  0.3321  0.2044  0.1093
 3374W        W 5524   7.917   7.370   1.449  0.1815  0.1401  0.0142
 3375W        W 5525  16.182   0.567   3.131  0.2140 -0.2380  0.0102
 3376W        W 5526  10.688   0.495  10.372 -0.0561  0.1626  0.1440
 3377W        W 5527  21.154   6.536  20.030 -0.0759  0.1025  0.0628
 3378W        W 5528  30.297   6.290  21.831 -0.2236  0.3624 -0.0063
 3379W        W 5529   0.579   3.586  15.588  0.0209 -0.0003  0.0225
 3380W        W 5530  18.793   6.464  15.996  0.0206 -0.0136  0.0728
 3381W        W 5531  19.159   5.929  17.828 -0.3615  0.1351 -0.2147
 3382W        W 5532   0.485   4.007  20.795 -0.4962 -0.0417  0.1809
 3383W        W 5533   3.693   0.965  17.792 -0.3096  0.2730 -0.0550
 3384W        W 5534  17.799   4.584  22.764  0.1392 -0.0435  0.0103
 3385W        W 5535   6.257   5.185   6.573  0.0173 -0.1304  0.0382
 3386W        W 5536  31.027   2.030  19.731  0.1900  0.0222 -0.1295
 3387W        W 5537   2.060   7.097  11.000  0.0019  0.1058 -0.1759
 3388W        W 5538  12.209   4.954   2.064  0.1778  0.0220  0.1556
 3389W        W 5539  27.089   1.143  10.645  0.2931 -0.1614 -0.1297
 3390W        W 5540  27.993   5.218   7.600  0.6010  0.2299  0.3698
 3391W        W 5541   3.535   3.757   0.589 -0.3086  0.4202 -0.0418
 3392W        W 5542   7.086   7.259  23.932 -0.3725 -0.2239 -0.0059
 3393W        W 5543   9.722   6.020  16.649 -0.2711 -0.1139  0.4021
 3394W        W 5544   6.087   5.195  15.952  0.2043  0.1949  0.0475
 3395W        W 5545  26.751   3.491  11.581 -0.0452 -0.4880  0.1185
 3396W        W 5546  18.447   2.792  23.468 -0.1438  0.0373  0.0173
 3397W        W 5547  17.906   0.124  18.375 -0.2068  0.2725 -0.2549
 3398W        W 5548   5.664   4.895  17.732  0.0672  0.2054 -0.1302
 3399W        W 5549   8.438   5.466  25.293  0.0279  0.0617 -0.2863
 3400W        W 5550  28.838   3.366   4.525 -0.0640  0.0228  0.2038
 3401W        W 5551   7.482   4.952   4.940 -0.2866  0.0487 -0.1491
 3402W        W 5552   3.941   4.790  17.246  0.2535  0.0413 -0.2412
 3403W        W 5553   0.601   0.975   9.434  0.1772  0.0700 -0.0684
 3404W        W 5554  19.879   3.532  16.855  0.2198 -0.0193 -0.0028
 3405W        W 5555   4.956   4.062  10.895  0.2453 -0.3737 -0.3076
 3406W        W 5556   2.539   4.523   1.958  0.1442  0.3887  0.1005
 3407W        W 5557  28.620   5.673   1.305  0.0548 -0.1544  0.1087
 3408W        W 5558  31.106   4.464   8.299  0.3447 -0.3079 -0.2010
 3409W        W 5559  27.825   4.601   2.931  0.0716  0.0736 -0.1912
 3410W        W 5560   0.670   5.558  20.046  0.0749  0.1602  0.2438
 3411W        W 5561  16.464   4.700  23.008  0.0212  0.3507  0.2867
 3412W        W 5562  13.839   4.119  18.840  0.0480  0.0140  0.0100
 3413W        W 5563  19.019   5.407  23.566 -0.0254  0.0920  0.0199
 3414W        W 5564  28.699   5.597  23.819  0.2797  0.3100  0.0045
 3415W        W 5565  17.853   2.027  19.100 -0.1350 -0.2743  0.1859
 3416W        W 5566   8.855   3.357  23.013 -0.3335  0.1512 -0.3434
 3417W        W 5567  16.688   3.179  23.443  0.1401  0.2395 -0.1088
 3418W        W 5568   8.773   3.078  15.932  0.1196 -0.0821  0.0492
 3419W        W 5569  23.977   4.535  20.804  0.1827 -0.0421  0.0253
 3420W        W 5570  29.173   1.126   6.795  0.0150  0.1290 -0.1788
 3421W        W 5571  23.764   7.183  23.470  0.0581  0.2551  0.4298
 3422W        W 5572   6.886   0.247  19.202  0.0656  0.1269  0.1953
 3423W        W 5573  14.178   5.834  10.920  0.3007 -0.3259 -0.0110
 3424W        W 5574  10.676   4.304  18.457 -0.0567 -0.2411  0.1337
 3425W        W 5575  18.394   6.182   1.963 -0.1143 -0.2689  0.0137
 3426W        W 5576  22.166   5.980  17.628 -0.0868  0.3212  0.3848
 3427W        W 5577  18.918   0.607  18.289 -0.1573 -0.0078  0.0293
 3428W        W 5578   9.181   3.679  20.196  0.2055  0.2142 -0.1509
 3429W        W 5579   5.603   3.686  22.605  0.3260 -0.0446 -0.3252
 3430W        W 5580   7.474   4.043  26.102 -0.0045  0.3626  0.0070
 3431W        W 5581   1.839   0.149   6.187 -0.1157  0.2826 -0.1624
 3432W        W 5582  16.058   2.098  10.237  0.3387  0.0558 -0.1816
 3433W        W 5583  23.386   3.870  26.234  0.3956 -0.0380  0.1959
 3434W        W 5584  16.233   7.607   6.222  0.0456 -0.0634 -0.0777
 3435W        W 5585  29.529   1.853  17.225 -0.0496  0.0281  0.0457
 3436W        W 5586  21.856   0.910  17.505  0.0304 -0.1877  0.0144
 3437W        W 5587  24.551   6.358  11.862  0.1941 -0.1060  0.1385
 3438W        W 5588  14.412   0.653   3.564  0.1107  0.0357  0.2377
 3439W        W 5589  11.593   0.736   8.668  0.2015 -0.0119 -0.2393
 3440W        W 5590   6.685   3.988  19.160 -0.2651 -0.1486  0.0305
 3441W        W 5591   8.304   3.861  25.750 -0.0286  0.0616  0.1089
 3442W        W 5592   2.425   3.473  17.459  0.1642  0.0279 -0.1615
 3443W        W 5593   7.454   3.708   2.272  0.1097 -0.0430  0.0614
 3444W        W 5594   6.769   1.391  24.024  0.0288  0.0064 -0.2211
 3445W        W 5595  15.710   6.871   4.926 -0.3403 -0.0337 -0.0105
 3446W        W 5596  15.486   5.673   8.124  0.0710  0.3085 -0.0328
 3447W        W 5597  24.757   2.692  25.324 -0.0760 -0.0759  0.1961
 3448W        W 5598  31.014   7.260  15.356  0.0437 -0.1395  0.2577
 3449W        W 5599  27.844   0.837  25.398  0.2845  0.3668  0.0997
 3450W        W 5600  17.679   4.329  19.612  0.0352 -0.2156 -0.0900
 3451W        W 5601  24.337   5.486   7.504  0.3058 -0.1323  0.1318
 3452W        W 5602  19.952   1.709  23.828 -0.1120  0.1625 -0.0357
 3453W        W 5603  11.259   0.151  16.062  0.0650  0.3725  0.2687
 3454W        W 5604   7.948   5.895   7.134  0.0578  0.2613  0.0680
 3455W        W 5605  24.322   0.818   4.520  0.3606 -0.1424  0.1266
 3456W        W 5606  18.350   6.465   4.775 -0.3146 -0.0943  0.2201
 3457W        W 5607  18.915   6.570  19.013 -0.0315  0.0969  0.2026
 3458W        W 5608  11.214   6.650  16.714 -0.1176  0.0621 -0.1010
 3459W        W 5609  21.559   3.379   7.091  0.3146  0.0832  0.2340
 3460W        W 5610  16.733   3.195  20.613 -0.0295 -0.1158  0.0986
 3461W        W 5611  16.255   4.867   6.012  0.1899  0.1150 -0.4113
 3462W        W 5612  16.599   7.046  20.855  0.1992  0.0842  0.0437
 3463W        W 5613   7.520   2.068  25.027 -0.1756 -0.1726 -0.0581
 3464W        W 5614  27.461   1.976   4.293 -0.1823  0.0084 -0.0300
 3465W        W 5615  22.847   2.869   9.715  0.3617 -0.1188  0.0450
 3466W        W 5616  14.835   1.210  21.816  0.0409  0.1541 -0.0005
 3467W        W 5617   9.026   2.151  16.813  0.1073  0.0973 -0.1269
 3468W        W 5618   4.092   2.112   1.866  0.3085  0.0866  0.3155
 3469W        W 5619  14.813   3.303   3.108  0.1010  0.2066 -0.1732
 3470W        W 5620  13.995   6.238   5.784  0.1672  0.1774 -0.1527
 3471W        W 5621   9.533   0.694   7.352 -0.0270 -0.2094 -0.1184
 3472W        W 5622   3.213   1.072   8.920 -0.0686 -0.1442 -0.1253
 3473W        W 5623  16.624   2.892   3.240 -0.1771 -0.1133 -0.2650
 3474W        W 5624  12.760   1.532  25.528  0.0950 -0.0684 -0.1061
 3475W        W 5625  29.137   5.907   5.953 -0.0371  0.5788  0.0063
 3476W        W 5626   5.577   0.378   4.816  0.4051 -0.0482  0.1079
 3477W        W 5627  12.818   5.866  20.706  0.0389  0.2027  0.0225
 3478W        W 5628  11.224   3.733   6.088  0.2132  0.0012  0.2276
 3479W        W 5629   6.415   7.225   8.060 -0.2143  0.1927 -0.3329
 3480W        W 5630  10.947   0.578  17.351  0.0332 -0.3143 -0.2051
 3481W        W 5631  18.153   0.606  17.939  0.0876  0.2110  0.3129
 3482W        W 5632   6.868   5.449   0.638  0.1929 -0.2904  0.1686
 3483W        W 5633  10.828   6.670   2.555 -0.2207  0.0056  0.0430
 3484W        W 5634  30.175   1.366  25.637  0.1354  0.0152  0.0562
 3485W        W 5635  12.850   4.543  26.182  0.1027 -0.3461 -0.0054
 3486W        W 5636   8.382   4.852   0.088  0.0654 -0.0673  0.3550
 3487W        W 5637  23.833   7.758  24.184  0.1254 -0.1402  0.1305
 3488W        W 5638  30.798   5.316  17.952  0.0580  0.2299  0.3376
 3489W        W 5639   0.324   5.379  16.458 -0.2112 -0.2029 -0.0445
 3490W        W 5640   9.587   3.128   0.918 -0.0925  0.0439  0.0636
 3491W        W 5641  29.539   5.328  18.946 -0.1538  0.2323  0.0058
 3492W        W 5642   2.585   4.639   8.509 -0.3269 -0.0183  0.0226
 3493W        W 5643  25.910   3.996   4.556  0.0115 -0.1162 -0.2133
 3494W        W 5644   0.022   2.269   2.221  0.0577 -0.0175 -0.2860
 3495W        W 5645  24.238   6.265   8.780 -0.0702  0.2316 -0.1055
 3496W        W 5646  25.670   0.331  24.457 -0.0473 -0.4010  0.0647
 3497W        W 5647  24.796   6.178  19.161 -0.2364  0.0319 -0.2238
 3498W        W 5648   1.501   4.474   6.038  0.0930  0.1646  0.0670
 3499W        W 5649  20.700   3.739  17.697  0.0262 -0.0243 -0.1482
 3500W        W 5650  17.426   1.022  19.331  0.0112  0.0358 -0.1064
 3501W        W 5651  21.041   2.126   4.284  0.0855  0.3189 -0.2270
 3502W        W 5652  30.165   4.881  24.444  0.0178  0.0663 -0.0992
 3503W        W 5653  15.838   4.326   7.323 -0.0305  0.0167 -0.0805
 3504W        W 5654  30.467   2.635   7.716 -0.2166  0.2199  0.0963
 3505W        W 5655  26.772   5.991  16.304  0.0308 -0.0401 -0.0714
 3506W        W 5656  28.287   4.636  17.846 -0.1621 -0.1634  0.0212
 3507W        W 5657  28.612   5.556  25.220 -0.1524  0.0844  0.2560
 3508W        W 5658  18.898   0.455   8.236 -0.0237  0.0581 -0.0393
 3509W        W 5659  26.687   6.036  23.080 -0.0678  0.0535 -0.0237
 3510W        W 5660  24.250   6.518   0.714  0.2109 -0.1309  0.0147
 3511W        W 5661  22.426   3.618   5.441 -0.3516  0.3668  0.0727
 3512W        W 5662  16.987   2.418  24.502  0.2327  0.0588  0.0139
 3513W        W 5663  14.399   2.634  15.055  0.0274  0.2627 -0.0988
 3514W        W 5664  23.315   3.005   3.487 -0.1667  0.1726 -0.4090
 3515W        W 5665  24.188   6.019  24.807  0.0523  0.0314 -0.0363
 3516W        W 5666   9.553   5.337   9.307 -0.2580 -0.2918  0.1651
 3517W        W 5667  10.364   1.853  19.887 -0.0997 -0.0222  0.0239
 3518W        W 5668  23.925   6.232  22.352 -0.1415 -0.3123 -0.0490
 3519W        W 5669   8.746   5.356  19.771 -0.0649 -0.2055 -0.1114
 3520W        W 5670  16.220   2.610   1.552 -0.0295 -0.1528 -0.1027
 3521W        W 5671  24.952   0.741  19.652  0.0097 -0.0262  0.1843
 3522W        W 5672  24.773   2.606  22.774  0.4358  0.0488  0.4717
 3523W        W 5673  13.447   3.142  24.013 -0.4181 -0.1058  0.1541
 3524W        W 5674  19.202   3.941   8.875 -0.0991 -0.0799  0.0338
 3525W        W 5675   2.722   4.387  11.614  0.0063 -0.0418 -0.0433
 3526W        W 5676   8.028   6.666  22.937 -0.0539  0.1669  0.3284
 3527W        W 5677  24.242   4.544   3.688  0.0206 -0.3821  0.1242
 3528W        W 5678  19.748   2.275   7.674  0.0659 -0.0614 -0.2601
 3529W        W 5679  19.416   1.388   2.145 -0.1132 -0.3477 -0.1937
 3530W        W 5680  12.179   6.269   2.174  0.2721  0.1429  0.2678
 3531W        W 5681  11.256   2.086  17.779  0.1314 -0.0119 -0.2984
 3532W        W 5682  29.737   7.527  25.282  0.0970 -0.2157  0.1737
 3533W        W 5683  21.282   1.939   6.132  0.1293  0.1864 -0.0927
 3534W        W 5684  31.173   1.454   9.263 -0.0984  0.2068 -0.1740
 3535W        W 5685   1.642   6.872   5.811 -0.3613  0.0395  0.1215
 3536W        W 5686   1.963   4.621  16.696 -0.1146 -0.2937  0.1415
 3537W        W 5687  29.241   4.419   2.324 -0.2566  0.0057 -0.0041
 3538W        W 5688   7.780   6.147   4.559  0.1042 -0.0626  0.3454
 3539W        W 5689  29.929   4.533  19.414  0.0919  0.1949  0.2415
 3540W        W 5690  17.459   1.457   8.284 -0.0458  0.0855 -0.0887
 3541W        W 5691  21.667   0.462   1.968 -0.2234  0.0718  0.1327
 3542W        W 5692  26.964   5.986   9.803 -0.0800 -0.0530 -0.1258
 3543W        W 5693  23.797   3.020  23.434 -0.0333  0.2576  0.1115
 3544W        W 5694  26.177   7.519   6.316  0.1241  0.2550 -0.0141
 3545W        W 5695  30.121   0.127  10.035  0.1006  0.2063  0.1301
 3546W        W 5696  21.871   3.055   7.611  0.0168 -0.0992  0.3017
 3547W        W 5697  18.444   6.859  25.790  0.1065 -0.0384  0.1013
 3548W        W 5698   2.389   3.075   5.496  0.1098 -0.1498 -0.0044
 3549W        W 5699  29.439   0.305   0.380 -0.0383  0.2610  0.1351
 3550W        W 5700  14.245   2.399  16.173 -0.0743  0.0321 -0.1610
 3551W        W 5701  26.125   0.453  20.874 -0.0572  0.0813  0.1743
 3552W        W 5702  15.540   7.432  24.685 -0.0070  0.0234 -0.0402
 3553W        W 5703   7.751   4.887  18.731 -0.0295  0.0719 -0.1472
 3554W        W 5704  26.441   4.395   9.872  0.1307  0.0400  0.1029
 3555W        W 5705  30.279   2.768   4.740  0.1937 -0.3696 -0.2496
 3556W        W 5706  21.665   3.553  16.742  0.3853 -0.2717 -0.4773
 3557W        W 5707   5.257   4.665  10.395  0.0192  0.0338  0.1633
 3558W        W 5708  14.234   4.450   3.740 -0.0601  0.0190  0.2384
 3559W        W 5709  26.945   0.214   2.869 -0.2082 -0.0113 -0.2247
 3560W        W 5710  27.657   3.990  17.898  0.0944  0.0983 -0.1578
 3561W        W 5711  30.222   1.177  18.689 -0.0537  0.0308 -0.1492
 3562W        W 5712   7.414   1.267   3.084 -0.0680  0.1343 -0.1203
 3563W        W 5713  10.582   7.172   2.102  0.2207  0.2821  0.1458
 3564W        W 5714  30.578   4.657  14.542  0.0930  0.0776  0.1496
 3565W        W 5715   9.039   1.797   6.775 -0.0040  0.0532  0.1590
 3566W        W 5716   4.059   5.997  23.544  0.0356 -0.1140  0.1873
 3567W        W 5717   5.959   1.534   7.463 -0.2138  0.0472 -0.2639
 3568W        W 5718   8.083   3.493  16.078  0.0523 -0.0940  0.0429
 3569W        W 5719  14.995   4.750   7.217  0.0305  0.0530  0.0619
 3570W        W 5720  21.417   4.512  19.179  0.1366 -0.2223  0.1505
 3571W        W 5721  11.343   2.051   3.850  0.1797  0.3247  0.1134
 3572W        W 5722  30.911   2.197   8.823 -0.2099  0.0553 -0.1650
 3573W        W 5723  23.103   5.783  19.082 -0.1626  0.2891 -0.2048
 3574W        W 5724   7.403   2.425   2.885 -0.2896 -0.1826 -0.0355
 3575W        W 5725  28.979   2.094  20.374 -0.1903 -0.1403 -0.1830
 3576W        W 5726  22.685   5.187   9.065 -0.1406  0.3292 -0.0909
 3577W        W 5727  13.989   6.914  19.904 -0.0352 -0.1956 -0.0455
 3578W        W 5728  16.453   2.020   9.328 -0.1471  0.0063  0.3527
 3579W        W 5729   0.405   0.282   3.657 -0.2150 -0.2761  0.2318
 3580W        W 5730   7.758   2.852  18.131 -0.2968 -0.2312  0.0619
 3581W        W 5731   9.221   6.939  24.209  0.1002 -0.1218  0.1883
 3582W        W 5732  22.113   1.632  22.650  0.0789  0.5071 -0.0459
 3583W        W 5733  11.093   4.307  20.810  0.0954 -0.1305  0.3150
 3584W        W 5734  20.030   3.154   0.111 -0.0151  0.0739  0.1691
 3585W        W 5735  17.175   6.394   4.315 -0.0125  0.0063  0.0656
 3586W        W 5736   9.012   0.377  23.498 -0.1227  0.0140  0.2517
 3587W        W 5737   9.983   2.954   3.744  0.0107  0.0197 -0.1658
 3588W        W 5738   7.990   4.049  15.130 -0.1668 -0.1509 -0.1046
 3589W        W 5739   7.824   3.918   7.691  0.2822  0.0210  0.1020
 3590W        W 5740  11.237   2.011  10.193 -0.2988 -0.0534 -0.1297
 3591W        W 5741  27.618   7.724   6.667 -0.0506 -0.2254  0.1431
 3592W        W 5742  28.612   6.961   8.100 -0.2356  0.3185  0.0901
 3593W        W 5743   5.432   5.318  17.862  0.0574  0.0793  0.1471
 3594W        W 5744  22.037   6.087   5.231 -0.1827  0.1976  0.2094
 3595W        W 5745   7.855   6.120  21.886  0.2408 -0.2420  0.1236
 3596W        W 5746  31.162   4.261   3.345  0.1117  0.2080 -0.2124
 3597W        W 5747  19.084   7.141   8.173  0.3198  0.1594 -0.3139
 3598W        W 5748  17.531   1.234   1.476 -0.1850 -0.1875  0.1696
 3599W        W 5749  30.501   0.745   5.786  0.0116 -0.0377 -0.0082
 3600W        W 5750   5.636   5.536   1.791  0.0999 -0.1169  0.1092
 3601W        W 5751  26.570   3.715  20.845 -0.1163  0.0901  0.1508
 3602W        W 5752   1.431   3.718   0.432  0.4498  0.0148 -0.1574
 3603W        W 5753  12.142   5.133  23.066  0.2487  0.2497 -0.2913
 3604W        W 5754  28.970   2.980  20.622  0.2027  0.3856 -0.0489
 3605W        W 5755  23.393   0.357  24.178 -0.2531 -0.0039 -0.0100
 3606W        W 5756  15.147   4.576  21.784 -0.1782 -0.0181 -0.1021
 3607W        W 5757   2.670   6.085   2.244 -0.1324  0.3111  0.1309
 3608W        W 5758  24.254   6.154  22.746 -0.0166  0.1988  0.0100
 3609W        W 5759  29.456   0.383   5.070  0.0409  0.3873  0.1649
 3610W        W 5760  21.503   7.141  20.910  0.0214  0.0184 -0.0864
 3611W        W 5761  29.867   3.665   9.821  0.2505 -0.0351 -0.0838
 3612W        W 5762   9.706   6.554   6.232 -0.0920 -0.0137  0.0915
 3613W        W 5763   8.450   7.261   5.976  0.0154 -0.0612  0.0706
 3614W        W 5764  25.644   7.651  17.593 -0.1709 -0.0597 -0.0350
 3615W        W 5765  11.612   4.278   3.167 -0.0944 -0.1586  0.2465
 3616W        W 5766  18.968   0.152   1.847 -0.3017 -0.1056 -0.0419
 3617W        W 5767   0.203   5.154   4.460 -0.1060  0.2588  0.1550
 3618W        W 5768  13.212   6.129   1.186 -0.1446  0.1036  0.0432
 3619W        W 5769  23.891   2.356  21.921 -0.0893 -0.2181  0.1317
 3620W        W 5770  19.796   5.861  22.960 -0.0038 -0.0479 -0.1910
 3621W        W 5771   2.442   5.757   0.247  0.3129  0.0729  0.0943
 3622W        W 5772  22.944   1.305   6.411 -0.1053  0.3108 -0.0768
 3623W        W 5773   1.435   7.651  19.590  0.1492 -0.1453 -0.0019
 3624W        W 5774  16.006   0.595  16.113 -0.0214  0.0081  0.1496
 3625W        W 5775  20.928   2.385  16.808  0.0375  0.0045  0.0983
 3626W        W 5776   3.891   5.715   8.314  0.1885  0.0529  0.1580
 3627W        W 5777   2.372   6.981  16.937  0.0944 -0.1607 -0.0052
 3628W        W 5778   5.312   2.443  21.973  0.0613 -0.0570 -0.2980
 3629W        W 5779  14.712   1.700  25.065 -0.0022 -0.1577 -0.2783
 3630W        W 5780   2.627   6.398   3.202 -0.1938 -0.1380  0.1495
 3631W        W 5781  13.307   3.051  25.406  0.0552 -0.1767  0.1327
 3632W        W 5782  11.809   6.731   4.403  0.1582  0.1381  0.0191
 3633W        W 5783   7.239   3.268   4.305 -0.0210  0.0710 -0.1964
 3634W        W 5784  23.215   1.659   4.842  0.0632  0.1142 -0.2313
 3635W        W 5785  13.574   5.041  23.256 -0.3703 -0.2076  0.0279
 3636W        W 5786   2.019   2.653  25.583 -0.0263 -0.1872 -0.0337
 3637W        W 5787   3.785   5.814  18.963  0.1148 -0.0712  0.1777
 3638W        W 5788   6.450   4.448  22.350  0.0280 -0.0826  0.2437
 3639W        W 5789  12.981   1.777  17.741 -0.2706 -0.3670  0.2760
 3640W        W 5790  29.397   0.209   3.615  0.1584  0.1045  0.1110
 3641W        W 5791  23.959   2.932   4.571  0.3097 -0.0225  0.0132
 3642W        W 5792   6.414   6.010   3.296  0.2037  0.3903  0.1347
 3643W        W 5793   4.813   0.537   7.834  0.2117 -0.0135 -0.1553
 3644W        W 5794   1.446   0.034  21.374  0.0268  0.0126 -0.0683
 3645W        W 5795  13.692   3.891  22.868 -0.1960  0.5539  0.1115
 3646W        W 5796  25.786   0.124  17.985 -0.0536 -0.3719  0.1646
 3647W        W 5797   1.414   5.693  21.077 -0.3313  0.1393 -0.0458
 3648W        W 5798  28.188   3.208  17.743  0.1074  0.1791  0.1978
 3649W        W 5799  20.989   3.650  18.489  0.0301  0.4839  0.1242
 3650W        W 5800  25.998   3.300  21.078 -0.1297  0.3101  0.2450
 3651W        W 5801   7.464   7.313  23.303 -0.2833  0.2520  0.2057
 3652W        W 5802  30.058   6.371   6.218 -0.1166  0.0249 -0.1325
 3653W        W 5803  14.829   6.915  24.692  0.0156 -0.0729 -0.1832
 3654W        W 5804  27.993   3.066  22.710  0.1550 -0.0494  0.1021
 3655W        W 5805  16.884   0.415  18.325  0.0700  0.3016  0.3931
 3656W        W 5806   7.950   5.127  19.384 -0.0366  0.3988 -0.1301
 3657W        W 5807  12.991   5.887   4.158  0.1191  0.2910 -0.2573
 3658W        W 5808  23.034   0.961   8.471 -0.1548 -0.0496 -0.1277
 3659W        W 5809  26.311   0.262  21.653 -0.0280 -0.5625  0.0482
 3660W        W 5810  14.036   1.557  22.013  0.0795  0.1240  0.0024
 3661W        W 5811   9.594   3.286  20.546  0.0371  0.0163 -0.3057
 3662W        W 5812  27.920   1.939   2.629  0.0020 -0.0775  0.0894
 3663W        W 5813  26.426   2.729   7.630  0.3077  0.2320  0.0442
 3664W        W 5814  16.703   7.438   6.326 -0.0326  0.0247 -0.0419
 3665W        W 5815  12.930   7.544   8.868  0.0789  0.2883 -0.3102
 3666W        W 5816  16.432   5.711  10.705  0.4257  0.1719 -0.0577
 3667W        W 5817  20.246   3.454  24.779  0.1503 -0.0079  0.0811
 3668W        W 5818   1.039   4.907   7.767  0.2711  0.1561 -0.2808
 3669W        W 5819   3.044   2.850  16.385 -0.2550  0.1168 -0.0189
 3670W        W 5820   0.811   0.788   2.826  0.1789 -0.1781  0.3507
 3671W        W 5821  23.357   7.750  17.899  0.0637 -0.4327 -0.1102
 3672W        W 5822   7.089   4.550   4.744 -0.0896  0.0756  0.0234
 3673W        W 5823  14.597   2.974  16.549  0.0325 -0.0711  0.0860
 3674W        W 5824  17.850   1.957  21.087  0.1440 -0.0947 -0.0949
 3675W        W 5825  21.629   0.517  17.643 -0.1456  0.1541  0.1031
 3676W        W 5826  26.262   0.683  24.762 -0.1435  0.2678 -0.2766
 3677W        W 5827  24.341   6.525   4.842 -0.2176 -0.0591  0.0448
 3678W        W 5828   9.634   7.437  10.121 -0.1532  0.0644  0.0671
 3679W        W 5829   0.320   5.610   2.264  0.2630  0.0962  0.1170
 3680W        W 5830   0.133   4.316   7.005  0.1854  0.0945 -0.1107
 3681W        W 5831  20.429   3.063   9.079  0.0449 -0.1132 -0.0967
 3682W        W 5832  12.014   2.890  23.824  0.0993 -0.0981 -0.1360
 3683W        W 5833   3.309   1.914  17.741 -0.1195  0.0795 -0.3063
 3684W        W 5834  18.601   3.627  20.850  0.1630  0.0443  0.0677
 3685W        W 5835  11.963   4.709  26.337  0.2014 -0.1530  0.0669
 3686W        W 5836   0.124   4.198   4.432 -0.2007 -0.1219 -0.2070
 3687W        W 5837  27.637   1.877  20.662 -0.1605  0.0438 -0.0954
 3688W        W 5838  22.743   4.628  21.521  0.1437 -0.1106 -0.3192
 3689W        W 5839   5.964   1.044  26.416  0.0095 -0.1225 -0.0833
 3690W        W 5840   5.507   3.758  16.371 -0.3681  0.0310  0.3580
 3691W        W 5841  27.896   0.141  21.324  0.1402  0.1588 -0.2485
 3692W        W 5842   6.480   4.460  24.935 -0.0806  0.0765  0.0537
 3693W        W 5843  16.381   4.949   1.097  0.0405 -0.4165 -0.2706
 3694W        W 5844  24.494   3.453   4.922  0.1062  0.0576 -0.1770
 3695W        W 5845  19.828   4.149   4.160 -0.1955  0.0492  0.2442
 3696W        W 5846  28.010   1.926   1.363 -0.2733 -0.2615 -0.1105
 3697W        W 5847  15.637   5.964   9.109  0.0226 -0.0070 -0.2578
 3698W        W 5848   5.406   4.200   2.852 -0.3640 -0.0851 -0.1931
 3699W        W 5849  29.814   0.002   0.308 -0.1566 -0.0982  0.0154
 3700W        W 5850  15.706   0.077  19.420 -0.0259  0.1798  0.1032
 3701W        W 5851   2.005   5.738   1.959 -0.3159  0.1730 -0.0292
 3702W        W 5852  28.678   7.038  23.490 -0.1412 -0.1012  0.2008
 3703W        W 5853  22.286   2.845   2.173  0.0243  0.2273 -0.2186
 3704W        W 5854  25.179   5.133  19.362 -0.3449  0.2234  0.3990
 3705W        W 5855  27.179   6.077   8.034 -0.0719 -0.3871 -0.2030
 3706W        W 5856  24.768   7.291   3.419 -0.1055 -0.1131  0.0146
 3707W        W 5857   7.963   0.772   4.166 -0.1448  0.0284 -0.3150
 3708W        W 5858   2.674   3.780   9.553 -0.0900  0.0916 -0.0792
 3709W        W 5859   8.037   4.438  15.996  0.2281  0.0844 -0.3347
 3710W        W 5860  20.420   4.115  10.328  0.1453 -0.2527  0.0130
 3711W        W 5861   6.391   3.599   9.832 -0.5050 -0.1555  0.2337
 3712W        W 5862  17.690   2.653   1.221  0.0264 -0.0200  0.0163
 3713W        W 5863   8.776   6.959   6.335 -0.1419  0.5278 -0.1034
 3714W        W 5864  22.122   2.267   7.217  0.0905  0.1627 -0.0123
 3715W        W 5865  27.513   7.014  17.580 -0.0756  0.1150  0.2570
 3716W        W 5866  18.593   1.172  19.192 -0.0918 -0.1352  0.0544
 3717W        W 5867   8.691   4.052   6.951 -0.0063 -0.3297  0.4329
 3718W        W 5868   1.072   5.721   7.881  0.1168  0.2165  0.0559
 3719W        W 5869  15.389   5.389   7.735  0.0468 -0.1092 -0.0959
 3720W        W 5870   7.665   7.551   6.101 -0.1384 -0.0452 -0.0021
 3721W        W 5871  13.924   1.482   4.214  0.4143 -0.0586 -0.1667
 3722W        W 5872   9.003   0.859   8.880  0.0477  0.3269 -0.2352
 3723W        W 5873   7.054   7.685   9.366 -0.3473  0.1699  0.2583
 3724W        W 5874  20.085   3.582   1.010  0.0714 -0.1111  0.1692
 3725W        W 5875  22.092   0.141   2.714 -0.1353  0.1531  0.0179
 3726W        W 5876  13.360   5.792  25.018 -0.0503 -0.1796 -0.1782
 3727W        W 5877  16.725   4.544  24.303 -0.1106  0.2426  0.0119
 3728W        W 5878   9.783   2.073  23.763  0.0863  0.0427  0.4174
 3729W        W 5879  12.749   1.280  10.939  0.1183  0.2612 -0.1597
 3730W        W 5880  30.936   1.675  20.167  0.0553 -0.1563  0.1002
 3731W        W 5881  17.293   2.435  22.331  0.0394 -0.1514  0.0021
 3732W        W 5882  29.296   3.406  25.127 -0.1570  0.1724  0.0296
 3733W        W 5883   8.074   5.543   2.760 -0.3617 -0.0043 -0.1757
 3734W        W 5884   3.442   3.543  23.935 -0.2178 -0.0688 -0.1128
 3735W        W 5885  29.315   1.869  22.623  0.3879  0.0524 -0.1260
 3736W        W 5886   2.334   2.890   9.308  0.0486 -0.1113  0.1561
 3737W        W 5887  29.386   4.328   4.180 -0.0537 -0.2558 -0.0474
 3738W        W 5888   7.688   2.005   4.064  0.2889  0.0119 -0.1925
 3739W        W 5889  15.852   2.889  17.588  0.0448  0.2879  0.0659
 3740W        W 5890  24.815   4.362  19.907 -0.1743  0.2058  0.0345
 3741W        W 5891  25.633   5.605   2.458  0.0307  0.0008  0.0693
 3742W        W 5892  30.085   3.647  24.798  0.0046 -0.3099  0.0219
 3743W        W 5893  12.764   2.599  18.705  0.1147 -0.2003  0.0091
 3744W        W 5894  21.476   3.885   0.609 -0.0382  0.0994 -0.0190
 3745W        W 5895  12.121   3.166  21.904  0.1243  0.1726 -0.0414
 3746W        W 5896  15.756   1.003   1.926 -0.3421 -0.0433  0.2188
 3747W        W 5897   3.993   0.438  23.588  0.3153 -0.2738  0.2666
 3748W        W 5898  16.158   7.190  16.015  0.1878  0.0626 -0.0217
 3749W        W 5899  19.068   6.520   7.427  0.0999  0.0052 -0.0909
 3750W        W 5900  17.381   5.706   9.432  0.2626  0.1299  0.1571
 3751W        W 5901  23.812   3.824   1.401  0.1178  0.0393 -0.1336
 3752W        W 5902  12.118   2.556   7.402  0.4925 -0.4388  0.0254
 3753W        W 5903   1.179   5.213  10.578 -0.0200  0.0840 -0.1193
 3754W        W 5904  25.052   5.716   2.468 -0.1646 -0.0456  0.2745
 3755W        W 5905  13.052   4.224  17.547 -0.0975  0.1141 -0.1525
 3756W        W 5906  30.637   2.128  25.382 -0.1290  0.0785 -0.0342
 3757W        W 5907  13.710   7.488  10.907  0.2220  0.2463 -0.0927
 3758W        W 5908   4.421   4.809   2.894  0.1090 -0.2733 -0.0254
 3759W        W 5909   9.024   1.833  18.982  0.1370  0.3102  0.2882
 3760W        W 5910  19.606   4.355   7.567 -0.0647 -0.1849  0.1087
 3761W        W 5911   8.258   2.442  19.965  0.0708 -0.1374  0.0976
 3762W        W 5912  27.121   1.753  21.425 -0.2979  0.2287  0.2097
 3763W        W 5913  27.092   2.854   8.610 -0.0708 -0.0380 -0.0474
 3764W        W 5914  10.085   3.069   3.133 -0.5691  0.0293  0.1443
 3765W        W 5915  25.304   7.783  24.463  0.0613 -0.0174 -0.2273
 3766W        W 5916   3.938   6.746   3.547 -0.1569 -0.0202 -0.0806
 3767W        W 5917  28.803   6.047   8.614 -0.1821 -0.2840 -0.0746
 3768W        W 5918  30.363   5.893   2.448 -0.1727  0.0038  0.3899
 3769W        W 5919   2.366   6.655  20.469  0.0989 -0.0424 -0.2217
 3770W        W 5920   5.947   1.985  22.668 -0.2682 -0.1797 -0.2957
 3771W        W 5921  26.094   3.318  23.611  0.1346 -0.0279  0.0831
 3772W        W 5922  15.359   0.544   3.753 -0.0556 -0.1201 -0.0461
 3773W        W 5923   0.719   1.506   8.932  0.0763  0.0799  0.0498
 3774W        W 5924  25.152   5.592   8.631  0.1071 -0.1698  0.1309
 3775W        W 5925   9.457   4.686  17.041 -0.1988 -0.1204  0.2101
 3776W        W 5926  25.639   2.985  22.987  0.4472 -0.0628  0.2180
 3777W        W 5927   1.000   0.833  20.423  0.1297  0.1500  0.1259
 3778W        W 5928  22.976   3.100   3.032 -0.2010  0.0307 -0.2137
 3779W        W 5929   6.911   3.583   1.743 -0.1103 -0.0749 -0.0154
 3780W        W 5930  15.127   2.483   5.217 -0.1570  0.1490 -0.1211
 3781W        W 5931   9.115   1.476  24.906  0.2708 -0.0469 -0.2165
 3782W        W 5932  30.439   2.688   6.198 -0.3548 -0.2650 -0.2086
 3783W        W 5933  15.785   2.145  17.273  0.0198 -0.2624  0.1394
 3784W        W 5934  21.047   2.040   5.242  0.1914 -0.1901 -0.1253
 3785W        W 5935   7.829   7.086  23.861 -0.0532  0.1388 -0.0637
 3786W        W 5936  14.519   7.663  16.760  0.2106  0.3434  0.0346
 3787W        W 5937   9.244   1.417  25.542 -0.1961 -0.3354 -0.2930
 3788W        W 5938  16.600   7.595   9.220  0.0884 -0.1439  0.2676
 3789W        W 5939  21.334   1.495  21.403  0.1775  0.0603 -0.2198
 3790W        W 5940  30.395   6.007   9.509 -0.1973 -0.0452 -0.4273
 3791W        W 5941  25.423   2.257   6.508 -0.2177  0.1829 -0.2144
 3792W        W 5942   5.132   5.724   0.677 -0.0167  0.1308  0.1741
 3793W        W 5943   2.023   4.948   7.655  0.4186  0.0292 -0.0168
 3794W        W 5944  15.475   2.615  19.382 -0.1003  0.1560  0.0510
 3795W        W 5945  28.939   0.973  10.314  0.3491  0.0677  0.0444
 3796W        W 5946  19.365   4.210  16.302  0.0406 -0.0727 -0.0288
 3797W        W 5947  21.090   3.190   9.560 -0.0378  0.3581  0.0584
 3798W        W 5948  14.239   6.149  20.173 -0.1001 -0.2541 -0.0977
 3799W        W 5949   7.000   4.045  17.403 -0.0771  0.1371  0.0956
 3800W        W 5950   1.205   1.444  23.076  0.2063  0.4253  0.0429
 3801W        W 5951  15.653   2.463   5.187 -0.0393  0.0609  0.1459
 3802W        W 5952  28.607   0.012   2.992  0.0502 -0.1559 -0.2544
 3803W        W 5953   4.629   1.417  22.970  0.0441 -0.2201  0.0762
 3804W        W 5954  19.476   1.651  21.924  0.0680  0.0023 -0.1171
 3805W        W 5955  13.946   5.955   6.744  0.1342  0.2742  0.2429
 3806W        W 5956  29.350   3.323  18.877  0.0951 -0.1249 -0.1490
 3807W        W 5957  20.563   3.302   3.573 -0.0832 -0.2503  0.2016
 3808W        W 5958  13.323   5.063   7.773 -0.0848  0.3285 -0.1802
 3809W        W 5959  25.262   0.938  10.185 -0.0536 -0.0670 -0.2269
 3810W        W 5960  26.128   5.304  24.627 -0.1906  0.1256  0.0890
 3811W        W 5961   3.862   4.465   7.933 -0.0001  0.0546  0.2084
 3812W        W 5962  22.597   3.347  25.935  0.0873 -0.3045 -0.3494
 3813W        W 5963   6.670   4.816   9.100 -0.0885 -0.1492  0.1791
 3814W        W 5964  20.548   7.061  10.034  0.5567  0.1122 -0.0428
 3815W        W 5965   3.475   5.471   7.731  0.1060 -0.3543  0.0681
 3816W        W 5966   9.483   2.982  22.320 -0.1172 -0.0639  0.2157
 3817W        W 5967   2.632   0.039   9.142  0.0211 -0.3081  0.1620
 3818W        W 5968  21.126   0.332   7.163  0.1423 -0.1374 -0.0448
 3819W        W 5969  15.563   2.007   9.053 -0.1563 -0.1855  0.0665
 3820W        W 5970   4.213   4.385  16.941  0.1885 -0.0684  0.1703
 3821W        W 5971  22.165   1.226  11.775  0.1601  0.0447 -0.0365
 3822W        W 5972  13.513   3.644   6.134  0.0467 -0.0893 -0.3296
 3823W        W 5973  25.864   4.869  19.905  0.1895  0.0920  0.1436
 3824W        W 5974  15.023   7.599  20.865 -0.2225  0.1982  0.1279
 3825W        W 5975  29.171   1.176  16.056 -0.4222 -0.3021  0.0735
 3826W        W 5976  15.502   7.264  18.429 -0.0350  0.2482  0.1751
 3827W        W 5977  22.906   7.408  16.483  0.0895  0.1725 -0.4082
 3828W        W 5978   1.820   6.112  10.367 -0.1765 -0.1286  0.3877
 3829W        W 5979  10.139   4.121  19.813  0.2116 -0.0069  0.0203
 3830W        W 5980  15.336   7.557   9.750  0.0888 -0.1234 -0.2302
 3831W        W 5981   7.244   1.230   6.941  0.1612 -0.1224 -0.3221
 3832W        W 5982  25.675   4.159  16.835 -0.1397  0.3737 -0.0360
 3833W        W 5983  12.313   0.359  16.351  0.1232 -0.0562 -0.1332
 3834W        W 5984  26.400   4.785   7.659 -0.2750  0.0898  0.2482
 3835W        W 5985   3.883   7.468  18.521 -0.2021 -0.0844 -0.0419
 3836W        W 5986  21.009   1.782  15.775 -0.0130  0.0027  0.0047
 3837W        W 5987  16.265   7.356   3.400  0.3543 -0.3456 -0.4065
 3838W        W 5988  27.953   6.492  22.440 -0.1882 -0.2224  0.2255
 3839W        W 5989  12.893   3.002  22.726 -0.2852  0.0601  0.1245
 3840W        W 5990   8.501   5.660  15.387 -0.1946  0.1009  0.1051
 3841W        W 5991   7.229   7.486  20.120 -0.1904 -0.0899  0.3991
 3842W        W 5992  20.876   4.309   8.807 -0.4292  0.0708  0.1218
 3843W        W 5993  23.808   3.361  16.747  0.1410  0.1299 -0.1093
 3844W        W 5994  11.522   5.939   3.408 -0.2881  0.0894 -0.0063
 3845W        W 5995   5.625   7.652  18.675  0.0298  0.0491  0.0584
 3846W        W 5996  17.243   2.053   5.467 -0.0342  0.1147  0.0451
 3847W        W 5997  16.239   4.914   5.265  0.2509  0.2307 -0.0619
 3848W        W 5998  22.424   7.499   5.720  0.0370  0.0358 -0.0336
 3849W        W 5999  15.035   1.497  21.426  0.0823  0.2077 -0.0387
 3850W        W 6000  29.160   7.631   2.896 -0.1184  0.1324  0.0570
 3851W        W 6001  13.683   5.125  17.247  0.0838  0.0977 -0.0310
 3852W        W 6002   4.989   3.540  19.890  0.0078  0.0980 -0.2007
 3853W        W 6003  22.201   5.160  19.292  0.1441 -0.0199  0.0281
 3854W        W 6004  29.606   5.668   6.783  0.0022  0.2897  0.0456
 3855W        W 6005  18.740   2.678  11.286 -0.1802  0.0719  0.1488
 3856W        W 6006  16.442   4.027   0.070  0.3154 -0.1108  0.3023
 3857W        W 6007   3.765   0.087  21.015 -0.0754  0.0219  0.2402
 3858W        W 6008   1.836   5.120  23.977 -0.4756  0.0267 -0.3331
 3859W        W 6009   9.819   6.064   6.129 -0.0525 -0.2004 -0.1402
 3860W        W 6010  19.958   1.525  21.396  0.2523 -0.1344 -0.1956
 3861W        W 6011   3.177   0.655   2.471 -0.1258 -0.4061  0.0126
 3862W        W 6012   4.072   5.018   1.305 -0.2635 -0.0130  0.0509
 3863W        W 6013   5.878   6.275  16.345  0.0833 -0.0892  0.0757
 3864W        W 6014   0.050   3.567   9.074  0.1427 -0.0436 -0.0593
 3865W        W 6015  30.052   4.299   7.312  0.1918  0.3120  0.0501
 3866W        W 6016   5.726   5.106  11.496  0.0316  0.0356 -0.0515
 3867W        W 6017  27.432   1.928   2.436  0.0315 -0.2105 -0.3590
 3868W        W 6018  29.953   6.392   7.849 -0.1405  0.0398 -0.2061
 3869W        W 6019  12.796   1.120   2.307 -0.0080  0.0196  0.0492
 3870W        W 6020   0.897   4.462  22.838  0.0168  0.2540  0.4575
 3871W        W 6021  27.162   7.541   0.664  0.2451  0.2569  0.2365
 3872W        W 6022  10.668   7.750   5.402  0.0831  0.2246  0.2306
 3873W        W 6023   3.548   6.583   9.242 -0.3921  0.0712 -0.1262
 3874W        W 6024  11.268   4.720   0.091 -0.1475 -0.2751  0.0616
 3875W        W 6025   9.560   2.147  10.489  0.1565 -0.2507 -0.0751
 3876W        W 6026  20.271   5.159  25.120 -0.1665 -0.0594  0.2413
 3877W        W 6027  13.525   1.641  23.363 -0.0086  0.0255  0.1136
 3878W        W 6028  10.007   2.438   2.321  0.0138 -0.1718  0.0754
 3879W        W 6029   7.651   7.128  24.966  0.0724  0.0856 -0.0290
 3880W        W 6030   2.563   7.331   0.013 -0.0375  0.1011 -0.0043
 3881W        W 6031  20.088   5.968  16.747 -0.0296 -0.2071  0.0597
 3882W        W 6032   2.744   4.862  17.435  0.1756 -0.2299  0.1735
 3883W        W 6033  29.919   5.974   0.263  0.0882  0.1147 -0.1037
 3884W        W 6034   6.115   6.375  21.232 -0.2538  0.1353 -0.1905
 3885W        W 6035  17.217   1.333  26.161  0.1556 -0.1700  0.0743
 3886W        W 6036  17.842   3.225   1.683  0.1376  0.3176  0.1803
 3887W        W 6037  23.447   6.622   1.777  0.0786 -0.0433 -0.0754
 3888W        W 6038  21.698   2.336  18.002  0.0995 -0.2549 -0.1069
 3889W        W 6039  24.455   1.806  21.571  0.1701  0.0692 -0.3997
 3890W        W 6040  28.321   2.668  21.444 -0.0399 -0.2141 -0.0189
 3891W        W 6041  26.832   5.568  20.972  0.1721  0.2319  0.3258
 3892W        W 6042  10.001   1.356  20.402 -0.4208  0.0844  0.1332
 3893W        W 6043  20.319   3.076   1.054  0.0996 -0.0791 -0.1635
 3894W        W 6044   9.657   3.768  20.495  0.0313 -0.1385 -0.2074
 3895W        W 6045  19.250   5.141   1.227  0.0450 -0.2115  0.1742
 3896W        W 6046  17.877   3.652  25.164  0.2966 -0.0383 -0.3205
 3897W        W 6047  10.798   2.601   3.786  0.0568 -0.4523 -0.2504
 3898W        W 6048  19.290   2.954  23.085 -0.0330 -0.2166 -0.0440
 3899W        W 6049  16.519   7.310  19.853  0.0051 -0.2354  0.0454
 3900W        W 6050   8.717   3.016  26.193  0.1750  0.0031 -0.2063
 3901W        W 6051  11.149   2.105  17.079 -0.2392  0.1401  0.0547
 3902W        W 6052  20.993   7.184  24.867 -0.0129 -0.1442 -0.0509
 3903W        W 6053  20.715   7.268   2.699  0.1040 -0.0205  0.0566
 3904W        W 6054  19.226   6.097  16.792 -0.1869 -0.0884 -0.1710
 3905W        W 6055   6.346   5.369  10.767  0.0188  0.0080 -0.3837
 3906W        W 6056  21.832   3.775  21.909 -0.0747 -0.0377  0.2462
 3907W        W 6057  17.986   2.854  17.113  0.0058 -0.2338 -0.1343
 3908W        W 6058   1.543   5.539   4.538  0.2878  0.0213 -0.0288
 3909W        W 6059  14.130   7.667   4.126 -0.0645  0.1759 -0.4315
 3910W        W 6060   0.033   2.379  10.963 -0.0203  0.0866 -0.1887
 3911W        W 6061   6.388   2.208  10.111 -0.2143 -0.0579 -0.0664
 3912W        W 6062   3.705   6.510   4.382 -0.0425 -0.0704 -0.2443
 3913W        W 6063  12.348   1.351   5.444 -0.2949 -0.1625  0.0371
 3914W        W 6064  27.584   7.293   6.875 -0.1079 -0.2402 -0.0673
 3915W        W 6065   8.138   0.147  23.628  0.1274 -0.0537 -0.3460
 3916W        W 6066  29.497   6.756  23.194  0.0676  0.1860  0.2663
 3917W        W 6067   4.257   2.276  17.650 -0.2556  0.2918  0.1352
 3918W        W 6068  29.884   7.358   6.740  0.2221 -0.0880  0.2590
 3919W        W 6069  28.978   3.995  25.494  0.1603 -0.0166 -0.1859
 3920W        W 6070   4.251   1.473  21.955 -0.1858  0.0423  0.2788
 3921W        W 6071  19.792   1.952  24.455  0.2463  0.1286 -0.1198
 3922W        W 6072  29.464   0.655   4.607  0.2688  0.1323 -0.1687
 3923W        W 6073  13.231   6.426  20.000 -0.1474  0.2101  0.3784
 3924W        W 6074   5.823   2.405  22.946 -0.0866  0.5617 -0.1987
 3925W        W 6075  22.417   0.494  26.059 -0.2049  0.1535 -0.2701
 3926W        W 6076   5.322   1.797   5.244 -0.1055  0.0461 -0.0736
 3927W        W 6077   1.913   4.923   6.048 -0.0829  0.0079  0.0215
 3928W        W 6078   7.662   2.919   7.592 -0.0103  0.1180 -0.1933
 3929W        W 6079   3.187   6.393  23.652  0.1172 -0.2394 -0.2452
 3930W        W 6080  21.120   5.820   7.313 -0.1771  0.1807 -0.3431
 3931W        W 6081  13.398   5.258   9.820 -0.1419 -0.3830  0.0011
 3932W        W 6082  10.791   4.186  22.464  0.0064 -0.2782 -0.1322
 3933W        W 6083  23.624   3.376  17.200 -0.1403  0.0338 -0.1702
 3934W        W 6084  12.317   0.084  20.357 -0.0519 -0.2317  0.2915
 3935W        W 6085   0.205   4.153  25.568  0.0250  0.1909  0.1246
 3936W        W 6086   0.520   2.121  20.614 -0.0709  0.2155  0.0208
 3937W        W 6087   2.130   4.119  18.873  0.1705 -0.3289  0.0839
 3938W        W 6088  16.280   4.255  23.403 -0.0305  0.2191 -0.1143
 3939W        W 6089  21.675   6.778   2.837  0.0624  0.0096  0.1333
 3940W        W 6090   6.821   7.137  22.586 -0.1462  0.2099  0.1370
 3941W        W 6091  13.606   1.339   3.257  0.1142  0.2157 -0.1180
 3942W        W 6092  12.085   3.897   1.942  0.2553  0.1425  0.1142
 3943W        W 6093   1.296   4.280  17.723  0.0183 -0.1336  0.0674
 3944W        W 6094  18.100   0.297  20.384 -0.1701  0.0076 -0.0502
 3945W        W 6095  26.626   1.301   2.184 -0.0022 -0.0184 -0.1160
 3946W        W 6096  19.906   5.384  17.395 -0.1215  0.0583  0.0441
 3947W        W 6097   5.011   6.165  23.608 -0.1086  0.1686  0.2417
 3948W        W 6098  13.303   1.086  20.417 -0.2006  0.1414  0.2109
 3949W        W 6099  17.183   7.232  10.205 -0.0365 -0.3960 -0.2955
 3950W        W 6100  14.548   4.154   3.318 -0.2999 -0.1559 -0.0143
 3951W        W 6101   8.769   4.351   6.554  0.0076 -0.0955  0.2837
 3952W        W 6102  14.569   1.112  10.207  0.1903 -0.0767 -0.3264
 3953W        W 6103  22.207   6.566  11.355  0.2462 -0.2573 -0.0854
 3954W        W 6104  18.223   5.302   6.452  0.0008  0.0920 -0.0632
 3955W        W 6105  19.740   6.044   8.477  0.0820 -0.1152 -0.0046
 3956W        W 6106  25.598   6.693  25.781  0.0009 -0.2892  0.0657
 3957W        W 6107  28.249   1.884  25.541 -0.3163  0.0500 -0.1025
 3958W        W 6108  19.650   5.582   9.217  0.1753 -0.1159 -0.0466
 3959W        W 6109   3.258   0.969  10.588  0.0330  0.0690  0.0683
 3960W        W 6110  19.591   4.812   1.366  0.1769  0.1892 -0.0945
 3961W        W 6111  19.770   2.901   3.022 -0.2102 -0.1992  0.0591
 3962W        W 6112  12.828   3.579   2.187  0.0506  0.0047  0.1929
 3963W        W 6113  27.736   3.268   5.482 -0.1834 -0.2708 -0.1881
 3964W        W 6114   6.478   0.445  22.870  0.0117 -0.0982 -0.2599
 3965W        W 6115   5.213   6.587  23.857 -0.1119  0.1763 -0.1248
 3966W        W 6116  26.462   5.777  25.038 -0.0716  0.0484  0.0948
 3967W        W 6117  15.670   4.430   5.307 -0.0856 -0.0652  0.1422
 3968W        W 6118  16.759   5.381   0.676 -0.0921  0.2240 -0.1355
 3969W        W 6119  19.001   5.457  22.480 -0.0820  0.0472  0.0151
 3970W        W 6120  15.373   1.770  15.340  0.0866  0.1358  0.0871
 3971W        W 6121  11.557   5.042  19.097 -0.2002  0.3167 -0.0015
 3972W        W 6122   1.446   6.486  11.106  0.0694 -0.0029  0.1106
 3973W        W 6123  12.174   7.611  18.916  0.0955 -0.0398  0.0175
 3974W        W 6124  12.325   5.912   3.818  0.0292  0.0625  0.1526
 3975W        W 6125   3.809   1.346   4.126 -0.0479 -0.0952 -0.0336
 3976W        W 6126  12.774   6.228   3.457 -0.2313 -0.0782  0.2478
 3977W        W 6127   8.388   1.073   5.116 -0.2647  0.1934  0.0596
 3978W        W 6128  12.478   7.478  24.143  0.2369 -0.1035  0.0371
 3979W        W 6129  23.550   4.286   2.042  0.0292 -0.2742 -0.0489
 3980W        W 6130  10.384   3.966  25.624 -0.0991 -0.0421 -0.1398
 3981W        W 6131  26.884   6.511  25.285  0.0838  0.1846 -0.2016
 3982W        W 6132  22.830   6.143   4.642  0.1202  0.1791  0.4205
 3983W        W 6133  18.525   4.413  10.503  0.0921  0.0602  0.3691
 3984W        W 6134   1.140   4.159   0.281 -0.0011 -0.4075 -0.0179
 3985W        W 6135   8.260   6.531  24.560  0.2283 -0.0898  0.3319
 3986W        W 6136  23.799   3.144  10.517  0.0731  0.1482  0.1036
 3987W        W 6137   1.144   5.914   3.351  0.1277 -0.1321  0.0486
 3988W        W 6138   8.335   2.613  17.297  0.1757  0.1362  0.0205
 3989W        W 6139  30.708   0.047   0.717  0.3024 -0.4273 -0.1517
 3990W        W 6140  13.609   6.456   7.272  0.1106  0.1367 -0.1844
 3991W        W 6141  23.231   6.130   3.681 -0.0837 -0.1806 -0.3581
 3992W        W 6142  26.799   7.271  10.924 -0.1540 -0.0739  0.1472
 3993W        W 6143  21.962   4.844  16.938  0.0124  0.1491  0.0735
 3994W        W 6144  30.210   5.661   9.896 -0.1796 -0.3093  0.0944
 3995W        W 6145   8.769   7.376  15.963 -0.3627  0.0366  0.1467
 3996W        W 6146   7.735   3.059  17.282 -0.0747 -0.0033  0.1458
 3997W        W 6147  26.992   2.470  22.169 -0.0436 -0.2270 -0.2241
 3998W        W 6148  20.480   6.423  20.187  0.1060 -0.0417 -0.1601
 3999W        W 6149   3.729   2.341  17.712  0.3239  0.0924 -0.1973
 4000W        W 6150  28.047   3.599  18.029 -0.0655 -0.1411 -0.1789
 4001W        W 6151  22.837   0.952   8.958 -0.2853 -0.0197  0.3323
 4002W        W 6152  15.003   4.215  23.600  0.4080 -0.0605  0.0781
 4003W        W 6153  13.241   3.621   0.090  0.0474  0.1448 -0.2202
 4004W        W 6154   5.676   0.629   5.200  0.0731  0.0899  0.0918
 4005W        W 6155  23.392   4.471  17.071  0.1186 -0.4279  0.0948
 4006W        W 6156  22.471   3.368  22.435 -0.4109 -0.1793  0.2586
 4007W        W 6157   7.434   6.873  16.556 -0.1997  0.0255 -0.0924
 4008W        W 6158  20.201   6.286  10.556  0.1576  0.2520 -0.0300
 4009W        W 6159  11.110   0.181   0.936  0.1070  0.1929  0.1118
 4010W        W 6160   2.819   6.019   1.196  0.1907 -0.2219 -0.2453
 4011W        W 6161   7.658   6.024   0.279  0.1407  0.0552  0.0402
 4012W        W 6162   5.718   3.761  15.943  0.0472 -0.0521 -0.2251
 4013W        W 6163   5.666   2.580   3.716 -0.4148 -0.2211 -0.2919
 4014W        W 6164   4.918   3.856   8.172 -0.1748  0.0680  0.0812
 4015W        W 6165  20.132   1.952   0.319 -0.0232  0.0142 -0.0855
 4016W        W 6166   6.036   7.483   7.971  0.1269 -0.2927  0.0772
 4017W        W 6167  31.177   6.656   5.043  0.5239  0.3823  0.1471
 4018W        W 6168  19.011   4.465  10.696  0.4388  0.1148  0.2540
 4019W        W 6169  27.100   4.178  19.415 -0.3323  0.1246  0.0061
 4020W        W 6170   8.480   2.023   8.105 -0.1585  0.0716 -0.0054
 4021W        W 6171  22.922   1.416  18.957  0.0533 -0.1268  0.3287
 4022W        W 6172   3.629   5.539   3.879 -0.3788 -0.2583 -0.3625
 4023W        W 6173  22.383   1.212  24.064 -0.3047  0.1770  0.2934
 4024W        W 6174  11.203   1.580   4.792  0.1365 -0.1517 -0.3458
 4025W        W 6175  10.225   3.326  23.528  0.0598 -0.0872  0.0218
 4026W        W 6176  12.111   1.482   1.285 -0.0123  0.0515 -0.2642
 4027W        W 6177  23.914   0.402  18.718 -0.3947 -0.1149 -0.1116
 4028W        W 6178  10.193   4.667  24.424 -0.0528  0.3436 -0.0660
 4029W        W 6179  24.613   7.426  16.387  0.2336  0.2007 -0.2923
 4030W        W 6180  18.803   7.581  18.956  0.0491 -0.0111  0.2206
 4031W        W 6181  19.527   5.528   3.939  0.1658 -0.3082 -0.0385
 4032W        W 6182  22.423   4.618  25.340 -0.0357 -0.3339  0.1960
 4033W        W 6183  21.764   4.061  19.176  0.0213 -0.1328 -0.2432
 4034W        W 6184  26.140   5.424   9.887 -0.1799  0.3371 -0.1484
 4035W        W 6185  12.010   4.385   7.585  0.0283  0.4672 -0.3676
 4036W        W 6186  27.378   6.433   7.179  0.1124 -0.0026 -0.1622
 4037W        W 6187  25.157   6.412   5.668  0.0233  0.3872  0.0508
 4038W        W 6188  22.375   2.202   2.918 -0.2809 -0.0407 -0.3280
 4039W        W 6189   9.620   6.501  19.673  0.0190  0.2568  0.1485
 4040W        W 6190  14.506   6.178  15.702 -0.0720  0.1859  0.3304
 4041W        W 6191   2.345   0.145   7.241 -0.2551  0.0029 -0.0057
 4042W        W 6192  30.708   0.019   7.164  0.1247 -0.0256  0.2664
 4043W        W 6193  17.923   0.004   6.523 -0.2771  0.1983 -0.1673
 4044W        W 6194   2.226   2.032   9.213  0.0638 -0.1476 -0.2607
 4045W        W 6195  29.927   2.333   9.985  0.2991  0.1649 -0.1795
 4046W        W 6196  23.094   0.469   1.798 -0.0246 -0.2420  0.2158
 4047W        W 6197  19.337   1.835  24.989  0.1463  0.3143  0.1103
 4048W        W 6198   7.953   3.365  21.140 -0.0459 -0.2618 -0.0121
 4049W        W 6199  17.607   4.012  22.555 -0.0853  0.2440 -0.2931
 4050W        W 6200   3.128   7.343   8.042 -0.0004  0.0304 -0.4258
 4051W        W 6201  29.230   3.143  24.180  0.2201 -0.0241 -0.0858
 4052W        W 6202  18.487   1.848   4.393  0.0080 -0.2433 -0.1602
 4053W        W 6203  16.024   2.595   7.073 -0.1044 -0.2112 -0.2708
 4054W        W 6204  29.264   5.361  15.536  0.2002  0.1115 -0.1010
 4055W        W 6205   1.052   1.832   6.563 -0.1379 -0.1301 -0.1553
 4056W        W 6206  12.766   2.494  22.001 -0.2224  0.0676  0.1939
 4057W        W 6207  17.583   2.733  18.602  0.4669  0.1403 -0.0566
 4058W        W 6208  28.457   5.660   7.476 -0.1963  0.0527 -0.2075
 4059W        W 6209  25.695   6.162   3.771 -0.0935 -0.1441  0.0569
 4060W        W 6210  20.178   4.728  18.299 -0.1052  0.0401 -0.1878
 4061W        W 6211  21.216   3.998   0.173  0.2229 -0.2635  0.0275
 4062W        W 6212  28.655   5.076  23.830 -0.0616  0.1142  0.0868
 4063W        W 6213   2.567   6.206  24.291  0.0853  0.0809 -0.0193
 4064W        W 6214  30.926   4.799  19.578  0.1937  0.1161 -0.0622
 4065W        W 6215  27.805   1.403   7.149 -0.1774  0.0657 -0.1255
 4066W        W 6216  11.102   7.444  10.096  0.2695  0.0931 -0.2110
 4067W        W 6217  22.321   7.194  17.844  0.1191  0.2233 -0.2493
 4068W        W 6218  13.528   7.223  16.150 -0.0168 -0.0382  0.0473
 4069W        W 6219  25.338   0.105   9.369  0.1611  0.1321 -0.0051
 4070W        W 6220   2.860   7.682  18.694 -0.2291 -0.0109  0.1347
 4071W        W 6221  28.506   7.101   4.135  0.2018 -0.1443  0.1111
 4072W        W 6222   1.597   5.417  23.459 -0.1210  0.2377 -0.0374
 4073W        W 6223  19.873   6.675  10.634  0.0571  0.0428 -0.1190
 4074W        W 6224  21.982   5.024  24.472 -0.0075 -0.1847 -0.1476
 4075W        W 6225  12.139   5.919  15.650 -0.0195 -0.3631 -0.3068
 4076W        W 6226  28.364   6.795  22.481  0.0457 -0.3842  0.1010
 4077W        W 6227   7.597   6.323   8.552 -0.2309  0.3647 -0.0030
 4078W        W 6228  25.835   4.363   6.042  0.0611  0.2489 -0.1215
 4079W        W 6229  29.651   5.054   3.081  0.3137  0.0195  0.1671
 4080W        W 6230   3.715   2.678   4.887  0.2071 -0.0512 -0.0206
 4081W        W 6231   0.455   5.549   8.850  0.2389 -0.2595 -0.2700
 4082W        W 6232  13.787   2.964   0.512 -0.1468  0.2240  0.1543
 4083W        W 6233  11.700   0.012  25.797  0.0604  0.0220 -0.1333
 4084W        W 6234  30.994   3.677  26.165 -0.0878  0.0890  0.3033
 4085W        W 6235  26.665   7.705  22.638  0.0214 -0.0559  0.2148
 4086W        W 6236  21.967   5.844  20.751  0.0046  0.1229 -0.1545
 4087W        W 6237  13.291   7.192  10.805  0.1963  0.2153  0.2211
 4088W        W 6238  29.230   2.903   7.687  0.0192 -0.1431  0.3007
 4089W        W 6239   5.635   0.441  23.389  0.1227  0.0424  0.0738
 4090W        W 6240   6.044   6.287  17.343  0.1237  0.0808 -0.0633
 4091W        W 6241  20.727   7.578  22.740  0.0065 -0.1947  0.0525
 4092W        W 6242  28.520   4.211  25.712  0.0927 -0.1730  0.0418
 4093W        W 6243   5.119   6.237   3.678  0.1376 -0.4422 -0.3330
 4094W        W 6244   3.672   4.272   5.718 -0.1300 -0.0841 -0.2575
 4095W        W 6245   0.438   0.839   4.747  0.0636 -0.2874  0.0862
 4096W        W 6246  17.215   7.308  17.812  0.2204  0.1627 -0.0869
 4097W        W 6247  16.472   3.597  20.766 -0.0526 -0.4182  0.1157
 4098W        W 6248  27.461   5.167  25.722 -0.2104  0.2690  0.1335
 4099W        W 6249   9.540   7.222  16.716 -0.0390  0.1041 -0.0997
 4100W        W 6250  19.791   6.192  16.173 -0.0035 -0.1498  0.2649
 4101W        W 6251  14.272   3.256  16.265  0.2603  0.1371 -0.0662
 4102W        W 6252  19.584   3.198  26.239 -0.0303 -0.3375 -0.1243
 4103W        W 6253   9.396   4.798  19.964 -0.1842 -0.1391 -0.0722
 4104W        W 6254  15.985   5.044  21.739 -0.3544 -0.0002  0.0142
 4105W        W 6255  30.274   1.166  24.100  0.0209 -0.3446 -0.1035
 4106W        W 6256  29.897   4.823  24.976 -0.2084  0.2993 -0.0280
 4107W        W 6257   7.226   5.721   8.987  0.1209 -0.2278  0.2106
 4108W        W 6258   9.601   4.698   6.457 -0.2615  0.1907 -0.1155
 4109W        W 6259  13.849   3.458  25.341  0.2323 -0.1209  0.0215
 4110W        W 6260   9.893   5.091  18.538 -0.0443 -0.0509  0.1266
 4111W        W 6261  11.171   3.263  21.639 -0.2149 -0.1439 -0.2189
 4112W        W 6262  29.898   4.295  18.159 -0.3623 -0.0316 -0.1541
 4113W        W 6263  20.278   2.625   9.267  0.0609 -0.1758 -0.0738
 4114W        W 6264   2.232   2.163   3.190  0.3874  0.5233  0.0316
 4115W        W 6265  13.511   1.206   1.167 -0.0957  0.0611 -0.1435
 4116W        W 6266   6.515   4.617  16.654  0.0113 -0.1986 -0.2767
 4117W        W 6267   2.975   6.934  23.774  0.0633  0.1154  0.1149
 4118W        W 6268   7.617   5.493   6.078  0.1115  0.0125 -0.0422
 4119W        W 6269   5.042   4.063  19.135 -0.1184  0.0807 -0.0214
 4120W        W 6270   8.650   0.160  24.927 -0.0158 -0.3605 -0.1503
 4121W        W 6271  30.762   5.054   3.217 -0.0369  0.0735 -0.0358
 4122W        W 6272   9.571   0.956  18.738  0.2021  0.2864  0.0639
 4123W        W 6273  11.704   7.069  17.830  0.0229  0.2011 -0.0102
 4124W        W 6274  22.410   6.160   7.622  0.2650  0.0257  0.1114
 4125W        W 6275  17.678   4.388   6.874  0.0817  0.0664  0.3165
 4126W        W 6276  11.968   3.714  24.153  0.1430  0.0291 -0.2672
 4127W        W 6277   0.184   6.975   2.815 -0.1618  0.1207 -0.0325
 4128W        W 6278   7.567   0.738  22.419 -0.1450  0.1177  0.0084
 4129W        W 6279  12.273   6.993  18.601  0.2359 -0.0634 -0.1530
 4130W        W 6280   4.190   6.995  19.421 -0.2170 -0.0779 -0.1647
 4131W        W 6281  22.045   2.724   4.341  0.1659  0.3624  0.0300
 4132W        W 6282  19.193   4.562  15.974 -0.1417  0.3193 -0.1940
 4133W        W 6283  25.003   6.020  26.390  0.0958 -0.0255 -0.0737
 4134W        W 6284  22.419   6.043  16.973 -0.0064 -0.0706 -0.1522
 4135W        W 6285   4.715   4.282   3.850 -0.2262 -0.1560 -0.0552
 4136W        W 6286  12.629   7.403   1.222 -0.1152  0.0020  0.1189
 4137W        W 6287  24.242   2.556   7.592 -0.1268 -0.0025 -0.2375
 4138W        W 6288  10.074   5.105  19.398  0.0342  0.1449  0.1789
 4139W        W 6289   0.909   4.575  18.040 -0.0105  0.2546 -0.1073
 4140W        W 6290  22.343   2.374  16.116 -0.0487 -0.3236 -0.0241
 4141W        W 6291  17.373   6.644   7.955 -0.0806 -0.0307  0.0366
 4142W        W 6292  13.009   6.006   8.606 -0.0555  0.0466 -0.0040
 4143W        W 6293  28.070   5.065  17.611 -0.0456 -0.2467  0.3753
 4144W        W 6294  13.455   7.637   3.612 -0.0285  0.2724 -0.0478
 4145W        W 6295  28.971   5.144   7.808  0.0467  0.3751 -0.2099
 4146W        W 6296   0.687   6.235  25.100 -0.1802  0.0633 -0.2210
 4147W        W 6297  24.373   2.964   1.114  0.3238  0.0845 -0.0572
 4148W        W 6298  17.094   3.808   8.370 -0.2242  0.0339 -0.0665
 4149W        W 6299  16.470   5.123   4.367 -0.2360  0.0886 -0.0397
 4150W        W 6300   6.785   6.155   2.963 -0.0308 -0.0973  0.0230
 4151W        W 6301   5.313   6.790   8.716  0.1126  0.1853  0.0048
 4152W        W 6302  12.852   0.735  19.044 -0.0499  0.3078 -0.1430
 4153W        W 6303   5.292   4.368  16.398 -0.0143 -0.2171 -0.0308
 4154W        W 6304   0.828   3.385  11.354 -0.4033 -0.0485  0.2575
 4155W        W 6305  15.704   3.273   0.823  0.3798  0.1129  0.4308
 4156W        W 6306   2.768   6.162   5.307  0.0633 -0.0274 -0.0397
 4157W        W 6307   6.335   7.416  19.283  0.0852 -0.1919  0.0605
 4158W        W 6308  23.087   5.837  25.006  0.3447  0.1060 -0.1645
 4159W        W 6309   9.201   7.768  16.084 -0.0919 -0.0192  0.0438
 4160W        W 6310   2.882   6.639   0.060  0.1858  0.0891  0.0849
 4161W        W 6311  29.363   4.862   2.128 -0.2894 -0.0084  0.1258
 4162W        W 6312  21.863   1.700   4.613  0.0719  0.2089 -0.0737
 4163W        W 6313   6.214   1.384  17.821  0.0132 -0.0382 -0.0503
 4164W        W 6314   9.562   2.538  22.630  0.0845  0.1625 -0.0217
 4165W        W 6315   9.409   6.092   8.581  0.1439 -0.0253 -0.2517
 4166W        W 6316  19.348   5.076  16.040  0.0155 -0.2654  0.0602
 4167W        W 6317  21.720   7.018   7.412  0.0993  0.1815  0.0111
 4168W        W 6318  12.224   3.484   6.448  0.0694  0.0608 -0.1297
 4169W        W 6319   0.614   5.971   2.212  0.2827  0.3863 -0.3762
 4170W        W 6320  30.529   1.734   0.558  0.1713  0.1036  0.2063
 4171W        W 6321   9.117   2.098   2.366  0.0860  0.2916  0.2635
 4172W        W 6322  18.401   0.214  18.046  0.3275 -0.0180  0.0886
 4173W        W 6323  11.257   2.991  25.186 -0.2047 -0.0960  0.0450
 4174W        W 6324  23.816   1.281   7.265 -0.1229  0.1015  0.0926
 4175W        W 6325  13.608   0.384   9.796 -0.3464 -0.2543  0.1732
 4176W        W 6326  29.490   4.410   9.988  0.4153  0.1676  0.1642
 4177W        W 6327  27.586   7.760   6.144 -0.1120 -0.0029  0.0157
 4178W        W 6328   2.410   0.071   1.460  0.1182 -0.1131 -0.1062
 4179W        W 6329  25.910   3.836   1.323 -0.0539 -0.0451 -0.0730
 4180W        W 6330  14.114   4.562  21.787 -0.1936 -0.0505 -0.0019
 4181W        W 6331  12.933   0.513  20.731  0.2584 -0.0170  0.0270
 4182W        W 6332  21.270   7.336  10.215 -0.3870  0.0849  0.2415
 4183W        W 6333  21.479   0.797   0.517 -0.1246  0.0171 -0.0968
 4184W        W 6334   5.405   6.551   5.795  0.1023 -0.4317  0.2139
 4185W        W 6335  23.611   6.849  24.890  0.2760 -0.0869  0.0110
 4186W        W 6336  20.293   5.089  25.985 -0.0089 -0.0964 -0.1484
 4187W        W 6337  23.849   6.849   9.411 -0.0879 -0.0423 -0.1500
 4188W        W 6338  21.421   4.220   0.935 -0.0036 -0.0236  0.0720
 4189W        W 6339   3.309   3.305  20.813  0.1472  0.0378  0.0930
 4190W        W 6340  10.400   3.521   6.682  0.2468  0.0941  0.0512
 4191W        W 6341   3.209   3.481  10.996  0.2032  0.0249 -0.0500
 4192W        W 6342   0.288   7.268   4.906  0.0055  0.0800 -0.0298
 4193W        W 6343  29.783   6.584  18.553  0.2030  0.0380  0.0952
 4194W        W 6344   1.723   0.456  24.359  0.2214  0.0835 -0.1226
 4195W        W 6345   9.047   1.712  24.027  0.1572  0.1749  0.2538
 4196W        W 6346  25.755   2.715   6.389  0.1113  0.1222 -0.0634
 4197W        W 6347   9.269   3.263  23.271 -0.0956 -0.1773 -0.0343
 4198W        W 6348  19.701   1.825  16.302  0.0271  0.0817 -0.1400
 4199W        W 6349   2.376   6.709   7.428  0.0295 -0.2297  0.0420
 4200W        W 6350  22.676   7.243  10.681 -0.4945 -0.0109  0.0777
 4201W        W 6351  30.644   4.637   4.287 -0.2550 -0.0203  0.0815
 4202W        W 6352  12.538   3.421  17.266 -0.2227 -0.0604 -0.0992
 4203W        W 6353   4.381   4.003  17.336  0.0222 -0.3529  0.0721
 4204W        W 6354  24.299   4.252   6.653  0.1316 -0.3482 -0.0964
 4205W        W 6355   1.298   0.891   2.144 -0.1506  0.0135  0.0976
 4206W        W 6356  27.697   4.998   2.638  0.2016  0.0351  0.4017
 4207W        W 6357  22.338   0.759   4.834 -0.2218  0.4898  0.2151
 4208W        W 6358  16.644   4.878   5.702 -0.2503 -0.1924 -0.2900
 4209W        W 6359  21.426   0.902   9.548 -0.0065 -0.2433 -0.2170
 4210W        W 6360  18.896   0.278  24.996  0.3181  0.2009 -0.1467
 4211W        W 6361  20.169   5.045   6.031 -0.1504  0.0077  0.0564
 4212W        W 6362  10.669   1.773  22.010  0.2563 -0.0626  0.0585
 4213W        W 6363   6.317   6.346  17.803 -0.2982  0.2925  0.0691
 4214W        W 6364  30.015   0.169  16.670  0.0119 -0.1286 -0.0121
 4215W        W 6365  29.425   4.014  17.992 -0.0620 -0.0600  0.1238
 4216W        W 6366  14.258   1.142  25.890 -0.0647  0.1251 -0.2729
 4217W        W 6367  17.307   0.360  15.693 -0.0719 -0.2245 -0.0238
 4218W        W 6368   7.673   2.195  16.294  0.0440  0.0552  0.0380
 4219W        W 6369  19.680   2.702  24.685 -0.1198  0.0364 -0.0167
 4220W        W 6370  15.344   3.191  15.954 -0.0067 -0.1670  0.0694
 4221W        W 6371  23.023   5.794  11.371  0.2518 -0.1565  0.0049
 4222W        W 6372   0.292   4.204  23.870  0.0339  0.1722  0.0781
 4223W        W 6373   3.154   7.690  19.938  0.0056  0.3115 -0.1839
 4224W        W 6374  19.065   1.235  25.603  0.1680 -0.4839 -0.1443
 4225W        W 6375   4.489   2.330   2.090 -0.0691 -0.3429  0.1931
 4226W        W 6376   1.731   6.921  15.392  0.1824  0.2280  0.0793
 4227W        W 6377   1.899   0.452   0.275 -0.1190  0.1710 -0.0147
 4228W        W 6378  20.189   5.160   1.849  0.1348 -0.2012 -0.2963
 4229W        W 6379   6.421   6.686  18.263  0.2584  0.0842 -0.0615
 4230W        W 6380  23.140   7.280   1.001  0.1915 -0.1004  0.2813
 4231W        W 6381   7.967   2.451   7.253  0.5063 -0.0308 -0.3117
 4232W        W 6382   7.891   3.916  20.678 -0.1165 -0.0349 -0.0721
 4233W        W 6383  18.540   1.805   3.880 -0.1166  0.1923  0.0338
 4234W        W 6384   6.291   1.318  22.230 -0.1345  0.1729 -0.0217
 4235W        W 6385  28.150   4.537  22.295 -0.0078  0.1694 -0.0224
 4236W        W 6386  22.970   1.735   9.787 -0.1043  0.0132 -0.1230
 4237W        W 6387   8.146   2.849   3.359 -0.0127 -0.0825  0.1120
 4238W        W 6388   6.615   3.469   2.645 -0.1450 -0.0919 -0.0096
 4239W        W 6389   2.387   5.555  17.700 -0.1212  0.1852  0.2224
 4240W        W 6390  28.897   6.328  24.558  0.1932  0.0266  0.0949
 4241W        W 6391   0.637   0.427  15.153  0.0790  0.0044 -0.0804
 4242W        W 6392   3.488   3.293  22.862 -0.1114  0.0687 -0.0715
 4243W        W 6393  28.278   6.992  15.995  0.0262 -0.0391 -0.0486
 4244W        W 6394  23.167   5.347  19.577 -0.0607 -0.2531 -0.0370
 4245W        W 6395  19.452   1.844   4.255 -0.1093  0.3702  0.0662
 4246W        W 6396  29.509   1.692   2.286 -0.2008 -0.0984 -0.1231
 4247W        W 6397  30.993   3.288  19.567  0.1091  0.0572  0.1414
 4248W        W 6398   2.040   5.052   9.239 -0.0990  0.0318  0.1705
 4249W        W 6399  12.252   2.886  20.533  0.0412  0.1826 -0.1250
 4250W        W 6400  13.776   7.611  24.334  0.2822 -0.1931  0.0543
 4251W        W 6401  24.694   3.947   1.930  0.1652 -0.1614  0.0512
 4252W        W 6402   9.650   7.703   5.312 -0.0100 -0.1381 -0.0697
 4253W        W 6403  26.726   6.408  26.412  0.0932  0.0242 -0.0064
 4254W        W 6404  11.687   7.105  24.111 -0.0767  0.0458 -0.1443
 4255W        W 6405   8.364   2.396   6.380 -0.1637 -0.0460 -0.1952
 4256W        W 6406   3.333   4.058   3.971  0.2622  0.1543  0.1089
 4257W        W 6407   0.018   2.395  24.936 -0.1173  0.1026 -0.2607
 4258W        W 6408  16.387   3.590   7.868  0.1854  0.0901  0.1269
 4259W        W 6409  24.965   6.674   4.055 -0.2323 -0.5482  0.1942
 4260W        W 6410  29.904   2.058  22.468 -0.1088  0.2911 -0.1723
 4261W        W 6411  13.663   5.304   4.747  0.1956 -0.2983 -0.3078
 4262W        W 6412  11.592   3.845   9.709  0.2033  0.0214 -0.0622
 4263W        W 6413   8.343   1.560  10.084  0.0738  0.0674  0.0631
 4264W        W 6414  10.132   4.998  20.348 -0.1270 -0.0884  0.2807
 4265W        W 6415  24.680   1.613   4.638 -0.2775 -0.0267  0.1752
 4266W        W 6416   3.601   7.526  18.085 -0.0366 -0.0029  0.0585
 4267W        W 6417  27.542   7.660   7.809 -0.1613  0.0590  0.2535
 4268W        W 6418   5.005   5.880  20.508  0.0900 -0.0445 -0.0729
 4269W        W 6419   0.169   2.831  21.695  0.1730  0.0082 -0.2049
 4270W        W 6420  21.341   5.601   6.359 -0.1619  0.2620 -0.0641
 4271W        W 6421  29.660   7.215   7.545 -0.0001  0.2593 -0.1082
 4272W        W 6422   5.565   2.695   9.351  0.3528 -0.0291  0.0145
 4273W        W 6423  26.466   5.085  16.186 -0.2337  0.0705 -0.0800
 4274W        W 6424   2.833   3.545  22.274 -0.1788  0.1420 -0.0240
 4275W        W 6425  20.414   1.179   6.167  0.1676 -0.6479 -0.0842
 4276W        W 6426   9.148   4.947  16.164 -0.1410 -0.0623  0.0092
 4277W        W 6427   9.091   3.641   7.681 -0.0546 -0.1156  0.3238
 4278W        W 6428  18.283   7.577   9.272 -0.0058  0.1281 -0.1790
 4279W        W 6429  28.528   3.400  10.607  0.0709  0.0421 -0.0429
 4280W        W 6430  18.157   4.284  22.454  0.2297 -0.3457  0.0654
 4281W        W 6431  25.568   5.794   6.875  0.0232 -0.0393 -0.1413
 4282W        W 6432   6.988   2.366   1.216  0.0956 -0.2688 -0.2541
 4283W        W 6433  30.833   3.534   1.919 -0.1426 -0.0177  0.2305
 4284W        W 6434  13.275   1.483   6.628  0.0017 -0.3266 -0.1745
 4285W        W 6435  27.400   0.466  23.017  0.4158  0.1856 -0.2345
 4286W        W 6436  12.654   3.362   7.243  0.3342  0.0397 -0.0590
 4287W        W 6437  23.841   3.635   8.190 -0.0772  0.1025 -0.1837
 4288W        W 6438   7.540   4.115  17.538  0.3448  0.1264 -0.0085
 4289W        W 6439  27.785   3.605  17.240 -0.1938 -0.0362  0.0315
 4290W        W 6440  20.783   0.877  25.974  0.3105 -0.0639 -0.1490
 4291W        W 6441  21.628   6.346  18.016 -0.0814 -0.3136  0.0168
 4292W        W 6442   7.805   6.962   7.384  0.3142  0.2665 -0.1992
 4293W        W 6443  10.998   4.289   9.161 -0.2874 -0.0925  0.2399
 4294W        W 6444  17.968   0.830  15.839 -0.1083 -0.0624 -0.2336
 4295W        W 6445  14.135   2.816  23.271  0.1348  0.1290  0.0964
 4296W        W 6446  20.402   1.726  22.211  0.0489 -0.1067  0.2644
 4297W        W 6447  16.603   4.163   5.279  0.3989  0.1245 -0.2346
 4298W        W 6448   4.744   4.452  25.928  0.2087 -0.1524  0.0812
 4299W        W 6449   1.308   2.095   7.772  0.2680  0.2672  0.3346
 4300W        W 6450   6.567   2.944  16.466 -0.1167  0.0109 -0.3243
 4301W        W 6451   9.748   7.623   6.243  0.0319 -0.0194 -0.1026
 4302W        W 6452   2.887   1.776   3.814 -0.0242 -0.0890  0.1382
 4303W        W 6453  11.987   3.001  16.009  0.0795  0.0385 -0.0759
 4304W        W 6454  23.877   2.239   0.482  0.0547 -0.0719 -0.0656
 4305W        W 6455  23.850   0.981  17.832 -0.1009  0.0573  0.0214
 4306W        W 6456  15.393   1.823  22.969  0.0485 -0.1367 -0.3585
 4307W        W 6457  24.479   4.566  17.280 -0.0265  0.0670  0.1632
 4308W        W 6458  16.390   2.924  19.159 -0.2075 -0.0448  0.1463
 4309W        W 6459   2.864   5.259  23.320 -0.1444  0.0455  0.1732
 4310W        W 6460  27.716   5.296  16.851 -0.0222  0.0272  0.0357
 4311W        W 6461  19.300   1.693   0.890  0.1452  0.1675 -0.0933
 4312W        W 6462  10.091   4.826   7.172 -0.0368  0.1415  0.2506
 4313W        W 6463   6.868   4.679  10.912 -0.0922 -0.0506 -0.4820
 4314W        W 6464  25.870   5.816   8.429  0.5462 -0.1295 -0.0572
 4315W        W 6465  28.477   6.589   2.825  0.1952 -0.0393 -0.1344
 4316W        W 6466  19.875   3.320  23.564 -0.0472 -0.0934  0.0152
 4317W        W 6467   3.651   0.935   5.068 -0.2768  0.0786  0.0623
 4318W        W 6468  30.335   3.777   0.878 -0.0661  0.2293 -0.1076
 4319W        W 6469   0.340   6.719  21.663  0.3389 -0.0936  0.1055
 4320W        W 6470  31.050   5.386   5.832 -0.0216 -0.3727 -0.0390
 4321W        W 6471  28.450   0.201  18.728 -0.1022 -0.0438  0.3824
 4322W        W 6472  16.093   7.726  18.569  0.1672 -0.0961  0.3599
 4323W        W 6473   9.715   5.409   3.935 -0.1905  0.0204 -0.1534
 4324W        W 6474  17.764   0.345  19.936  0.1290 -0.1347 -0.0518
 4325W        W 6475  12.345   6.476  24.652 -0.3375 -0.0115 -0.2061
 4326W        W 6476   8.319   5.007   8.603 -0.0148  0.1097  0.0966
 4327W        W 6477  22.455   6.887   5.039 -0.0015  0.0840  0.1112
 4328W        W 6478   1.873   7.041  21.580 -0.1089  0.2913  0.2143
 4329W        W 6479  15.938   5.109   8.631 -0.0098  0.0227 -0.3189
 4330W        W 6480  13.221   6.829  18.312 -0.0785  0.1335  0.0295
 4331W        W 6481   9.032   6.286   0.576 -0.4819 -0.2050 -0.3406
 4332W        W 6482  22.271   0.009  17.062  0.3370  0.3672  0.0618
 4333W        W 6483  12.674   3.072   2.306  0.2516 -0.2545  0.1855
 4334W        W 6484  10.625   3.516  21.281 -0.0079 -0.0902  0.1302
 4335W        W 6485  21.053   0.734   5.411 -0.0269 -0.2490 -0.0132
 4336W        W 6486  21.117   0.537   9.351  0.1600 -0.0184 -0.1984
 4337W        W 6487   5.697   6.096  17.651  0.4502  0.0003 -0.0085
 4338W        W 6488  14.637   5.526   3.659 -0.2112  0.0867 -0.2672
 4339W        W 6489  27.329   2.686   6.203 -0.0110  0.0949  0.2621
 4340W        W 6490   3.514   0.704   5.522  0.1467 -0.1722  0.1181
 4341W        W 6491  24.450   2.178  10.038  0.2614 -0.0342  0.2530
 4342W        W 6492   2.358   7.284  17.560  0.3192  0.2777 -0.1225
 4343W        W 6493  20.353   5.510   5.168  0.2530 -0.1289 -0.3132
 4344W        W 6494  24.682   7.057   2.572  0.1952 -0.0959  0.0403
 4345W        W 6495  15.772   1.978  20.843  0.0224 -0.0968  0.2278
 4346W        W 6496   0.630   3.653  26.271 -0.1411 -0.0047 -0.0571
 4347W        W 6497  13.266   5.358   0.627  0.1011 -0.2213  0.1227
 4348W        W 6498   8.498   0.274   9.963  0.1901 -0.1929 -0.0272
 4349W        W 6499  13.177   7.587   6.825 -0.3541 -0.2943 -0.2132
 4350W        W 6500   3.283   7.094  18.335  0.2236 -0.2603  0.2134
 4351W        W 6501  18.410   0.556  22.020  0.0883 -0.0271  0.1295
 4352W        W 6502   5.060   5.688  25.087 -0.1175 -0.0157 -0.0814
 4353W        W 6503  18.215   4.434   4.244  0.1717 -0.0776  0.3558
 4354W        W 6504   0.989   1.901  23.917 -0.0990  0.1931  0.1615
 4355W        W 6505  28.169   7.335   3.667  0.1341  0.1875  0.1865
 4356W        W 6506  22.657   4.646  10.740 -0.0895  0.0642  0.1356
 4357W        W 6507   6.747   3.035   7.533 -0.2357  0.2917 -0.2046
 4358W        W 6508   9.360   1.790  16.814 -0.0944  0.1798  0.0858
 4359W        W 6509   2.126   2.090  19.337  0.5145  0.0144  0.1462
 4360W        W 6510   1.017   0.639  23.062  0.1662 -0.1581  0.2349
 4361W        W 6511  11.483   5.126  11.303 -0.1835  0.0873  0.1288
 4362W        W 6512  21.940   4.936   7.253 -0.0569  0.1718 -0.0007
 4363W        W 6513   3.258   2.779  25.408 -0.0265  0.1788 -0.2261
 4364W        W 6514  12.953   2.935  25.741 -0.1346 -0.1334  0.1342
 4365W        W 6515   6.009   1.033  10.137  0.1024 -0.2611  0.2248
 4366W        W 6516  15.083   7.400  23.431 -0.1332 -0.1400  0.3510
 4367W        W 6517   1.350   1.473  16.506  0.0859 -0.1056  0.2282
 4368W        W 6518  23.192   7.087  18.395  0.1498  0.0219  0.0671
 4369W        W 6519   1.794   0.893  22.357  0.2901 -0.0740  0.2671
 4370W        W 6520  27.167   2.991   4.558  0.2441 -0.2324  0.0418
 4371W        W 6521  17.135   1.593   7.499  0.3844  0.2639  0.1668
 4372W        W 6522   7.730   3.552   5.928  0.1103 -0.0586  0.0140
 4373W        W 6523  14.285   1.905   4.990 -0.2438  0.3966  0.2089
 4374W        W 6524  11.412   7.604  20.234  0.1023 -0.0070 -0.1268
 4375W        W 6525  19.357   4.805  21.158 -0.0330  0.0361 -0.0419
 4376W        W 6526  17.268   2.362   6.809  0.0631 -0.0508 -0.1413
 4377W        W 6527  11.490   1.868  18.211  0.1527 -0.0774 -0.0808
 4378W        W 6528   3.033   5.118  16.688  0.2907  0.1934 -0.2768
 4379W        W 6529   3.484   5.427  19.068  0.1831  0.0859  0.1439
 4380W        W 6530   0.678   5.546  20.526 -0.1971  0.0235  0.0764
 4381W        W 6531  27.394   4.348  11.536  0.0117 -0.0168  0.1553
 4382W        W 6532  21.356   3.365  15.930  0.0318 -0.0717 -0.0562
 4383W        W 6533   7.868   1.712  21.616 -0.0523 -0.1670 -0.0526
 4384W        W 6534  27.488   2.573   6.646  0.2007 -0.2131 -0.1743
 4385W        W 6535   7.916   2.522  11.102  0.1764 -0.1978  0.2332
 4386W        W 6536  20.724   1.476  17.753  0.0107 -0.0415 -0.1291
 4387W        W 6537   8.425   0.531   4.396 -0.1725  0.1041 -0.2455
 4388W        W 6538  11.730   2.519  15.237  0.1496  0.0432 -0.1861
 4389W        W 6539  27.056   4.779   3.432 -0.2083 -0.1229 -0.0853
 4390W        W 6540  22.461   7.363  19.682 -0.1251 -0.1533  0.0561
 4391W        W 6541  28.704   0.704  23.048  0.0425 -0.1538 -0.0371
 4392W        W 6542   4.516   1.099  24.070 -0.0625 -0.2218  0.0848
 4393W        W 6543  11.190   3.369   1.165  0.0473  0.1883 -0.1054
 4394W        W 6544  18.121   6.958   0.910 -0.0406 -0.0352  0.0502
 4395W        W 6545   4.725   0.189   0.342 -0.2901  0.2944  0.0352
 4396W        W 6546   1.798   1.919  23.674  0.0984  0.0146 -0.3116
 4397W        W 6547   5.257   4.641   6.507  0.0687 -0.0224 -0.0960
 4398W        W 6548   3.718   3.295  23.644 -0.1404 -0.0058  0.0747
 4399W        W 6549   6.040   7.236   8.341  0.2593  0.2195 -0.2012
 4400W        W 6550   4.020   7.117  22.407 -0.0774  0.2190 -0.1168
 4401W        W 6551  23.192   1.500   7.938 -0.0027 -0.2124  0.2326
 4402W        W 6552   8.996   3.775  25.312  0.1642 -0.0521 -0.0331
 4403W        W 6553   2.686   0.431   0.334 -0.0115 -0.2783 -0.1294
 4404W        W 6554  25.279   4.687   2.162  0.1450  0.2280 -0.0526
 4405W        W 6555   9.199   4.487   4.319 -0.0013 -0.0067 -0.2764
 4406W        W 6556   4.606   6.980  16.812 -0.4155  0.0970 -0.1203
 4407W        W 6557   0.643   2.883  21.897 -0.2254  0.3488  0.0424
 4408W        W 6558   2.848   7.020  24.284  0.0345 -0.1455 -0.3002
 4409W        W 6559   1.992   3.855   7.134 -0.2916  0.0890 -0.0031
 4410W        W 6560   6.653   2.365  17.668 -0.2012  0.2555 -0.0715
 4411W        W 6561  11.045   5.494  19.568  0.1829  0.3609  0.0244
 4412W        W 6562  21.599   5.014  11.552 -0.0340 -0.1708 -0.0521
 4413W        W 6563  18.792   3.819   4.404  0.1269  0.0762 -0.2610
 4414W        W 6564   5.347   6.888   8.172  0.1430  0.1215  0.2113
 4415W        W 6565  13.133   4.319  19.216 -0.1746  0.1738  0.1886
 4416W        W 6566  30.231   5.097  19.166 -0.4416 -0.0056  0.1802
 4417W        W 6567  30.128   4.071  21.995 -0.0915 -0.0145  0.1443
 4418W        W 6568   9.362   1.831  10.084  0.0555 -0.1159 -0.1363
 4419W        W 6569  26.785   3.490  16.594 -0.4087 -0.1901 -0.2786
 4420W        W 6570   1.850   2.532  16.985  0.2209  0.0912  0.0142
 4421W        W 6571  12.091   7.116   0.012 -0.2404 -0.1115  0.0132
 4422W        W 6572  15.976   3.962  15.305  0.1249  0.3941 -0.1886
 4423W        W 6573  20.753   3.852   8.904 -0.1248  0.0212  0.1595
 4424W        W 6574  10.951   4.951  10.471  0.0613 -0.1126  0.0364
 4425W        W 6575  16.032   1.587  18.535  0.1927  0.1786  0.0604
 4426W        W 6576   2.868   1.204  24.136 -0.0289  0.2044 -0.1141
 4427W        W 6577   1.213   6.925  25.631  0.3034 -0.2961 -0.1694
 4428W        W 6578   5.010   3.952  17.707 -0.1766 -0.1070 -0.0936
 4429W        W 6579   9.761   0.659   3.859 -0.0989  0.1471 -0.2442
 4430W        W 6580  15.490   6.932  16.757  0.1311  0.0105  0.0386
 4431W        W 6581  30.029   5.077  18.688  0.4223  0.2015  0.1094
 4432W        W 6582  23.228   4.553   5.946  0.4802 -0.0910 -0.2201
 4433W        W 6583  11.828   7.534   0.312 -0.0962  0.0634 -0.2069
 4434W        W 6584   9.081   0.571   1.181 -0.0161  0.0666 -0.0142
 4435W        W 6585   9.467   0.872   0.916  0.0437  0.0310  0.0249
 4436W        W 6586  14.640   1.954  18.889  0.0730  0.0970 -0.0958
 4437W        W 6587  16.660   1.178   3.754  0.3198  0.3545  0.0136
 4438W        W 6588   8.341   4.256   4.819  0.1535 -0.4159  0.0150
 4439W        W 6589   4.998   5.731   8.568  0.0422 -0.2805 -0.0331
 4440W        W 6590  16.035   3.657   5.971  0.1674  0.1642  0.1557
 4441W        W 6591   7.565   2.969   3.727 -0.1236  0.0928 -0.3143
 4442W        W 6592  13.503   3.145   2.187 -0.2407  0.4560 -0.5941
 4443W        W 6593  23.169   7.715  22.369 -0.0224 -0.3501 -0.0029
 4444W        W 6594  20.116   5.080  21.650  0.2270  0.0769  0.0717
 4445W        W 6595   9.594   6.880  17.068  0.2907  0.0924  0.2952
 4446W        W 6596  11.332   3.740   6.612  0.0806  0.1330 -0.3049
 4447W        W 6597  12.840   3.856  19.040 -0.0803 -0.3388 -0.1626
 4448W        W 6598  29.898   0.690   6.752 -0.0710 -0.0362 -0.0217
 4449W        W 6599  10.575   6.537  17.432  0.0921 -0.2819 -0.3652
 4450W        W 6600  11.026   1.796   8.274 -0.1055  0.3881  0.0446
 4451W        W 6601   5.293   2.621   3.363 -0.1526  0.1153  0.2575
 4452W        W 6602  25.286   6.782   2.613 -0.1595  0.2232 -0.0866
 4453W        W 6603  18.986   6.280   3.972 -0.1644  0.0512 -0.0515
 4454W        W 6604  22.644   4.907   7.793 -0.0849  0.2538  0.1192
 4455W        W 6605  17.937   2.130   8.888  0.1058  0.1866  0.1291
 4456W        W 6606   5.806   1.947   7.683 -0.0212  0.0171 -0.1502
 4457W        W 6607  14.354   3.529   9.457 -0.3615  0.1555  0.1795
 4458W        W 6608   7.943   0.251  25.349 -0.0490 -0.0686 -0.3598
 4459W        W 6609  19.296   5.972   3.139 -0.1256 -0.0182 -0.3292
 4460W        W 6610  13.920   0.408   7.837 -0.0045 -0.0836  0.0777
 4461W        W 6611  19.757   1.174  22.168  0.0315  0.0014 -0.1412
 4462W        W 6612  28.313   2.343  25.166 -0.1589 -0.1520 -0.0522
 4463W        W 6613  25.758   6.250   6.882 -0.0019  0.1095  0.2707
 4464W        W 6614   4.145   4.291   2.205  0.0250 -0.1706  0.0701
 4465W        W 6615   9.577   4.064  25.969 -0.0193  0.0198  0.2582
 4466W        W 6616   7.166   3.784   6.560  0.2510 -0.1458 -0.0806
 4467W        W 6617   4.928   5.340  24.193  0.1016  0.3119  0.3392
 4468W        W 6618   8.247   3.371   5.325 -0.1753  0.1788  0.1146
 4469W        W 6619  14.658   7.718  24.844 -0.0034 -0.1758 -0.1954
 4470W        W 6620   8.940   3.697  23.714 -0.2087 -0.2340  0.0564
 4471W        W 6621  10.768   1.837  16.215 -0.1079  0.1709 -0.0337
 4472W        W 6622  27.852   5.486   0.574 -0.0040  0.0579 -0.1180
 4473W        W 6623   8.799   3.203   0.686 -0.1455  0.2237  0.1766
 4474W        W 6624   6.530   6.350  23.612  0.0231  0.3360  0.0503
 4475W        W 6625  11.753   2.546  18.567 -0.0512 -0.2774  0.0171
 4476W        W 6626   4.994   4.711   0.709 -0.0510  0.3279  0.0938
 4477W        W 6627  11.975   4.219  24.595  0.3400  0.1125  0.3368
 4478W        W 6628   6.813   4.938  22.441  0.1758  0.1928  0.0208
 4479W        W 6629  22.446   7.189  20.815  0.0860 -0.5498 -0.1806
 4480W        W 6630  17.422   6.647  17.274  0.0241  0.0765  0.2600
 4481W        W 6631  12.201   1.945  25.009 -0.0918  0.2663 -0.0950
 4482W        W 6632  26.462   4.709  11.196  0.0875 -0.2696  0.1142
 4483W        W 6633  30.516   7.660  19.512  0.1459 -0.3027 -0.1051
 4484W        W 6634  29.435   7.190   1.330  0.3103 -0.0594  0.4024
 4485W        W 6635   5.775   4.347   6.587  0.3989 -0.1555 -0.0744
 4486W        W 6636  27.491   0.333   0.003 -0.1949 -0.0377 -0.0003
 4487W        W 6637  12.103   1.238   2.991  0.0440  0.0982  0.2901
 4488W        W 6638  12.975   4.413   7.244  0.0612 -0.0665  0.1079
 4489W        W 6639  16.436   3.450  17.019 -0.3075 -0.1596 -0.0697
 4490W        W 6640   6.624   6.216  21.058 -0.0664  0.1889 -0.3303
 4491W        W 6641   9.745   3.969  10.382  0.0484  0.0102 -0.1006
 4492W        W 6642  19.131   3.534  19.980 -0.0218 -0.2614 -0.1872
 4493W        W 6643  16.771   6.017   0.491 -0.0811  0.0042  0.3244
 4494W        W 6644   4.191   1.960   0.905  0.1658  0.2067  0.1423
 4495W        W 6645  19.562   0.154  23.384  0.1156 -0.1884  0.0500
 4496W        W 6646  30.059   6.983   8.694 -0.0132 -0.0247  0.0450
 4497W        W 6647  12.742   1.739   5.395  0.1886  0.1683  0.2259
 4498W        W 6648  17.638   1.344  21.527  0.1289  0.2845 -0.0275
 4499W        W 6649  24.404   4.485  24.025 -0.0779 -0.1871 -0.0999
 4500W        W 6650  16.877   1.478   0.073 -0.2122 -0.0242 -0.0782
 4501W        W 6651  20.625   0.261  18.649 -0.0664  0.0193 -0.1023
 4502W        W 6652   3.183   2.734   9.115  0.0729  0.1467 -0.1841
 4503W        W 6653  14.263   6.562  21.535 -0.4608 -0.0943 -0.1105
 4504W        W 6654   3.761   0.082   0.150  0.0390  0.0263  0.0882
 4505W        W 6655  27.634   5.665  25.526 -0.0710  0.0861 -0.1737
 4506W        W 6656  19.046   6.172  26.333  0.0700  0.0294  0.0964
 4507W        W 6657  24.606   5.413   4.810  0.1628 -0.0908  0.0949
 4508W        W 6658  15.049   1.993  25.966  0.0190 -0.1349  0.0007
 4509W        W 6659  15.515   3.069  16.770 -0.1140 -0.1466  0.1205
 4510W        W 6660  25.285   7.320  18.472 -0.3317  0.0214 -0.1297
 4511W        W 6661  27.058   3.975   7.633 -0.3510 -0.1434  0.2600
 4512W        W 6662  23.055   0.577  22.219 -0.0912 -0.2778  0.1025
 4513W        W 6663   8.243   3.410  25.981  0.2108  0.0786 -0.3229
 4514W        W 6664  14.650   2.894   2.415 -0.0573 -0.2822 -0.3409
 4515W        W 6665  22.014   5.177   1.482  0.1377 -0.1790  0.0564
 4516W        W 6666  27.354   7.239   8.697  0.1265  0.1580  0.2363
 4517W        W 6667   8.356   4.837  23.128 -0.1482 -0.0435 -0.3652
 4518W        W 6668  21.956   0.031   9.521 -0.1063  0.1846 -0.2186
 4519W        W 6669  24.096   3.083   3.095  0.2982  0.1973 -0.1324
 4520W        W 6670  16.770   6.670  26.289  0.2406  0.1481 -0.2586
 4521W        W 6671   2.496   1.023  11.012 -0.2869 -0.0807  0.1205
 4522W        W 6672  13.333   3.239  22.803  0.0780  0.0433 -0.2406
 4523W        W 6673  23.379   5.392   6.215 -0.0221  0.1433 -0.1905
 4524W        W 6674  22.647   0.751   6.729  0.2379  0.0371 -0.2844
 4525W        W 6675  26.891   7.597  23.065 -0.2714 -0.1299 -0.1625
 4526W        W 6676  13.770   4.480  23.129 -0.0056 -0.5706 -0.1395
 4527W        W 6677  22.891   1.746  20.955 -0.1644 -0.4035 -0.0292
 4528W        W 6678  18.292   6.446  22.896 -0.1697 -0.0152 -0.0883
 4529W        W 6679   0.076   4.440   0.236  0.2773 -0.2685 -0.1006
 4530W        W 6680  20.875   3.935   4.282 -0.1772 -0.0019  0.2498
 4531W        W 6681  28.190   4.732   7.156 -0.1090 -0.0353 -0.2175
 4532W        W 6682   6.928   5.660  26.242 -0.0761 -0.4690  0.0108
 4533W        W 6683  16.607   3.902  26.019  0.1178 -0.0141  0.0181
 4534W        W 6684   6.580   4.887  26.331 -0.0171  0.3412  0.0082
 4535W        W 6685  10.216   4.146   7.512  0.0330  0.1001 -0.0212
 4536W        W 6686   0.677   6.079   3.378 -0.2230  0.2825  0.0580
 4537W        W 6687  29.826   2.213  11.717  0.0926 -0.0436 -0.1150
 4538W        W 6688  25.597   3.523   8.320  0.0172  0.0637  0.1056
 4539W        W 6689  22.664   7.503   3.079 -0.0030  0.3224  0.1116
 4540W        W 6690  20.556   3.442  18.619  0.3002 -0.0392 -0.0790
 4541W        W 6691   2.535   3.641   2.591 -0.3251  0.0429 -0.0000
 4542W        W 6692  16.510   7.453  22.514 -0.0762 -0.3940  0.1401
 4543W        W 6693   2.263   2.492  25.102  0.2575 -0.1512  0.0584
 4544W        W 6694  30.841   1.565   7.829  0.1018 -0.2086 -0.0095
 4545W        W 6695  21.956   6.879   9.352 -0.0763 -0.1917 -0.0591
 4546W        W 6696  10.845   6.138  17.536 -0.2015  0.0951 -0.3603
 4547W        W 6697  23.434   3.241  17.997 -0.0185  0.1409 -0.0885
 4548W        W 6698  12.146   2.704  25.903 -0.0927  0.0915  0.0587
 4549W        W 6699   9.355   5.570  25.546 -0.1685  0.0755  0.2298
 4550W        W 6700  22.188   6.342  16.657  0.0981 -0.1007  0.1251
 4551W        W 6701   4.386   4.049  22.474 -0.0438 -0.0844 -0.0329
 4552W        W 6702  17.889   6.638   8.054  0.0068 -0.1587 -0.4315
 4553W        W 6703  23.177   1.099   7.395  0.2103  0.0867 -0.0283
 4554W        W 6704  15.667   0.564  15.452  0.1182 -0.0452 -0.1379
 4555W        W 6705   1.127   2.673   0.937  0.0626 -0.0061 -0.3157
 4556W        W 6706  20.802   2.910   4.330 -0.1687 -0.1798 -0.1972
 4557W        W 6707  14.058   0.273  18.836  0.0809 -0.0837  0.2299
 4558W        W 6708  26.264   4.712   5.257  0.0794  0.0834  0.0582
 4559W        W 6709   8.205   4.054  24.852  0.0396 -0.0162  0.1689
 4560W        W 6710   4.419   4.778   1.581 -0.3017  0.0214 -0.0730
 4561W        W 6711  27.276   4.778   6.643 -0.1681 -0.0754  0.0973
 4562W        W 6712  30.454   5.384  16.106 -0.1459  0.1826  0.0511
 4563W        W 6713   0.243   6.900  18.499 -0.0999 -0.3446 -0.3130
 4564W        W 6714   4.143   6.407  23.219  0.0033  0.0035 -0.0206
 4565W        W 6715  11.189   2.581   1.533 -0.2453 -0.2622  0.0868
 4566W        W 6716  14.545   1.641  23.161 -0.0317  0.0112 -0.0655
 4567W        W 6717   1.505   2.625  22.460 -0.3059 -0.0829 -0.2448
 4568W        W 6718   3.160   1.689  17.349  0.0571  0.0091  0.2647
 4569W        W 6719  21.585   0.885  21.845 -0.1165  0.2300 -0.1533
 4570W        W 6720  16.130   0.447  14.623  0.0094  0.2505  0.2575
 4571W        W 6721  28.776   1.772  18.563 -0.1390 -0.2206  0.1090
 4572W        W 6722  13.856   5.845   2.140 -0.0838  0.2105  0.3068
 4573W        W 6723  10.424   6.759   7.881 -0.2910  0.0166 -0.2440
 4574W        W 6724  20.056   4.013   2.433  0.1909  0.4433  0.1742
 4575W        W 6725   7.146   0.408   7.337  0.0629 -0.1136  0.0069
 4576W        W 6726   3.590   6.948   6.066 -0.1488  0.2955 -0.0455
 4577W        W 6727  14.916   3.728  23.783 -0.0132 -0.1233  0.0855
 4578W        W 6728  17.528   6.154  10.794  0.3936  0.2997  0.2170
 4579W        W 6729   4.717   0.049  23.378 -0.2371  0.1115 -0.1412
 4580W        W 6730  24.880   7.260  10.095  0.0039 -0.3081  0.0033
 4581W        W 6731  10.086   5.466  17.909  0.0463 -0.0666  0.2501
 4582W        W 6732  11.521   0.599   2.115 -0.1599 -0.1940 -0.0655
 4583W        W 6733   6.491   7.289   0.430 -0.0159  0.2070  0.1745
 4584W        W 6734  21.505   1.857   5.084 -0.0566  0.1398  0.0104
 4585W        W 6735  24.657   6.365  16.063  0.1773 -0.0482  0.1272
 4586W        W 6736  21.463   7.140  10.705 -0.2322 -0.2549  0.0044
 4587W        W 6737  19.606   3.994   2.222 -0.2030  0.0349 -0.0712
 4588W        W 6738  28.274   3.369  19.015 -0.3136  0.0865  0.2178
 4589W        W 6739  12.325   4.757   0.240 -0.1557  0.1127 -0.2249
 4590W        W 6740  19.729   1.702   2.469  0.2738 -0.3165  0.1120
 4591W        W 6741  18.575   3.457   1.278  0.1259 -0.4409  0.0035
 4592W        W 6742  23.935   4.952   7.553  0.2519 -0.2672  0.0734
 4593W        W 6743   4.300   1.350   7.049 -0.1472  0.0311 -0.1426
 4594W        W 6744  20.880   7.573   1.501 -0.0931  0.0217 -0.0425
 4595W        W 6745  27.724   7.371   2.801 -0.0200 -0.1558 -0.0196
 4596W        W 6746  21.191   0.420  23.714  0.1539  0.0415 -0.0669
 4597W        W 6747  24.484   0.191  22.681 -0.0141 -0.0066  0.0506
 4598W        W 6748   7.795   5.323  21.252 -0.0854  0.0385  0.0732
 4599W        W 6749  18.337   6.655  16.195 -0.0449  0.6160 -0.0099
 4600W        W 6750  19.804   1.573   8.163  0.0381 -0.2492 -0.2560
 4601W        W 6751  10.316   7.552  20.382 -0.1329 -0.0938 -0.1367
 4602W        W 6752  10.255   7.037  15.955 -0.1697  0.1745 -0.1905
 4603W        W 6753  21.313   4.226  17.152 -0.1196 -0.1875  0.0869
 4604W        W 6754  30.161   2.338  10.743  0.0234  0.1782 -0.1434
 4605W        W 6755  26.112   0.201   2.503  0.1887 -0.1886  0.3324
 4606W        W 6756  22.748   5.843   2.585  0.1000 -0.2051 -0.1740
 4607W        W 6757   7.352   5.329   5.663  0.2641  0.1888  0.4120
 4608W        W 6758  15.362   1.168   9.780 -0.1585 -0.4003  0.3199
 4609W        W 6759  16.628   3.192  17.851 -0.0818  0.0740 -0.1285
 4610W        W 6760   7.497   1.610  24.790 -0.0201  0.3926  0.1093
 4611W        W 6761  18.875   2.018   3.042 -0.4047 -0.1280 -0.2480
 4612W        W 6762  30.177   2.948   7.981 -0.2594 -0.0756  0.1199
 4613W        W 6763   3.240   2.885  24.231 -0.0377 -0.2391 -0.2448
 4614W        W 6764  18.454   0.053   1.893  0.2204  0.1392 -0.2256
 4615W        W 6765   8.899   1.413   7.608 -0.3852  0.2704  0.0471
 4616W        W 6766  25.701   3.971   3.281  0.2765 -0.0513  0.2842
 4617W        W 6767  16.763   6.784   3.678 -0.0235 -0.2176  0.4162
 4618W        W 6768  19.427   5.237  23.298  0.1748 -0.2119  0.1312
 4619W        W 6769  20.591   6.814   1.803  0.1744 -0.1916  0.3381
 4620W        W 6770  29.591   7.491  18.538  0.0262 -0.1218 -0.0746
 4621W        W 6771   7.349   6.938  15.947  0.1567  0.2363  0.1392
 4622W        W 6772  13.233   4.777  19.971 -0.0317  0.2552 -0.0386
 4623W        W 6773  17.743   4.221   3.420 -0.1463  0.1673 -0.1017
 4624W        W 6774  23.432   2.438   0.620  0.2046 -0.0455  0.0187
 4625W        W 6775   8.559   5.511  23.732  0.2535 -0.1077 -0.1906
 4626W        W 6776  21.038   5.787   2.457 -0.3570  0.1012 -0.0444
 4627W        W 6777   7.275   6.028  25.496  0.1930  0.2340  0.1900
 4628W        W 6778  20.172   0.394  22.137  0.1815  0.3720  0.1383
 4629W        W 6779  25.418   4.795   7.884 -0.1113  0.0326  0.0405
 4630W        W 6780   1.712   6.584   8.533 -0.1169  0.1782 -0.2544
 4631W        W 6781   3.935   3.976   1.933 -0.0620 -0.0050 -0.2315
 4632W        W 6782   0.123   5.273  21.508 -0.1371 -0.2805 -0.1066
 4633W        W 6783  22.257   3.281  20.304 -0.0072  0.1675  0.2736
 4634W        W 6784  28.235   2.644  10.305  0.2566  0.0500 -0.3842
 4635W        W 6785  29.580   2.929  25.498  0.0059  0.0882 -0.0725
 4636W        W 6786   6.930   6.903  19.224  0.1499  0.0798 -0.0526
 4637W        W 6787  11.417   7.709  18.492 -0.2830  0.1720  0.1245
 4638W        W 6788  11.596   3.429  19.593  0.3029 -0.0676  0.0187
 4639W        W 6789  12.977   1.875   8.209 -0.6299 -0.0646 -0.0057
 4640W        W 6790  25.849   7.023   4.644  0.0733 -0.0130 -0.2577
 4641W        W 6791  25.266   2.775  24.109 -0.0020 -0.3221 -0.2463
 4642W        W 6792  21.826   4.473  16.639  0.3489  0.0349 -0.0676
 4643W        W 6793  18.530   2.020   6.964 -0.0286  0.1306 -0.2574
 4644W        W 6794  25.991   2.159  20.989 -0.0781 -0.0944 -0.0639
 4645W        W 6795  16.740   0.828   5.293  0.1637 -0.0809  0.0359
 4646W        W 6796   4.496   0.478  16.839  0.0427 -0.0521  0.2772
 4647W        W 6797  19.833   6.878   4.125  0.0702 -0.0622 -0.2053
 4648W        W 6798  11.393   4.855  25.320  0.0512 -0.0391 -0.1145
 4649W        W 6799  31.130   3.895  10.026 -0.0882  0.2309 -0.3574
 4650W        W 6800  11.365   5.628  23.401 -0.0488  0.1611  0.1134
 4651W        W 6801  17.307   3.792   3.422 -0.0835 -0.1633 -0.1315
 4652W        W 6802   3.530   3.524  25.974 -0.1113 -0.0552  0.0110
 4653W        W 6803   3.513   2.218  25.379 -0.0104  0.2221 -0.4449
 4654W        W 6804  10.006   1.234  24.210  0.0956  0.2236 -0.1835
 4655W        W 6805   6.880   0.883   5.493 -0.0594 -0.0587 -0.1302
 4656W        W 6806  11.401   7.026   7.252 -0.0513  0.0829 -0.1134
 4657W        W 6807  23.556   5.324  21.179 -0.1285 -0.3065  0.3246
 4658W        W 6808  20.151   5.300   2.673 -0.1212  0.0263 -0.2050
 4659W        W 6809  21.142   1.694  22.874  0.0428 -0.1066 -0.1640
 4660W        W 6810  15.391   4.559  21.293 -0.0399  0.0514 -0.0167
 4661W        W 6811  10.974   0.711  18.889  0.1330 -0.1081  0.0096
 4662W        W 6812  13.289   5.534  10.267  0.0084  0.1262  0.1643
 4663W        W 6813  15.446   5.854   9.966 -0.0002  0.0186 -0.3181
 4664W        W 6814  24.439   3.467  16.150  0.2869 -0.3668  0.1528
 4665W        W 6815  18.400   0.956  23.468  0.4436 -0.0951  0.3188
 4666W        W 6816  23.373   4.940  15.792  0.0513  0.0855  0.0327
 4667W        W 6817   1.166   3.375   7.513 -0.0976  0.2533  0.0785
 4668W        W 6818  22.409   6.857   6.030  0.1068 -0.0975 -0.1143
 4669W        W 6819  27.731   6.918   3.706 -0.2256  0.1912 -0.0984
 4670W        W 6820  19.687   6.791   0.118  0.0034  0.1603 -0.1895
 4671W        W 6821  30.218   4.596  17.947 -0.4085 -0.0191  0.6664
 4672W        W 6822  21.931   6.481  19.648 -0.1342  0.0167  0.2049
 4673W        W 6823   5.124   7.638  16.477  0.2660  0.3473  0.0732
 4674W        W 6824  10.729   4.746   1.948  0.0393 -0.1150 -0.1184
 4675W        W 6825  11.144   4.998  25.703  0.0080 -0.1667 -0.1319
 4676W        W 6826  27.591   1.465   9.023  0.1005  0.2177  0.0558
 4677W        W 6827  17.560   2.245  26.385 -0.0060  0.0203 -0.3083
 4678W        W 6828   9.597   5.276  19.839 -0.1563  0.1862  0.2524
 4679W        W 6829  28.278   6.590  20.676  0.1949 -0.0010 -0.1602
 4680W        W 6830   1.287   2.314  16.285 -0.0076 -0.1813  0.1422
 4681W        W 6831  28.264   0.912  17.228 -0.1312 -0.1262  0.2519
 4682W        W 6832  25.987   5.272  10.809  0.0415  0.3681 -0.2283
 4683W        W 6833   5.799   0.189   4.417  0.0293  0.3239 -0.0444
 4684W        W 6834  25.117   7.235   2.691 -0.1555 -0.0869 -0.0589
 4685W        W 6835  28.121   7.160   9.827 -0.0131  0.3080 -0.0935
 4686W        W 6836   4.579   6.794  25.700 -0.1039  0.1585  0.1034
 4687W        W 6837  20.539   1.942   4.194 -0.1527  0.2055  0.1493
 4688W        W 6838   7.328   0.596  20.542 -0.0920  0.1235 -0.1204
 4689W        W 6839  18.224   1.162  18.213  0.0065 -0.1608 -0.0981
 4690W        W 6840   0.261   4.631   9.718  0.0721  0.1863  0.2481
 4691W        W 6841   2.783   3.299   4.024 -0.2363 -0.0851  0.0828
 4692W        W 6842  17.264   4.131   8.011 -0.1692  0.0795 -0.1691
 4693W        W 6843  11.028   4.059  20.298 -0.1653  0.0921  0.1680
 4694W        W 6844  18.011   2.674  21.866  0.0063  0.2192  0.0333
 4695W        W 6845  29.993   1.907  18.036  0.1729  0.0898  0.2064
 4696W        W 6846  11.439   5.444   9.026 -0.1142  0.2064 -0.3204
 4697W        W 6847   1.000   6.987   0.274  0.0223 -0.0057  0.0671
 4698W        W 6848   3.604   1.505  17.627  0.0569 -0.0726  0.4178
 4699W        W 6849  21.604   5.919  18.968  0.1510  0.1230 -0.1022
 4700W        W 6850   9.899   1.753  16.681 -0.1497 -0.1868 -0.2074
 4701W        W 6851   0.856   0.040  15.861  0.2679 -0.2504  0.1418
 4702W        W 6852  18.311   2.131  15.848 -0.2777  0.0996  0.1094
 4703W        W 6853   6.090   2.087   1.377 -0.0898 -0.2156  0.0071
 4704W        W 6854   6.703   1.247  10.751 -0.2362  0.3261 -0.0106
 4705W        W 6855  11.567   4.192  17.247  0.2109  0.1901  0.1697
 4706W        W 6856  11.891   1.584  25.946  0.0763  0.0266 -0.1088
 4707W        W 6857  10.448   4.605  16.894  0.1634 -0.0132  0.0370
 4708W        W 6858  10.770   5.937  23.926 -0.2544 -0.4423 -0.0903
 4709W        W 6859   5.044   7.600   3.969  0.2017  0.3241  0.1598
 4710W        W 6860  18.383   1.054   0.376 -0.1785  0.1457  0.3852
 4711W        W 6861  19.255   3.048  20.060  0.1652 -0.1020 -0.1093
 4712W        W 6862  20.909   1.292  21.431 -0.0560 -0.0248 -0.1023
 4713W        W 6863   0.393   1.297   4.952  0.0449 -0.0922 -0.0094
 4714W        W 6864  27.285   3.189   6.134  0.0528  0.2333  0.3036
 4715W        W 6865  25.384   3.524   1.848  0.2057 -0.0097 -0.0022
 4716W        W 6866  11.881   5.143  21.775  0.1945  0.0423  0.0310
 4717W        W 6867  30.643   4.240  21.026  0.0584  0.2383  0.2312
 4718W        W 6868  26.056   0.665   5.968 -0.1003  0.1722  0.1963
 4719W        W 6869   6.226   5.572  23.370 -0.2018  0.0570  0.1930
 4720W        W 6870  30.912   2.643   9.677  0.0474 -0.1194 -0.1335
 4721W        W 6871  28.702   1.204  17.105 -0.0886  0.2450  0.1071
 4722W        W 6872  18.708   2.534  19.268 -0.0562  0.0184 -0.0092
 4723W        W 6873  25.129   3.936   9.470 -0.1330  0.2986  0.0652
 4724W        W 6874  23.405   7.178  21.499 -0.0101 -0.0210 -0.0270
 4725W        W 6875   5.685   6.607  21.446  0.0036  0.1136  0.1124
 4726W        W 6876  12.010   1.072   9.738 -0.0878  0.2971  0.0349
 4727W        W 6877  21.957   0.333  11.581  0.0218 -0.2022  0.0658
 4728W        W 6878  10.740   5.123  16.637 -0.1362 -0.2070 -0.2796
 4729W        W 6879  21.262   4.078  22.514  0.2264  0.0159 -0.1388
 4730W        W 6880  23.361   2.977   7.907 -0.0418  0.0087  0.0145
 4731W        W 6881   6.259   3.132  23.253 -0.2482  0.0602  0.3346
 4732W        W 6882  12.483   1.337  10.506  0.1938  0.0345 -0.1894
 4733W        W 6883  11.558   7.521   1.933  0.2861 -0.0233  0.0263
 4734W        W 6884  23.623   2.979   5.610 -0.0941 -0.0432 -0.2387
 4735W        W 6885  23.431   6.111  18.886  0.0846  0.2639 -0.2281
 4736W        W 6886  30.057   3.823   6.802 -0.1289  0.2817  0.0419
 4737W        W 6887   4.143   7.066  21.332  0.3999 -0.1002  0.1836
 4738W        W 6888  18.574   7.576   3.004  0.2919  0.0598  0.2758
 4739W        W 6889  12.610   5.511  23.882 -0.0267 -0.2717  0.2512
 4740W        W 6890  18.425   2.024  25.674  0.0356 -0.2338  0.0231
 4741W        W 6891   2.222   2.087   3.874  0.2073 -0.0936  0.0725
 4742W        W 6892   9.408   0.231  24.712 -0.0455 -0.0294 -0.1572
 4743W        W 6893   1.554   5.050  16.483  0.0044  0.1425 -0.0704
 4744W        W 6894  26.556   4.168   5.246 -0.0321  0.0162 -0.1626
 4745W        W 6895  17.228   5.810  20.966  0.1189 -0.0035  0.2637
 4746W        W 6896   0.834   0.769  18.101  0.1655  0.2007 -0.0329
 4747W        W 6897  30.225   1.158  24.593  0.2869  0.0503 -0.0651
 4748W        W 6898  26.830   4.841   8.463  0.1851  0.0750 -0.0805
 4749W        W 6899   9.918   2.952  21.967 -0.2572 -0.2421 -0.0227
 4750W        W 6900  11.006   1.199  18.649 -0.0094  0.1259  0.0589
 4751W        W 6901   7.490   2.785  16.970  0.1393  0.0942  0.2835
 4752W        W 6902   3.459   1.012  18.817 -0.0929 -0.0022  0.1956
 4753W        W 6903  28.230   2.824  20.003 -0.1168 -0.1342  0.0311
 4754W        W 6904  12.187   3.723  21.000  0.1926 -0.1906 -0.0180
 4755W        W 6905  20.603   3.915   7.651  0.3007 -0.0329  0.1875
 4756W        W 6906  30.044   3.076  25.478 -0.0678 -0.0333  0.0057
 4757W        W 6907  29.720   3.666  26.177 -0.1503  0.1228  0.1670
 4758W        W 6908   8.689   0.014  17.746  0.0055 -0.1861  0.1445
 4759W        W 6909  17.982   1.033   6.848  0.0071  0.3552  0.0222
 4760W        W 6910  19.975   6.678   3.115 -0.0018  0.1235  0.1305
 4761W        W 6911   1.440   2.114   3.414  0.1878  0.0181  0.4187
 4762W        W 6912   7.691   4.512  26.013  0.0317  0.2835  0.0514
 4763W        W 6913   1.086   1.332  23.809  0.0138 -0.0652  0.1490
 4764W        W 6914  14.132   4.691   7.807  0.3593  0.1980 -0.0777
 4765W        W 6915  13.579   1.868   7.562  0.2877  0.1565  0.0536
 4766W        W 6916  16.767   4.405  18.677  0.1993 -0.3360  0.1954
 4767W        W 6917  27.092   4.020  20.743 -0.0461  0.0482 -0.1483
 4768W        W 6918  18.982   6.180   7.818 -0.0392  0.0923  0.2254
 4769W        W 6919  10.097   2.745  15.963 -0.3889 -0.0897  0.0275
 4770W        W 6920   8.350   3.500   3.784 -0.2542  0.0034  0.0721
 4771W        W 6921  25.953   2.542  23.045 -0.0866  0.0082 -0.0988
 4772W        W 6922   3.400   5.425  17.967 -0.0240 -0.0600 -0.0402
 4773W        W 6923  24.064   1.448  21.880  0.0117 -0.1862 -0.1311
 4774W        W 6924  13.860   0.651  19.242 -0.2098  0.3299  0.1676
 4775W        W 6925  18.910   6.006  19.076  0.1270  0.3315  0.0446
 4776W        W 6926  15.282   7.651   4.787 -0.0886  0.2421 -0.2250
 4777W        W 6927  20.290   2.015  15.183  0.0213 -0.2155 -0.1799
 4778W        W 6928  31.203   4.092  21.111  0.1263  0.0630 -0.0264
 4779W        W 6929   2.141   3.872  18.289  0.1191  0.0060  0.1681
 4780W        W 6930   3.289   1.888  16.691  0.1089  0.1029 -0.0506
 4781W        W 6931   6.570   2.234   0.870  0.0079 -0.1507  0.0032
 4782W        W 6932  26.734   5.933   1.072  0.0038 -0.0331 -0.1368
 4783W        W 6933   6.185   1.580  17.344 -0.0593 -0.0927 -0.0604
 4784W        W 6934  23.461   0.528   6.162  0.0858 -0.1861  0.2690
 4785W        W 6935  29.258   6.231   1.444 -0.1005  0.0366 -0.3628
 4786W        W 6936   5.614   1.833   8.240 -0.1074  0.1845 -0.1726
 4787W        W 6937  17.046   2.336  16.704  0.0391  0.2644 -0.0972
 4788W        W 6938   0.257   0.855  20.178  0.0582  0.0306 -0.1302
 4789W        W 6939   6.569   6.731   0.447 -0.1980  0.1158  0.2566
 4790W        W 6940  11.673   1.738  23.291  0.4178 -0.1626  0.2526
 4791W        W 6941   5.274   4.638  17.975 -0.0574 -0.1785  0.2063
 4792W        W 6942   0.472   0.832  20.688 -0.0783 -0.2341 -0.1998
 4793W        W 6943  25.150   5.164   8.038  0.1293 -0.3623 -0.0490
 4794W        W 6944  20.806   2.492  19.914  0.1487 -0.0685 -0.2144
 4795W        W 6945  22.291   0.979   1.337 -0.1322 -0.3966  0.2090
 4796W        W 6946  28.273   0.106  17.109 -0.2068  0.1093 -0.1282
 4797W        W 6947   6.776   0.087  22.525  0.2580  0.3540 -0.0612
 4798W        W 6948   8.098   0.515   3.088 -0.1409 -0.2666 -0.1031
 4799W        W 6949  26.845   5.818  24.689 -0.3197  0.1204 -0.0930
 4800W        W 6950  26.644   5.207  10.143  0.0577 -0.0033 -0.0204
 4801W        W 6951   1.422   2.179   6.598 -0.4324  0.0546 -0.0697
 4802W        W 6952   3.242   5.291  22.121 -0.1950  0.0699  0.0164
 4803W        W 6953   9.998   3.839  21.402  0.0868  0.1569  0.1077
 4804W        W 6954  12.148   2.386  16.197 -0.0239 -0.2472  0.0938
 4805W        W 6955   3.231   6.854   6.350 -0.1110  0.1689  0.0212
 4806W        W 6956  27.789   5.296  18.776  0.0588 -0.2608  0.3955
 4807W        W 6957  24.017   4.422   9.337 -0.0899 -0.2728  0.0025
 4808W        W 6958   8.612   7.490  19.793 -0.1264 -0.0664 -0.1042
 4809W        W 6959   3.638   7.274   8.546 -0.0358  0.2042 -0.1352
 4810W        W 6960  21.394   6.881  24.852 -0.2685 -0.0889  0.2708
 4811W        W 6961  10.887   1.331   3.243 -0.0056  0.0705  0.3384
 4812W        W 6962  28.040   2.734  23.535  0.1156  0.0298 -0.0206
 4813W        W 6963   6.052   5.081   7.086 -0.2602  0.1770  0.0206
 4814W        W 6964  29.111   5.468  18.318 -0.0668 -0.3319 -0.0151
 4815W        W 6965  28.876   7.670  19.454 -0.0097  0.2744  0.2400
 4816W        W 6966  17.566   2.276  20.753 -0.0501  0.2617 -0.3125
 4817W        W 6967   9.271   5.475  23.285  0.1302 -0.2596  0.0709
 4818W        W 6968  25.280   7.241  10.849 -0.1760 -0.1542  0.0706
 4819W        W 6969  25.878   4.400   6.551 -0.1692  0.0147 -0.4270
 4820W        W 6970  19.477   4.715  22.320 -0.0284 -0.0826  0.0895
 4821W        W 6971  24.752   4.163  20.672 -0.3350  0.1086  0.2128
 4822W        W 6972  30.247   5.960  15.028 -0.0557 -0.0780  0.0819
 4823W        W 6973  29.947   0.456   0.461  0.3517 -0.1860  0.2819
 4824W        W 6974  19.618   7.581  16.379  0.2341  0.0044 -0.0515
 4825W        W 6975   8.478   2.095   0.616  0.1060 -0.3163  0.2864
 4826W        W 6976   6.175   3.512  20.531 -0.1657  0.0556 -0.2946
 4827W        W 6977  19.701   3.036   8.072  0.0200 -0.0958 -0.0005
 4828W        W 6978  11.687   3.088  10.877  0.3535  0.0162 -0.1709
 4829W        W 6979  24.592   4.850  24.382  0.1376 -0.2941  0.2543
 4830W        W 6980   5.218   3.285  24.631  0.0840  0.0838  0.0670
 4831W        W 6981   5.288   5.571   2.719  0.3447 -0.1270 -0.1134
 4832W        W 6982  12.981   2.441  23.376 -0.3344  0.1825 -0.1445
 4833W        W 6983   3.489   2.654   0.708 -0.2501  0.1926 -0.1322
 4834W        W 6984   2.092   7.426   4.601 -0.1851  0.1704 -0.1528
 4835W        W 6985  30.940   5.991  20.036 -0.0677 -0.0781  0.2722
 4836W        W 6986   4.218   2.268  10.344 -0.0019  0.0377 -0.1661
 4837W        W 6987  15.792   0.917   4.203  0.1509  0.0144  0.0760
 4838W        W 6988  12.242   0.004  19.362 -0.1750 -0.0977 -0.1021
 4839W        W 6989   3.708   3.572  22.489  0.5103  0.0591  0.0044
 4840W        W 6990   3.746   3.798   5.570 -0.1404  0.1631  0.1342
 4841W        W 6991  22.916   7.430  23.739 -0.2565 -0.3157  0.0855
 4842W        W 6992   9.316   2.844   2.590  0.2815 -0.0777 -0.0281
 4843W        W 6993  19.843   1.545  17.763  0.1040  0.1017  0.1634
 4844W        W 6994  11.997   0.155  26.186  0.2970 -0.2210  0.0173
 4845W        W 6995  16.291   7.025  22.487 -0.5599  0.3163 -0.0554
 4846W        W 6996   5.049   6.583  22.882  0.0639 -0.0474  0.0740
 4847W        W 6997  28.371   1.065  11.066  0.1376 -0.0873  0.3700
 4848W        W 6998   6.423   5.052  21.376  0.1945 -0.2031  0.2210
 4849W        W 6999  28.852   3.850   1.629  0.1107  0.2294  0.2897
 4850W        W 7000  29.154   5.279  26.418  0.0282  0.1779  0.0199
 4851W        W 7001  25.176   7.115   3.927  0.1592  0.1921  0.3122
 4852W        W 7002   0.495   6.508   4.983 -0.2377 -0.3667  0.1791
 4853W        W 7003   7.761   1.380  17.290 -0.1830 -0.1483  0.0361
 4854W        W 7004  19.901   3.594  23.136  0.0510  0.1729 -0.1445
 4855W        W 7005  29.090   5.406  10.617 -0.2540 -0.0806 -0.0545
 4856W        W 7006   0.666   0.032  21.194 -0.1387  0.1730 -0.2507
 4857W        W 7007  19.951   1.286  24.951 -0.2138 -0.0531  0.2163
 4858W        W 7008  30.081   1.691   9.186 -0.0442  0.0257  0.0489
 4859W        W 7009  15.132   2.046  23.973  0.3003 -0.0049 -0.2571
 4860W        W 7010  14.723   2.039  20.666  0.0005  0.2071 -0.1525
 4861W        W 7011  12.291   4.416   9.443  0.0251  0.5223  0.1116
 4862W        W 7012  10.381   2.015  21.681 -0.1304 -0.0856  0.3610
 4863W        W 7013  27.470   4.222  19.798 -0.1129 -0.3990 -0.0237
 4864W        W 7014   1.137   1.933  17.926  0.0367  0.1916 -0.0754
 4865W        W 7015  23.284   2.861  18.306 -0.1286 -0.0066 -0.0433
 4866W        W 7016  11.187   5.260   3.772  0.1459  0.0302 -0.1126
 4867W        W 7017   8.085   6.888  22.491 -0.2625 -0.3151 -0.2387
 4868W        W 7018   8.581   2.863   2.058  0.0206  0.1010  0.0365
 4869W        W 7019  13.120   4.873   2.825  0.0146 -0.1976  0.1734
 4870W        W 7020  16.346   1.940   1.409  0.0545  0.2687  0.0027
 4871W        W 7021  17.827   7.201  21.744 -0.3294 -0.0989 -0.0884
 4872W        W 7022  18.245   0.415  24.082  0.0045 -0.2394 -0.0582
 4873W        W 7023  18.222   4.053   8.058 -0.1644  0.0244  0.2367
 4874W        W 7024   0.552   2.046   6.457 -0.0569 -0.0743  0.1632
 4875W        W 7025  20.150   6.770   2.234  0.2512  0.3909  0.1493
 4876W        W 7026  10.655   5.661  10.668 -0.1237 -0.2821  0.0145
 4877W        W 7027  17.919   2.488  20.336  0.2974 -0.0312  0.1266
 4878W        W 7028  29.602   0.854  23.045 -0.2042 -0.0282 -0.0478
 4879W        W 7029  13.405   4.894  22.762  0.2469 -0.2950  0.0263
 4880W        W 7030   0.015   4.054   9.121  0.0850 -0.0123  0.0597
 4881W        W 7031  13.835   6.137   3.757 -0.0444 -0.3950 -0.0228
 4882W        W 7032  30.539   3.713  18.447  0.2751 -0.0044  0.2768
 4883W        W 7033  28.968   7.057   9.677  0.0180 -0.2224 -0.3658
 4884W        W 7034   9.699   6.210   2.866 -0.0080  0.3409  0.1784
 4885W        W 7035  30.656   0.474   3.737  0.0470  0.1316  0.0705
 4886W        W 7036  24.606   4.758   9.939  0.1097  0.1079  0.1709
 4887W        W 7037   4.142   0.247   0.475  0.0919  0.1904  0.2108
 4888W        W 7038  12.065   3.932  25.083  0.0208  0.3768 -0.4546
 4889W        W 7039  13.259   7.796   9.710 -0.0364  0.1028 -0.0876
 4890W        W 7040  27.303   6.200   9.428 -0.0184  0.1139  0.3558
 4891W        W 7041   5.559   0.497  20.460  0.1249  0.1059  0.1928
 4892W        W 7042  27.965   6.628   3.324 -0.0920  0.3768  0.3668
 4893W        W 7043   2.448   2.200   6.772 -0.0639 -0.0170 -0.0234
 4894W        W 7044  19.209   1.390  15.604  0.2002 -0.1907  0.0508
 4895W        W 7045   8.586   3.474   4.376  0.2432 -0.0320  0.1713
 4896W        W 7046  17.540   4.116   4.974 -0.0171 -0.2136  0.0542
 4897W        W 7047   3.237   4.262  16.203 -0.1682  0.0614 -0.0535
 4898W        W 7048  14.176   2.733  20.732  0.1518  0.0178 -0.1075
 4899W        W 7049  18.953   7.206   4.007 -0.1511  0.1688 -0.1105
 4900W        W 7050  23.929   5.338   3.219 -0.1503  0.0521 -0.2852
 4901W        W 7051   6.820   0.604   6.827 -0.3776  0.1342 -0.0709
 4902W        W 7052  16.611   5.403   1.170 -0.0939 -0.0579  0.0516
 4903W        W 7053  31.004   7.448   4.511 -0.0237 -0.4610 -0.1037
 4904W        W 7054  17.435   0.199  16.871  0.0564  0.0927 -0.2013
 4905W        W 7055  22.550   5.489   4.031  0.0489 -0.0508 -0.1385
 4906W        W 7056  26.334   4.941  20.005  0.0227 -0.1111 -0.1287
 4907W        W 7057   2.209   2.417   7.182 -0.3986  0.2078  0.1631
 4908W        W 7058  23.892   1.732  25.092 -0.0375  0.1932 -0.1862
 4909W        W 7059  19.045   4.284  17.758 -0.0315  0.0118 -0.0859
 4910W        W 7060   6.545   1.106   3.877  0.0064  0.0367 -0.1477
 4911W        W 7061   6.039   5.538  20.183  0.1997  0.1524 -0.0129
 4912W        W 7062  16.822   0.764  22.428 -0.2529 -0.0967 -0.0403
 4913W        W 7063   6.649   5.042  15.202  0.1751 -0.0696  0.1117
 4914W        W 7064  27.370   4.673  15.196  0.0779 -0.1880  0.0800
 4915W        W 7065  15.290   2.623   4.359  0.5025  0.4123  0.0618
 4916W        W 7066   2.356   5.118   5.196  0.1889  0.0814 -0.1005
 4917W        W 7067   0.422   0.411  10.591 -0.0811  0.0201 -0.1994
 4918W        W 7068   0.140   0.198  24.772 -0.0790 -0.0154  0.1637
 4919W        W 7069  10.883   6.760  22.403 -0.0559  0.3201  0.0156
 4920W        W 7070  10.678   6.555  26.137  0.1640  0.3502 -0.0392
 4921W        W 7071  30.263   4.133  21.347  0.0913  0.1464 -0.0162
 4922W        W 7072   1.900   7.618   3.312  0.2996 -0.2130 -0.0007
 4923W        W 7073  19.736   4.519  20.698 -0.0892 -0.2188  0.0632
 4924W        W 7074   0.684   3.718   3.900  0.0681 -0.2214  0.1915
 4925W        W 7075  22.763   1.220  16.908  0.0777 -0.0014 -0.1429
 4926W        W 7076   1.014   1.689  25.552  0.0412 -0.1860 -0.1485
 4927W        W 7077   7.934   0.998   1.941 -0.0691  0.0294  0.3762
 4928W        W 7078   0.886   6.171   4.828  0.0209 -0.0098  0.1060
 4929W        W 7079  21.644   2.254  16.856 -0.1691  0.0019  0.0850
 4930W        W 7080  18.125   1.579  19.140  0.0362  0.1245  0.0354
 4931W        W 7081  21.815   2.257  21.433  0.2359 -0.0658 -0.1035
 4932W        W 7082   7.462   4.349   1.846  0.1599  0.1772 -0.4568
 4933W        W 7083  16.241   6.810  18.200  0.2808 -0.1033  0.0072
 4934W        W 7084  19.295   7.379  22.854  0.2714  0.1096 -0.1333
 4935W        W 7085  21.492   4.807   0.231 -0.2940  0.3278  0.0784
 4936W        W 7086  19.612   1.112  21.210 -0.0155  0.1737 -0.1619
 4937W        W 7087  28.047   7.763   3.941 -0.0592  0.0138  0.2917
 4938W        W 7088  31.171   1.775   4.768 -0.0939  0.1118  0.1898
 4939W        W 7089  18.937   3.404  20.414  0.0071  0.0568  0.0609
 4940W        W 7090  17.994   2.317  25.470  0.1173 -0.3021  0.0701
 4941W        W 7091   0.198   0.568  25.340 -0.0832  0.1265 -0.1673
 4942W        W 7092  26.673   5.957   5.251  0.0551 -0.1280 -0.0570
 4943W        W 7093   0.693   7.532  19.997  0.0048 -0.3997 -0.0665
 4944W        W 7094  16.038   0.786   1.290 -0.0110  0.1051 -0.1186
 4945W        W 7095  30.667   3.546   0.416  0.0616 -0.1500  0.0724
 4946W        W 7096  16.014   7.674  15.792 -0.3497 -0.0201 -0.3338
 4947W        W 7097  24.743   5.791  17.733 -0.1320  0.3187 -0.2535
 4948W        W 7098   8.974   5.872   2.216 -0.1527 -0.0913 -0.2093
 4949W        W 7099  28.077   7.310   0.749  0.0438  0.3298  0.3018
 4950W        W 7100  18.298   5.325  24.670  0.1938  0.1568  0.0597
 4951W        W 7101  19.042   0.067   4.661 -0.2481  0.3992  0.3202
 4952W        W 7102  26.547   3.530  21.848 -0.0382 -0.1546 -0.2212
 4953W        W 7103  27.032   7.407   7.880  0.1323 -0.0328  0.2780
 4954W        W 7104  23.733   0.363  11.419  0.0607 -0.0614 -0.0208
 4955W        W 7105   7.818   2.133   0.242  0.0590  0.0123  0.0125
 4956W        W 7106   0.314   6.645  24.293  0.0972 -0.3903  0.0134
 4957W        W 7107  23.317   3.619  15.621 -0.1876  0.1602 -0.2337
 4958W        W 7108   7.751   1.234  16.003 -0.2505 -0.2204  0.0037
 4959W        W 7109  18.781   7.303  20.672 -0.0769 -0.3695  0.4754
 4960W        W 7110  26.358   5.899  18.948 -0.1323  0.0145 -0.2456
 4961W        W 7111  17.437   5.022   4.375  0.1498 -0.0564  0.0630
 4962W        W 7112   2.626   3.093  22.852  0.3002 -0.1421 -0.0716
 4963W        W 7113   3.746   5.866  25.490  0.2438 -0.0446 -0.1970
 4964W        W 7114  24.428   6.077   7.019 -0.3304 -0.1357 -0.2631
 4965W        W 7115  22.254   3.277   5.790  0.1614  0.0315 -0.2873
 4966W        W 7116  16.454   7.029  17.189  0.1562  0.0212  0.1225
 4967W        W 7117   7.587   0.057  11.142 -0.2855 -0.2739 -0.0486
 4968W        W 7118  22.236   4.805  18.943 -0.3474  0.1718 -0.0293
 4969W        W 7119  16.812   6.029  17.966  0.2236  0.4685  0.1939
 4970W        W 7120   5.501   5.667  22.705  0.1939 -0.0435 -0.0105
 4971W        W 7121   8.025   3.985  22.026 -0.0775 -0.0267  0.3024
 4972W        W 7122   7.481   3.539   2.734 -0.0001  0.0910 -0.1027
 4973W        W 7123  24.116   6.882  24.245  0.0383 -0.0549 -0.1074
 4974W        W 7124  28.892   3.445  19.757 -0.3102  0.0051  0.3053
 4975W        W 7125  10.381   2.724  16.355  0.1900  0.0115  0.0106
 4976W        W 7126  23.935   5.730  22.474 -0.1064  0.1318 -0.0693
 4977W        W 7127  24.946   4.266  25.472 -0.1598  0.0579 -0.3007
 4978W        W 7128  13.646   3.258   6.381  0.0273 -0.2010 -0.1174
 4979W        W 7129   1.881   6.780   7.973  0.2467 -0.0067  0.2449
 4980W        W 7130  24.642   5.676   2.797  0.1773 -0.1072  0.2765
 4981W        W 7131  22.646   7.037  22.017 -0.0314  0.1287 -0.0968
 4982W        W 7132  13.439   4.537   1.878 -0.0121  0.0125  0.1414
 4983W        W 7133  11.869   6.549   6.214  0.0570 -0.0578  0.0140
 4984W        W 7134  26.742   7.729  26.373  0.1227 -0.2570  0.0208
 4985W        W 7135  15.066   1.879  18.497 -0.2700  0.0037  0.3101
 4986W        W 7136  20.381   3.330   5.396 -0.1355  0.3598  0.2442
 4987W        W 7137  17.513   2.154  15.986  0.2184  0.0228  0.1258
 4988W        W 7138  28.862   3.282  10.110  0.1440  0.0797 -0.0035
 4989W        W 7139  31.195   0.313   1.718  0.1841  0.0255  0.0413
 4990W        W 7140  27.794   6.945  20.748  0.0896 -0.1245  0.0732
 4991W        W 7141  25.708   6.262  22.595  0.2388 -0.0886 -0.1683
 4992W        W 7142  25.143   7.463   2.110  0.1261  0.2272 -0.2038
 4993W        W 7143  14.508   3.332   8.545  0.1250 -0.2633 -0.0095
 4994W        W 7144  26.911   6.240  18.080  0.0338  0.3331 -0.1220
 4995W        W 7145  13.851   5.448  19.304 -0.0598  0.0482 -0.2165
 4996W        W 7146   0.640   3.913  23.657  0.0563 -0.0477 -0.2155
 4997W        W 7147  17.033   6.059   3.011 -0.1171  0.0094  0.3883
 4998W        W 7148  11.502   3.161  22.853  0.0618 -0.1644 -0.0835
 4999W        W 7149   9.178   1.584   1.491 -0.2679  0.0193 -0.3812
 5000W        W 7150   8.243   2.091  20.904 -0.0941  0.0793 -0.3140
 5001W        W 7151   8.215   7.289  22.176 -0.0341 -0.1331  0.4416
 5002W        W 7152  24.780   5.845  16.260  0.1680  0.4429 -0.0213
 5003W        W 7153   4.407   1.128  15.735  0.0985 -0.1478 -0.0043
 5004W        W 7154  10.172   1.466   2.714  0.0112  0.2369 -0.3804
 5005W        W 7155  19.896   2.987  23.923  0.3033  0.0666  0.1006
 5006W        W 7156  29.482   7.105  19.332 -0.0779 -0.1688  0.2082
 5007W        W 7157  30.950   0.138  23.194  0.0371  0.2122 -0.2299
 5008W        W 7158  29.957   1.011   3.875 -0.0448 -0.0091 -0.0045
 5009W        W 7159  30.856   6.065  22.470 -0.0885  0.0547  0.2079
 5010W        W 7160  29.464   3.422  17.561 -0.0591  0.1389 -0.0415
 5011W        W 7161  17.987   2.849   9.930  0.0347  0.1489  0.4418
 5012W        W 7162  13.515   7.136   4.260  0.1212  0.1348  0.1821
 5013W        W 7163  17.978   0.521  23.690  0.0378  0.2443 -0.0953
 5014W        W 7164  17.501   7.416   1.190 -0.0540 -0.0642 -0.1012
 5015W        W 7165  29.957   0.421  11.639 -0.1061  0.0033 -0.0867
 5016W        W 7166  15.780   0.140   5.865 -0.1613 -0.0355  0.2063
 5017W        W 7167   1.101   1.139   9.610  0.3785 -0.0239 -0.0404
 5018W        W 7168  16.813   2.640  19.201 -0.1971  0.4983  0.3429
 5019W        W 7169   8.185   0.380  11.265 -0.2624 -0.1001 -0.1733
 5020W        W 7170  13.820   6.118  19.497 -0.0491 -0.2305 -0.3496
 5021W        W 7171  29.531   2.028   3.503  0.0008  0.2042  0.3163
 5022W        W 7172   4.655   6.332  22.576 -0.2129  0.1741 -0.0453
 5023W        W 7173  23.967   3.011  17.174  0.1770 -0.0845 -0.1159
 5024W        W 7174  26.997   3.982   4.362  0.0698  0.1715 -0.1208
 5025W        W 7175   6.057   5.169   5.181 -0.3272  0.2056 -0.0298
 5026W        W 7176   9.866   7.761   6.699  0.0841 -0.1329 -0.1852
 5027W        W 7177  10.311   3.596  15.595 -0.1334 -0.3557 -0.0336
 5028W        W 7178  14.760   0.468   3.238  0.0688 -0.3731  0.1002
 5029W        W 7179   9.276   6.297  17.781 -0.2163 -0.0771  0.1903
 5030W        W 7180   7.323   1.298   9.861 -0.1189 -0.1808 -0.2592
 5031W        W 7181   1.065   3.530  10.963 -0.2901 -0.1599  0.0604
 5032W        W 7182   9.101   7.219   8.070  0.0591  0.1719 -0.1477
 5033W        W 7183   3.306   1.622   0.680 -0.4316 -0.3097 -0.1364
 5034W        W 7184  14.574   7.130  16.610 -0.2207 -0.2442  0.1002
 5035W        W 7185  21.638   2.831   0.181 -0.0582 -0.3193  0.1572
 5036W        W 7186  11.433   5.605   2.940  0.1718 -0.2247 -0.2308
 5037W        W 7187   4.813   0.409  22.965 -0.0613  0.1251  0.1826
 5038W        W 7188  16.746   4.810   0.723 -0.0637 -0.1071  0.1226
 5039W        W 7189  19.072   7.608  25.768 -0.1840  0.3002 -0.1395
 5040W        W 7190  23.412   3.437   8.939  0.3995 -0.0734  0.0622
 5041W        W 7191   8.163   1.588  10.755 -0.1651 -0.0244  0.1420
 5042W        W 7192   5.291   2.254  23.130 -0.0357  0.0951 -0.3594
 5043W        W 7193  18.416   2.331   2.073  0.1320  0.0729 -0.4825
 5044W        W 7194  20.338   6.373  17.647  0.0457 -0.0623 -0.0383
 5045W        W 7195  14.783   6.882   8.410 -0.0633 -0.1695 -0.0561
 5046W        W 7196  27.240   4.112  21.438 -0.0061  0.0360 -0.0774
 5047W        W 7197  10.524   2.041   4.831 -0.2345 -0.0467 -0.2720
 5048W        W 7198  12.505   2.764   9.885  0.1805 -0.0593  0.2431
 5049W        W 7199  28.950   6.380   3.042  0.0228 -0.2984  0.0802
 5050W        W 7200  29.326   4.778   4.481  0.2013  0.2096 -0.1476
 5051W        W 7201  11.917   3.853   7.832  0.2483  0.3096  0.0082
 5052W        W 7202  25.423   2.764   6.844  0.0776  0.0767 -0.0679
 5053W        W 7203  19.198   0.268   0.053 -0.0267 -0.0007  0.0366
 5054W        W 7204  20.125   6.690  24.471  0.2012  0.1177 -0.0617
 5055W        W 7205  22.187   6.767   7.557 -0.0176  0.0932  0.0625
 5056W        W 7206  13.670   7.696  10.002 -0.2041  0.0195  0.1660
 5057W        W 7207  16.867   6.847   8.302  0.0026  0.2177 -0.3538
 5058W        W 7208   5.862   0.030  21.283  0.0647 -0.0505  0.2157
 5059W        W 7209  16.929   7.023  18.298 -0.1178  0.1566  0.2293
 5060W        W 7210  30.416   3.522  16.677 -0.1451  0.2576  0.0275
 5061W        W 7211  16.789   3.634   0.203 -0.1485  0.1698 -0.4619
 5062W        W 7212  23.241   7.483   1.943 -0.0084  0.2819  0.1007
 5063W        W 7213  26.979   6.717   1.704 -0.1728 -0.1107 -0.2082
 5064W        W 7214   9.433   1.546  20.339 -0.3053 -0.1894  0.0598
 5065W        W 7215  29.377   0.927  23.582  0.1739 -0.0215 -0.0353
 5066W        W 7216   4.188   7.009   2.738  0.0132 -0.0100 -0.1314
 5067W        W 7217   5.893   0.953  10.877 -0.2476  0.1721 -0.0694
 5068W        W 7218  29.779   3.414   8.143  0.0291  0.0286  0.1983
 5069W        W 7219  13.906   2.070  23.362 -0.2911 -0.1274  0.2125
 5070W        W 7220  26.394   3.168  22.644  0.1417  0.2009  0.1270
 5071W        W 7221  17.135   6.241   0.773 -0.1517 -0.0920 -0.0192
 5072W        W 7222  29.590   1.625  21.440 -0.2664  0.1711  0.3652
 5073W        W 7223  23.364   7.448   7.931  0.0487  0.1281  0.0716
 5074W        W 7224  16.901   6.967  16.633 -0.3871  0.1486  0.2642
 5075W        W 7225  25.096   5.532   1.973 -0.0557  0.2799  0.1115
 5076W        W 7226  14.566   2.555  17.968  0.1472  0.1237  0.0263
 5077W        W 7227   4.361   6.293  24.889 -0.1151  0.1783  0.0540
 5078W        W 7228   4.748   3.654  25.324  0.1369  0.1421  0.1751
 5079W        W 7229  30.387   3.155   3.854  0.0829 -0.0042 -0.0882
 5080W        W 7230   5.208   7.279  19.195 -0.0708 -0.0603 -0.0016
 5081W        W 7231  30.254   3.724  10.191 -0.0444 -0.1734 -0.0159
 5082W        W 7232  29.787   4.436  24.468 -0.2052 -0.1269  0.0267
 5083W        W 7233  24.030   7.144   4.093  0.0160  0.0886 -0.2112
 5084W        W 7234  16.364   1.084  19.960  0.0259 -0.0162  0.1854
 5085W        W 7235   2.257   3.721   5.868  0.1876  0.4366 -0.3922
 5086W        W 7236   3.718   1.267   8.802  0.1751  0.3142  0.1430
 5087W        W 7237  20.984   2.642  16.322  0.0057 -0.2191 -0.0551
 5088W        W 7238  29.869   1.061   5.520 -0.1826  0.2369  0.1188
 5089W        W 7239  12.927   3.197  17.468  0.1946 -0.3287 -0.0360
 5090W        W 7240  12.612   6.333   0.101 -0.1549 -0.1245  0.1010
 5091W        W 7241  28.906   3.084  16.215 -0.2435 -0.3354 -0.0523
 5092W        W 7242  30.999   3.772  21.787  0.1649  0.0724 -0.0257
 5093W        W 7243  21.028   0.043  20.566 -0.3766  0.1552 -0.3305
 5094W        W 7244  13.605   3.145  19.880  0.2195 -0.0352 -0.0668
 5095W        W 7245   0.464   4.588   7.801 -0.2388 -0.0285 -0.2439
 5096W        W 7246  14.725   4.170  23.084 -0.2756 -0.1617  0.1395
 5097W        W 7247   7.720   0.986  16.484  0.0537 -0.0630  0.0390
 5098W        W 7248  15.821   5.321  21.020 -0.0997  0.2134  0.0869
 5099W        W 7249   2.938   2.760  23.053 -0.1017  0.0102 -0.1519
 5100W        W 7250   2.399   0.800   4.529  0.1138  0.1732  0.0457
 5101W        W 7251  20.156   4.705  22.513 -0.0392 -0.0438  0.2404
 5102W        W 7252  13.268   2.225   5.545  0.1961  0.0106  0.1574
 5103W        W 7253  27.670   6.698  24.079  0.1688 -0.1870 -0.1155
 5104W        W 7254   2.634   4.092   2.249 -0.2364  0.0109 -0.0447
 5105W        W 7255  17.168   0.997   9.256 -0.0054  0.0930 -0.3166
 5106W        W 7256  25.512   0.782  18.678  0.1677 -0.1843  0.4131
 5107W        W 7257   3.250   0.566   7.230  0.4286  0.1888 -0.0221
 5108W        W 7258  28.206   5.215  23.872  0.1036  0.0593  0.1577
 5109W        W 7259  12.124   4.161   3.226 -0.1298  0.0860  0.0332
 5110W        W 7260   0.717   7.116   5.710 -0.0785 -0.0181 -0.1727
 5111W        W 7261  23.045   1.562   3.723  0.0269 -0.0870 -0.0760
 5112W        W 7262   0.887   5.256  17.680  0.0283 -0.0327 -0.0676
 5113W        W 7263  17.687   5.647   9.828  0.0350 -0.1267  0.1227
 5114W        W 7264  14.482   6.236  18.925 -0.1086 -0.0229  0.3918
 5115W        W 7265   7.216   7.457  21.010  0.0456 -0.1864 -0.1035
 5116W        W 7266  20.528   6.068   2.843 -0.2190  0.0051 -0.0359
 5117W        W 7267  30.190   6.280  18.968  0.0268  0.0446 -0.1301
 5118W        W 7268   4.498   3.190  24.998  0.1917  0.2695 -0.2398
 5119W        W 7269  25.188   0.529   6.307 -0.0119  0.1675  0.1043
 5120W        W 7270  28.111   1.077  15.732  0.2206 -0.3163 -0.0185
 5121W        W 7271  16.768   1.319  25.969  0.0004  0.3327 -0.0817
 5122W        W 7272  14.790   1.947  18.098  0.1081  0.0504  0.0164
 5123W        W 7273  23.198   0.241   8.841  0.0484 -0.0146 -0.2881
 5124W        W 7274   6.527   3.948   5.232  0.2214  0.2554 -0.0934
 5125W        W 7275   4.724   3.701  25.855  0.0306  0.0968  0.0773
 5126W        W 7276  25.941   3.853   9.731  0.0960 -0.4011 -0.0921
 5127W        W 7277   6.204   4.933   0.221 -0.0434 -0.1609 -0.0819
 5128W        W 7278  30.770   1.778  21.012 -0.2620 -0.2640 -0.1455
 5129W        W 7279   5.135   7.257  21.078  0.1944 -0.0471  0.0456
 5130W        W 7280  21.448   7.636   5.310  0.1646  0.2134 -0.0765
 5131W        W 7281   0.192   6.161  25.474  0.1510 -0.1545  0.5959
 5132W        W 7282  18.800   3.461  10.156 -0.0134  0.0324 -0.2356
 5133W        W 7283  10.712   6.038   3.256  0.1558 -0.0961  0.0284
 5134W        W 7284  26.950   2.623   9.948  0.2480  0.1065  0.0199
 5135W        W 7285  14.975   4.685   0.573  0.2035  0.5188  0.4484
 5136W        W 7286  12.810   2.630   6.127 -0.0545  0.0015  0.0218
 5137W        W 7287  11.780   1.952   2.689  0.0303  0.1001  0.1822
 5138W        W 7288  26.948   5.624   8.853  0.2741  0.0506 -0.1461
 5139W        W 7289   5.118   2.790  25.642  0.1822 -0.0560  0.0793
 5140W        W 7290  14.372   0.502   8.132 -0.0929 -0.0920  0.0563
 5141W        W 7291  27.578   0.023   2.525 -0.2031 -0.0522 -0.0698
 5142W        W 7292   2.592   0.079  24.271  0.1080 -0.1694  0.2368
 5143W        W 7293  29.754   2.487  22.749  0.1252 -0.2085  0.1935
 5144W        W 7294  29.437   4.483  24.125  0.0076 -0.2411 -0.0270
 5145W        W 7295  11.591   1.755  20.235  0.1495 -0.1607 -0.3314
 5146W        W 7296   0.068   3.278   0.707  0.0304  0.1772 -0.1565
 5147W        W 7297  20.174   3.622   7.333 -0.2424 -0.0231  0.0484
 5148W        W 7298  30.333   2.283  11.640 -0.4176 -0.1309 -0.3343
 5149W        W 7299  28.894   1.095  26.368  0.0903  0.0676 -0.0179
 5150W        W 7300  29.867   6.782   7.521  0.0175 -0.1200 -0.1166
 5151W        W 7301   5.742   4.151   5.737  0.3541 -0.1863  0.0646
 5152W        W 7302   0.485   5.971  23.227 -0.1387 -0.0060  0.0670
 5153W        W 7303  16.578   3.038  21.462 -0.0594  0.3007 -0.0009
 5154W        W 7304  12.345   1.138  16.858  0.0530  0.0131  0.0050
 5155W        W 7305  15.975   4.130   6.213 -0.1061 -0.0812  0.2809
 5156W        W 7306  13.337   6.007  18.710  0.0287  0.1220  0.0256
 5157W        W 7307  30.976   6.799   3.749 -0.2202  0.0036  0.1642
 5158W        W 7308   0.495   1.993  18.475 -0.0311 -0.0464  0.2371
 5159W        W 7309  27.787   3.379  21.642  0.0055 -0.2734  0.1571
 5160W        W 7310  25.666   5.629   9.981  0.1236 -0.1094 -0.3054
 5161W        W 7311  27.326   3.596  20.699 -0.1277 -0.1056  0.0436
 5162W        W 7312   2.810   0.996   5.097  0.2328  0.0874  0.4650
 5163W        W 7313  22.338   2.395   4.805  0.0232 -0.1880  0.1969
 5164W        W 7314  21.688   5.484   9.875 -0.1244 -0.2098 -0.1912
 5165W        W 7315  24.398   3.490  24.885 -0.0978 -0.0525  0.1368
 5166W        W 7316   2.524   6.483  16.618 -0.4299  0.0504 -0.1201
 5167W        W 7317   7.148   5.617   2.418  0.2580  0.2235  0.0428
 5168W        W 7318  18.402   6.571  15.661 -0.0811 -0.5337  0.0802
 5169W        W 7319  11.263   4.653  10.151  0.0747 -0.0117 -0.0792
 5170W        W 7320   6.955   1.406  15.095  0.1510 -0.2811  0.0819
 5171W        W 7321  20.883   5.574   9.824  0.1292  0.1771  0.0175
 5172W        W 7322  28.526   3.715   0.191  0.1170  0.2125  0.1017
 5173W        W 7323  29.872   3.205  24.970  0.1957  0.1457  0.1177
 5174W        W 7324   1.518   2.139   1.722 -0.0708  0.0474 -0.0725
 5175W        W 7325   3.439   6.330   4.707 -0.0862 -0.2069 -0.1560
 5176W        W 7326  12.689   5.673  25.823  0.0406 -0.0897 -0.1144
 5177W        W 7327  12.722   3.946  15.071  0.1497  0.1716  0.0447
 5178W        W 7328  13.851   7.399   0.937  0.1809 -0.3289 -0.1578
 5179W        W 7329  10.697   6.805  23.066 -0.2136 -0.2100  0.2487
 5180W        W 7330  12.792   4.887   7.971  0.2366 -0.1252 -0.1726
 5181W        W 7331  19.166   7.620   5.068 -0.2393 -0.0418  0.2289
 5182W        W 7332  14.482   2.787  21.126  0.0684 -0.1239  0.0132
 5183W        W 7333  17.456   6.048  14.938 -0.0410 -0.2420 -0.0825
 5184W        W 7334  28.146   6.741   0.082 -0.0865  0.1914  0.1156
 5185W        W 7335   5.492   2.023   6.277  0.1016 -0.1525  0.0243
 5186W        W 7336  29.236   0.577  22.249 -0.1591 -0.0607  0.0254
 5187W        W 7337  23.829   1.662  19.618 -0.1447  0.0547  0.1203
 5188W        W 7338  11.158   3.150  23.615 -0.0259  0.0128 -0.1935
 5189W        W 7339   2.434   3.960  19.389  0.0560 -0.0347 -0.0324
 5190W        W 7340  13.705   0.293   0.143 -0.1966  0.0932 -0.1396
 5191W        W 7341   0.482   3.064  21.397  0.0272  0.1534  0.0231
 5192W        W 7342  30.842   6.386   0.086  0.0312 -0.0769 -0.2416
 5193W        W 7343  16.948   6.577   7.252  0.2373 -0.0521 -0.0065
 5194W        W 7344  17.409   7.293   9.388 -0.0309 -0.1607 -0.1501
 5195W        W 7345  15.717   3.333  18.563 -0.1826  0.3075  0.2057
 5196W        W 7346  13.946   2.684  24.745  0.0690  0.2146 -0.3003
 5197W        W 7347  21.450   6.184  16.206  0.0105 -0.1995 -0.0631
 5198W        W 7348  30.185   7.590   8.002 -0.0714 -0.3088 -0.0249
 5199W        W 7349  26.557   5.881  11.776 -0.1363 -0.0767  0.1287
 5200W        W 7350  12.488   5.323  19.553 -0.2288  0.0811  0.0929
 5201W        W 7351   9.535   1.135   0.490 -0.2829 -0.0876 -0.1470
 5202W        W 7352   5.114   2.459  16.097  0.2575 -0.2025 -0.0719
 5203W        W 7353  28.000   5.226   4.952  0.0081  0.0342 -0.0087
 5204W        W 7354   8.804   0.131  20.330  0.1499 -0.0615 -0.0707
 5205W        W 7355  17.618   6.691  21.210 -0.0853  0.0432  0.0801
 5206W        W 7356  24.195   2.885  17.714 -0.2922  0.0222 -0.0877
 5207W        W 7357  12.509   6.339  20.761 -0.0752 -0.2205 -0.0112
 5208W        W 7358   3.319   0.505  21.131 -0.3195 -0.2323  0.2513
 5209W        W 7359  20.630   4.867  21.700  0.2245  0.0454 -0.1673
 5210W        W 7360  19.381   4.357   9.930  0.0343  0.1267  0.3447
 5211W        W 7361  29.405   1.148  11.207  0.0020 -0.4262 -0.1904
 5212W        W 7362  23.175   6.199   3.174 -0.1225  0.0457  0.0662
 5213W        W 7363   4.649   3.941  18.131 -0.3444 -0.2833  0.0085
 5214W        W 7364  10.689   0.447   7.226  0.0787 -0.2621 -0.2969
 5215W        W 7365  25.040   4.161   0.685 -0.1889  0.2201 -0.0241
 5216W        W 7366  10.521   2.967   3.484 -0.2251 -0.0937  0.0201
 5217W        W 7367  10.929   5.048  25.223  0.1948  0.1892  0.1670
 5218W        W 7368  12.439   0.790   6.177 -0.2393  0.1930  0.1774
 5219W        W 7369  18.673   1.931  19.795  0.0735  0.0998 -0.4610
 5220W        W 7370  27.037   2.899   5.740 -0.0250 -0.0591  0.0248
 5221W        W 7371   5.615   0.391  10.294  0.0061  0.2305  0.0064
 5222W        W 7372  28.907   3.282   8.679 -0.0745  0.0179 -0.0826
 5223W        W 7373   5.438   1.865  15.762  0.0053  0.1726 -0.1348
 5224W        W 7374  14.619   6.920  25.617 -0.2140 -0.0481  0.1556
 5225W        W 7375   0.245   1.085   1.223 -0.0623  0.0710 -0.1179
 5226W        W 7376  18.124   7.076   8.101  0.0137  0.1311 -0.3104
 5227W        W 7377   9.676   0.228   1.405 -0.2617  0.1121 -0.1058
 5228W        W 7378  15.665   1.711  17.619 -0.1725  0.1676 -0.0791
 5229W        W 7379  18.670   5.442   6.342 -0.0102  0.2995 -0.2023
 5230W        W 7380   8.934   0.389  16.492 -0.0093 -0.0286 -0.1921
 5231W        W 7381  30.038   2.486   5.711 -0.2388  0.0321  0.0177
 5232W        W 7382  12.233   1.823  11.376  0.2068 -0.1486 -0.1657
 5233W        W 7383  25.443   7.184  19.717  0.0229  0.1319 -0.1207
 5234W        W 7384  19.283   7.653   0.377 -0.1597 -0.0311  0.0599
 5235W        W 7385  16.604   0.068  25.050  0.2557 -0.2574 -0.1201
 5236W        W 7386   9.430   2.511   5.792  0.0545 -0.0353  0.1661
 5237W        W 7387  13.136   7.521   1.296  0.3080  0.1261  0.0774
 5238W        W 7388  24.840   0.117   5.105  0.1540  0.0875  0.1245
 5239W        W 7389   9.735   2.075  21.129 -0.0324 -0.0225  0.3305
 5240W        W 7390   7.424   6.484   6.201 -0.2967 -0.3326 -0.1087
 5241W        W 7391   1.325   0.064  24.657 -0.0692  0.2218 -0.0058
 5242W        W 7392  26.922   4.034   5.646 -0.2724  0.0132  0.1875
 5243W        W 7393  21.377   3.421   3.709 -0.3511  0.0236 -0.0846
 5244W        W 7394  20.761   1.447   3.322  0.0287  0.0652 -0.1537
 5245W        W 7395  16.776   5.341   9.973 -0.1712 -0.2052 -0.0329
 5246W        W 7396  31.107   7.492   6.366 -0.0119  0.1880  0.1548
 5247W        W 7397  12.707   7.701  16.568  0.1124 -0.2479 -0.0052
 5248W        W 7398   5.772   4.003   0.787  0.0984 -0.0670 -0.2176
 5249W        W 7399  25.291   4.491  17.936 -0.1088  0.3667 -0.1957
 5250W        W 7400  28.405   7.267   7.190  0.1250 -0.0968  0.1863
 5251W        W 7401  30.045   6.719  17.232  0.0122  0.1810 -0.1414
 5252W        W 7402  19.261   7.655   2.214  0.0839  0.3449 -0.1166
 5253W        W 7403  26.678   1.282   8.690  0.0461 -0.2618  0.0185
 5254W        W 7404  14.611   1.960  10.532 -0.0059 -0.1787  0.1208
 5255W        W 7405  28.338   5.376  25.999  0.0075 -0.2142 -0.0562
 5256W        W 7406  19.437   3.361   5.797 -0.0017 -0.0499 -0.0601
 5257W        W 7407   0.098   7.201  16.375  0.0773 -0.0419 -0.1406
 5258W        W 7408  28.130   7.300   6.073  0.0448 -0.0833 -0.2653
 5259W        W 7409  11.925   2.653   8.824 -0.0137 -0.3121  0.0502
 5260W        W 7410   3.069   0.598   0.650 -0.0226  0.0376  0.3256
 5261W        W 7411  22.881   7.270   2.288  0.1641 -0.2049  0.2522
 5262W        W 7412  26.792   6.097   8.818  0.0483  0.2754 -0.1863
 5263W        W 7413   2.689   0.500  20.231 -0.1513  0.4253  0.1250
 5264W        W 7414  26.630   6.524   2.778 -0.1767  0.0945 -0.2787
 5265W        W 7415  15.744   1.823   4.463  0.0634  0.1551 -0.0324
 5266W        W 7416   0.171   1.088   7.001  0.0912  0.0866  0.0240
 5267W        W 7417   1.873   2.286  22.307  0.2800 -0.0939 -0.1809
 5268W        W 7418   8.315   3.492  21.633  0.1652 -0.2675  0.0981
 5269W        W 7419  26.390   7.022   6.126  0.0209 -0.1687  0.0776
 5270W        W 7420   5.235   1.497  10.482 -0.0341  0.0262  0.3472
 5271W        W 7421  10.166   2.966   6.338  0.0974  0.1089  0.2427
 5272W        W 7422  16.014   0.822   0.557  0.0954 -0.1485  0.2487
 5273W        W 7423  28.956   2.227   9.713  0.1526  0.1675  0.2757
 5274W        W 7424  14.569   7.269  25.034  0.1631 -0.1534 -0.0552
 5275W        W 7425  21.548   3.333   5.007 -0.1704 -0.0385  0.2916
 5276W        W 7426   0.103   4.762   7.228  0.3636  0.0443  0.1728
 5277W        W 7427  28.998   4.539   0.543  0.2284  0.1034  0.1767
 5278W        W 7428  29.653   2.149   8.412 -0.1401  0.1328  0.0628
 5279W        W 7429  28.325   3.267  16.045  0.0845 -0.0407 -0.1743
 5280W        W 7430   6.086   0.778  15.411  0.1202 -0.0799 -0.1229
 5281W        W 7431  28.734   7.112  21.421 -0.1159 -0.0067 -0.3235
 5282W        W 7432  28.536   1.882  24.571 -0.1084  0.1417 -0.1960
 5283W        W 7433  27.500   2.185   1.749 -0.0969  0.0716 -0.0313
 5284W        W 7434  12.570   4.314  21.371 -0.2305  0.1056 -0.3440
 5285W        W 7435   3.765   4.647  16.256  0.1124 -0.1185  0.0082
 5286W        W 7436   7.152   5.606   8.500 -0.2486 -0.2493 -0.0608
 5287W        W 7437   2.206   4.089   9.004 -0.1584 -0.2417  0.1959
 5288W        W 7438  31.071   7.114   8.667  0.1251  0.2115  0.3235
 5289W        W 7439  19.002   6.734  25.464  0.0962  0.1218 -0.2306
 5290W        W 7440   8.283   7.198   2.754  0.2629  0.2240  0.2074
 5291W        W 7441   7.800   1.092   9.987  0.1479 -0.0604 -0.0835
 5292W        W 7442  16.587   3.823  18.438  0.0833  0.0375  0.1378
 5293W        W 7443  12.296   0.663   0.420  0.4043  0.0238  0.3062
 5294W        W 7444  23.561   4.901   4.425  0.0763 -0.0359 -0.0731
 5295W        W 7445  16.598   6.633  16.840  0.0595 -0.0081  0.0810
 5296W        W 7446   3.720   5.363  22.274 -0.1616  0.3132  0.1636
 5297W        W 7447   7.906   6.912   4.939 -0.0270  0.0479  0.1875
 5298W        W 7448  29.052   2.370   0.181  0.1682 -0.2633  0.0022
 5299W        W 7449  19.062   2.429   9.232 -0.0228 -0.0016 -0.0004
 5300W        W 7450  10.754   5.215   5.610 -0.0427  0.1257 -0.0907
 5301W        W 7451   7.229   1.750   8.956  0.0262  0.2211 -0.0783
 5302W        W 7452  27.041   6.025  22.779 -0.3489  0.0121 -0.0339
 5303W        W 7453   3.289   1.496  19.052  0.0915 -0.2040 -0.1331
 5304W        W 7454  20.388   3.929  21.017  0.0503 -0.0433  0.1558
 5305W        W 7455  13.196   3.964   8.427  0.1896  0.0430 -0.1182
 5306W        W 7456  20.032   4.079   3.676  0.0800  0.2165 -0.1091
 5307W        W 7457   3.445   0.761   6.799  0.2554  0.0393  0.0520
 5308W        W 7458   9.604   1.172   9.533  0.0219 -0.0519  0.1871
 5309W        W 7459   9.729   6.042  18.571 -0.1508 -0.2113 -0.3352
 5310W        W 7460  17.738   5.191   4.738  0.2706 -0.4072  0.2602
 5311W        W 7461   2.747   7.738   8.689 -0.0021 -0.3423  0.0878
 5312W        W 7462  27.311   0.367  15.766 -0.0197 -0.2994 -0.0695
 5313W        W 7463  13.865   7.790  26.064 -0.1637  0.2103  0.1219
 5314W        W 7464  24.857   1.972   5.294 -0.0391  0.1271  0.1083
 5315W        W 7465   5.053   6.909   4.512 -0.0811 -0.2607  0.1911
 5316W        W 7466  26.723   3.546  10.107 -0.3719 -0.0629 -0.1017
 5317W        W 7467   0.388   0.836  22.320 -0.2137 -0.2123  0.4195
 5318W        W 7468   2.737   0.238   5.882  0.3215  0.0612 -0.1102
 5319W        W 7469  10.327   1.432  25.048 -0.3635  0.1296  0.0192
 5320W        W 7470  18.482   4.743  18.586 -0.1922  0.1509 -0.0388
 5321W        W 7471   4.362   4.748   6.116 -0.1288  0.1949 -0.1640
 5322W        W 7472   1.810   0.715  18.313  0.0488  0.4093 -0.0113
 5323W        W 7473  14.415   5.733   7.905 -0.2612  0.1328 -0.1905
 5324W        W 7474  26.035   7.067   6.533  0.2015  0.1479  0.2149
 5325W        W 7475  14.394   6.960   3.456 -0.0712  0.1429  0.2298
 5326W        W 7476  18.666   3.969   3.642  0.1901 -0.0817  0.0313
 5327W        W 7477  18.422   7.167   3.286  0.2456 -0.2968 -0.0540
 5328W        W 7478  16.683   0.186   0.416 -0.1524  0.0614  0.1716
 5329W        W 7479   3.371   4.275   8.799 -0.0059 -0.0343 -0.3159
 5330W        W 7480  25.098   2.885  22.396 -0.1015  0.0016 -0.2504
 5331W        W 7481   5.902   5.143   5.670 -0.2254 -0.2563  0.0003
 5332W        W 7482  20.552   5.725   0.595  0.0363 -0.1248 -0.0165
 5333W        W 7483   5.346   6.036  17.161 -0.1279  0.1491  0.0707
 5334W        W 7484  29.012   3.846  20.044 -0.0948 -0.0013 -0.3185
 5335W        W 7485  20.576   5.454   0.033  0.2190  0.0910  0.1836
 5336W        W 7486   4.022   3.698   6.380 -0.0605 -0.0058  0.0466
 5337W        W 7487  27.022   2.304   1.668  0.0316 -0.1239 -0.2956
 5338W        W 7488  30.228   0.764   3.499 -0.3445  0.0716 -0.0690
 5339W        W 7489   9.094   5.161  25.690 -0.0081  0.0803  0.1914
 5340W        W 7490  19.712   2.697  16.878  0.1663 -0.1148  0.3645
 5341W        W 7491  20.536   5.272  24.681  0.0424  0.2969 -0.1004
 5342W        W 7492   5.633   5.606  18.813 -0.1563 -0.2593 -0.2903
 5343W        W 7493   7.276   4.918   3.114  0.1544 -0.0780  0.1647
 5344W        W 7494   5.393   1.747  23.657  0.0578 -0.1623  0.0110
 5345W        W 7495   3.225   1.831   9.374 -0.2540 -0.0173  0.1876
 5346W        W 7496  20.697   6.501   8.403  0.1374  0.0566  0.1547
 5347W        W 7497  18.856   5.919  22.894 -0.0948 -0.1498 -0.1130
 5348W        W 7498   4.254   0.464   8.188 -0.1036  0.1291 -0.0632
 5349W        W 7499   0.867   1.580  16.521 -0.0691 -0.0090  0.2865
 5350W        W 7500  22.679   3.696  10.945  0.0845 -0.2176 -0.2510
 5351W        W 7501  12.536   5.074  18.107  0.3095 -0.1774 -0.2101
 5352W        W 7502   4.855   5.366   0.452 -0.2444 -0.3000  0.1418
 5353W        W 7503  19.157   5.393  19.760 -0.1054 -0.0684 -0.1218
 5354W        W 7504  23.744   4.218  20.533 -0.0604  0.0612  0.1473
 5355W        W 7505   5.042   6.817   2.074 -0.0493  0.0650 -0.2136
 5356W        W 7506  13.964   6.498  24.113  0.0111  0.0997  0.0552
 5357W        W 7507  27.196   1.424  20.039 -0.2596  0.0876  0.0443
 5358W        W 7508  19.268   6.667  25.029 -0.0603  0.2697  0.0436
 5359W        W 7509  20.178   0.032  24.515 -0.1570 -0.0381 -0.1426
 5360W        W 7510  15.788   1.851   3.252  0.0325 -0.1996 -0.2433
 5361W        W 7511  31.099   3.635   2.405  0.1797  0.0135  0.1971
 5362W        W 7512  20.851   0.182  23.953  0.2992  0.0151  0.1499
 5363W        W 7513  18.665   4.646  25.065 -0.3610 -0.0651 -0.2855
 5364W        W 7514  12.194   1.615  19.051 -0.1142 -0.0421 -0.0399
 5365W        W 7515  27.042   4.813  17.506 -0.0812 -0.0506  0.4470
 5366W        W 7516  23.076   5.800  24.093 -0.1285  0.1391  0.2191
 5367W        W 7517  13.391   4.249  15.612 -0.2283  0.2122  0.2693
 5368W        W 7518  10.632   7.477   1.672  0.1546 -0.1957  0.1251
 5369W        W 7519  17.250   1.075  25.776  0.1106 -0.2039  0.2764
 5370W        W 7520  12.326   5.739   2.255 -0.0192  0.0646  0.0031
 5371W        W 7521   2.722   5.759  10.900 -0.0449  0.1838  0.1124
 5372W        W 7522  29.340   1.836   1.415 -0.1781 -0.3567 -0.2315
 5373W        W 7523  27.715   3.833  23.593 -0.3478 -0.0482  0.0041
 5374W        W 7524   4.776   3.598   3.088 -0.0012 -0.1246 -0.0490
 5375W        W 7525   9.503   1.992   3.675  0.0616  0.1016 -0.2935
 5376W        W 7526  27.998   0.094  25.887 -0.1416  0.0512 -0.4581
 5377W        W 7527   5.886   4.494  19.136  0.1099 -0.0145  0.0398
 5378W        W 7528  30.891   0.467  17.268 -0.2265  0.1226  0.0434
 5379W        W 7529  10.126   7.631  22.260  0.0513  0.2879 -0.1481
 5380W        W 7530  11.555   5.723  18.149  0.2984  0.1264  0.0114
 5381W        W 7531  20.911   4.898   4.739 -0.1257  0.0236 -0.0990
 5382W        W 7532  28.936   7.733  24.879  0.2759  0.0426 -0.0804
 5383W        W 7533  22.632   2.745   3.096  0.1136  0.0839 -0.0575
 5384W        W 7534  20.160   5.834   6.463  0.0101 -0.2154 -0.1731
 5385W        W 7535  17.698   1.903  25.651  0.3517 -0.1154 -0.2249
 5386W        W 7536  19.063   5.286  17.885  0.0826  0.0091  0.1094
 5387W        W 7537   7.202   4.793  24.305  0.0842  0.3844 -0.2704
 5388W        W 7538  10.289   3.076  18.598 -0.0271 -0.0269  0.0030
 5389W        W 7539   8.610   2.738   8.417 -0.0600 -0.2594  0.4995
 5390W        W 7540  28.793   5.623   0.725 -0.1077  0.1872  0.1462
 5391W        W 7541  11.380   2.972   0.187  0.0858  0.0858 -0.0526
 5392W        W 7542  11.289   5.778  20.463 -0.1909 -0.1300 -0.2717
 5393W        W 7543  13.504   1.319   4.922  0.0184 -0.0069  0.2716
 5394W        W 7544  13.236   0.499   4.821 -0.3148  0.1492  0.1215
 5395W        W 7545  16.577   0.922  10.041  0.0445 -0.1053 -0.0355
 5396W        W 7546  25.705   2.621   4.678  0.0176 -0.1521  0.3501
 5397W        W 7547  11.957   1.717  22.774  0.3094 -0.2237  0.1638
 5398W        W 7548  25.517   6.543  19.818  0.0749 -0.5109  0.0359
 5399W        W 7549  18.556   3.561   0.756  0.1267 -0.0264  0.2202
 5400W        W 7550  28.572   6.993  10.056  0.2050 -0.0125  0.0375
 5401W        W 7551   1.022   4.883  17.091  0.0303  0.0797  0.2528
 5402W        W 7552   1.671   2.946  18.568 -0.0031  0.2248 -0.0979
 5403W        W 7553   4.828   3.108  17.529  0.1902 -0.2594  0.4081
 5404W        W 7554   1.287   2.831   5.432  0.2168  0.2296 -0.1818
 5405W        W 7555  30.509   5.699   1.965 -0.0249 -0.3656 -0.3624
 5406W        W 7556  20.264   7.673  10.393  0.1282  0.1773  0.1366
 5407W        W 7557  15.819   6.057   0.009  0.3556 -0.1238 -0.1817
 5408W        W 7558  13.932   1.572  15.249  0.0608  0.2182 -0.0049
 5409W        W 7559  12.519   5.415   0.191  0.5476  0.1001  0.0091
 5410W        W 7560  10.674   2.545   0.867  0.0021  0.1380  0.1122
 5411W        W 7561  11.292   4.929  15.923 -0.1372 -0.0617  0.1303
 5412W        W 7562  29.166   1.300   5.285 -0.0897 -0.0228  0.0643
 5413W        W 7563  25.167   7.166  26.400  0.0751  0.1078  0.1000
 5414W        W 7564   3.101   1.647   8.939  0.3675 -0.0925 -0.0339
 5415W        W 7565  13.231   4.556  25.287 -0.1639 -0.0514 -0.1076
 5416W        W 7566  11.583   0.993  21.929 -0.2502  0.0602  0.1020
 5417W        W 7567   7.610   2.711  24.460 -0.1816  0.2115 -0.0598
 5418W        W 7568  19.299   6.051   0.640 -0.0818  0.0617 -0.1204
 5419W        W 7569  28.047   5.897   6.511 -0.0606 -0.0875 -0.1677
 5420W        W 7570  23.847   1.395  26.253 -0.2294 -0.1091 -0.0362
 5421W        W 7571   4.513   4.500   0.433  0.2482 -0.1275  0.0008
 5422W        W 7572  30.393   1.952  22.615  0.0289 -0.0477  0.1699
 5423W        W 7573  26.866   2.314   0.112 -0.2128  0.0650 -0.0920
 5424W        W 7574  22.824   1.707   0.142 -0.3755  0.1488  0.0591
 5425W        W 7575  22.438   4.180  19.501 -0.0933  0.1524  0.0767
 5426W        W 7576   9.569   1.236  15.692 -0.1222  0.0505 -0.0701
 5427W        W 7577  30.354   7.418  16.255  0.0104 -0.0766  0.2977
 5428W        W 7578  17.205   7.048  19.551  0.1424  0.1911  0.0130
 5429W        W 7579  13.787   0.532  16.488 -0.1178 -0.0508  0.0582
 5430W        W 7580   3.578   4.511  15.806 -0.3901  0.0651  0.0801
 5431W        W 7581   7.223   3.516  21.398 -0.3124 -0.1186  0.1169
 5432W        W 7582  23.231   1.931  17.045 -0.0502  0.1582 -0.2951
 5433W        W 7583   3.424   4.201   8.013 -0.0183 -0.2169 -0.3523
 5434W        W 7584   3.688   5.468   0.757 -0.1503  0.1969 -0.0852
 5435W        W 7585  24.536   6.173   1.402  0.2695 -0.0193  0.1540
 5436W        W 7586  30.300   0.615   0.124  0.0653  0.1090 -0.2851
 5437W        W 7587  26.280   4.306  19.284  0.2191 -0.1488 -0.3264
 5438W        W 7588  30.415   0.089   0.319 -0.0103 -0.3421  0.3658
 5439W        W 7589  28.413   2.422  18.042  0.0291 -0.4909  0.3512
 5440W        W 7590  10.017   0.908  25.142  0.3751  0.1207 -0.0268
 5441W        W 7591  30.029   2.261   4.833 -0.0406  0.0772  0.2106
 5442W        W 7592  27.925   5.177   8.985  0.1329  0.0422 -0.1077
 5443W        W 7593  20.493   0.213  17.658 -0.0821  0.2502 -0.0841
 5444W        W 7594  16.750   0.426   4.938 -0.1525 -0.1793  0.1498
 5445W        W 7595  27.857   0.639  24.671  0.0547 -0.2801  0.0485
 5446W        W 7596  28.191   5.287   2.463 -0.3711  0.0963  0.2294
 5447W        W 7597  15.276   5.841   5.858  0.0735 -0.1689  0.2300
 5448W        W 7598  15.274   2.171  25.416  0.0123 -0.1985 -0.2312
 5449W        W 7599   5.357   1.277  24.673  0.1478  0.0613  0.0005
 5450W        W 7600   6.004   4.489  23.761  0.0641  0.2426 -0.2796
 5451W        W 7601   8.490   6.252  17.998  0.1600 -0.1527  0.0019
 5452W        W 7602   4.301   1.025  22.970 -0.0663 -0.2439 -0.4447
 5453W        W 7603  13.031   2.415   2.632  0.0156  0.1272  0.0276
 5454W        W 7604  15.168   1.600  17.386 -0.2677 -0.2903  0.1004
 5455W        W 7605   2.501   4.753  19.902 -0.2356 -0.1519  0.0712
 5456W        W 7606  12.267   0.505  10.893 -0.1270  0.3109  0.0504
 5457W        W 7607  25.174   2.288   0.435  0.2270 -0.2399 -0.0999
 5458W        W 7608  14.246   1.458  16.549  0.2070  0.2505  0.1306
 5459W        W 7609  14.852   7.529   5.097 -0.1180  0.0693  0.0645
 5460W        W 7610  18.361   4.766   3.850 -0.0764  0.2258 -0.3333
 5461W        W 7611  28.111   4.580  23.415 -0.1907  0.2192 -0.1037
 5462W        W 7612  13.940   6.440   8.020  0.4449 -0.2867  0.2702
 5463W        W 7613   8.547   4.877  22.330 -0.0858  0.0213  0.0865
 5464W        W 7614   4.210   4.084  17.920 -0.0088  0.0402 -0.3489
 5465W        W 7615  25.716   4.277   3.719 -0.0191  0.1162 -0.0072
 5466W        W 7616  20.555   1.941  17.968 -0.1312  0.1207 -0.1158
 5467W        W 7617  16.211   2.472   5.323 -0.1172  0.0963  0.2789
 5468W        W 7618  13.721   3.751   1.539  0.0802 -0.2176  0.2854
 5469W        W 7619  16.354   6.362  19.859 -0.0937  0.1550  0.2528
 5470W        W 7620  13.792   7.365   3.889  0.0049  0.2456 -0.1911
 5471W        W 7621  15.482   7.419   1.898 -0.1875  0.0680  0.1839
 5472W        W 7622   8.102   2.346  23.279  0.0823  0.1994  0.0220
 5473W        W 7623  20.805   2.447  19.113 -0.2626 -0.2921  0.0825
 5474W        W 7624  15.786   0.019   0.253  0.2105  0.1697 -0.1438
 5475W        W 7625  16.479   7.063   4.440 -0.0966  0.1816 -0.1118
 5476W        W 7626  26.574   4.026  15.200  0.0791 -0.3315  0.0872
 5477W        W 7627  16.768   3.687   9.525  0.1673  0.0870 -0.0276
 5478W        W 7628  15.016   3.589  19.021 -0.0481  0.0486 -0.1678
 5479W        W 7629  23.069   1.257   2.785  0.0223 -0.0064 -0.2575
 5480W        W 7630  16.164   5.456  23.409 -0.2355  0.2396 -0.0824
 5481W        W 7631  20.341   7.152  16.345  0.0860  0.1829 -0.1251
 5482W        W 7632  12.938   6.735   7.866 -0.4965  0.0396  0.1126
 5483W        W 7633  15.570   3.665  16.174  0.0813  0.0163  0.0296
 5484W        W 7634   9.182   1.717   7.962  0.0306  0.2553  0.0738
 5485W        W 7635   8.727   4.043   8.008  0.1626 -0.0301 -0.1640
 5486W        W 7636  24.328   4.862  20.497  0.0114  0.2567  0.0092
 5487W        W 7637  19.427   0.167  16.120 -0.2135 -0.0710 -0.0465
 5488W        W 7638  27.592   3.238   3.297 -0.0927  0.0090  0.3359
 5489W        W 7639  29.219   3.650  26.120 -0.1969 -0.0731  0.2689
 5490W        W 7640  29.028   1.636  10.950 -0.0401 -0.0119 -0.1615
 5491W        W 7641  31.016   6.681  22.335  0.1594 -0.1767 -0.3298
 5492W        W 7642  11.361   7.407  24.971  0.0046  0.0408 -0.1191
 5493W        W 7643  25.899   6.153   6.347 -0.1749 -0.0988  0.1511
 5494W        W 7644  12.001   3.372   8.083  0.1357 -0.0368  0.0294
 5495W        W 7645  22.231   6.543   5.468 -0.2063  0.0136 -0.2021
 5496W        W 7646   0.427   5.370   3.786 -0.0464 -0.3364 -0.1957
 5497W        W 7647  27.631   7.376   5.835 -0.1284  0.0046  0.0139
 5498W        W 7648   0.098   7.269  20.761  0.2051  0.1562  0.0210
 5499W        W 7649   6.825   7.187   4.539 -0.0591 -0.0964  0.3072
 5500W        W 7650   2.450   6.282  17.351 -0.3993 -0.1372 -0.2351
 5501W        W 7651  10.394   1.307   3.449 -0.1169 -0.2144  0.2590
 5502W        W 7652   7.710   6.467  20.280 -0.0294 -0.0679 -0.0636
 5503W        W 7653   5.588   6.916   7.083 -0.2823 -0.0289 -0.2204
 5504W        W 7654  30.479   2.278  16.691 -0.1060  0.0386 -0.2733
 5505W        W 7655   3.804   7.008  16.831  0.0639  0.1858 -0.2272
 5506W        W 7656  12.164   0.151   9.435 -0.4924 -0.2210  0.2757
 5507W        W 7657  11.980   6.162  25.919 -0.1233 -0.1425 -0.1171
 5508W        W 7658  23.525   7.438  18.512 -0.1187  0.0625 -0.0255
 5509W        W 7659   7.077   3.340  18.013  0.2091 -0.2104 -0.2940
 5510W        W 7660   5.873   0.631   3.515 -0.2909 -0.0859 -0.0090
 5511W        W 7661  17.294   2.429   3.001  0.0184 -0.0512  0.0471
 5512W        W 7662  17.394   6.417   7.452  0.0993 -0.2465  0.0274
 5513W        W 7663  21.511   4.864  25.674 -0.1011 -0.1591  0.0082
 5514W        W 7664   1.991   2.607  17.451  0.1154  0.1721  0.0578
 5515W        W 7665  24.023   3.417  17.560 -0.1298  0.0588 -0.1720
 5516W        W 7666  20.970   0.025   9.383 -0.0720  0.2707 -0.1683
 5517W        W 7667  21.919   5.013   7.842  0.2498 -0.0853  0.1103
 5518W        W 7668  29.839   6.307  17.595 -0.0683  0.2158 -0.1825
 5519W        W 7669  13.566   0.617  15.631  0.2444 -0.0177 -0.0527
 5520W        W 7670   0.459   6.569  25.624 -0.2543 -0.0335  0.0247
 5521W        W 7671   4.462   2.217   5.269  0.0995 -0.0491 -0.3118
 5522W        W 7672  14.469   1.666  20.283  0.2437  0.0777 -0.1316
 5523W        W 7673   1.653   5.477  17.269  0.1440  0.1221 -0.2057
 5524W        W 7674   0.904   0.700  10.639 -0.1501 -0.2936  0.0087
 5525W        W 7675  15.704   4.708  20.920  0.0165  0.0005  0.2544
 5526W        W 7676  10.462   7.240   3.460 -0.1563  0.0723  0.1282
 5527W        W 7677   4.467   1.970  25.884  0.1822 -0.2060  0.0599
 5528W        W 7678   9.943   5.473  21.294  0.0912  0.0248  0.1017
 5529W        W 7679   0.491   7.509  25.917 -0.1513 -0.0220  0.0609
 5530W        W 7680  27.496   6.811   6.715  0.0329 -0.0084 -0.2020
 5531W        W 7681  15.708   3.177  22.500  0.3052  0.1903  0.2898
 5532W        W 7682   7.008   3.559   8.918 -0.0561  0.2085 -0.0976
 5533W        W 7683  29.172   2.003   7.123  0.1373  0.3605 -0.0034
 5534W        W 7684  14.658   0.920  25.662  0.1490  0.0046 -0.0358
 5535W        W 7685  22.804   5.379   2.459  0.4229  0.0107  0.0317
 5536W        W 7686  15.181   4.873   7.820  0.2139 -0.1770  0.0163
 5537W        W 7687  16.442   1.545   4.019  0.1127 -0.2390 -0.2267
 5538W        W 7688  30.621   6.308   9.118 -0.4375  0.0327  0.0219
 5539W        W 7689  20.569   3.281   9.546 -0.1033  0.0821  0.0971
 5540W        W 7690  19.818   4.791  16.447  0.1951  0.0500  0.0658
 5541W        W 7691  29.288   1.624  25.158 -0.0753  0.0152  0.1447
 5542W        W 7692  13.621   0.913   5.738  0.0456 -0.1827  0.2253
 5543W        W 7693  30.015   3.335   0.853  0.0153  0.0149 -0.0220
 5544W        W 7694   9.106   1.278   1.007  0.0393 -0.1188 -0.0400
 5545W        W 7695  18.262   4.500  24.049 -0.2550 -0.0018  0.0667
 5546W        W 7696   8.952   0.168  25.461 -0.1869  0.1472  0.0217
 5547W        W 7697  27.175   7.756  25.905 -0.2427  0.3579 -0.2150
 5548W        W 7698  17.259   5.494  16.581  0.1253 -0.1029 -0.1963
 5549W        W 7699  21.925   7.389  20.680  0.0716 -0.1412  0.0495
 5550W        W 7700   4.688   4.934  24.994 -0.3661 -0.1186 -0.1278
 5551W        W 7701  16.178   7.183   0.914 -0.0708  0.0988 -0.0125
 5552W        W 7702   4.069   4.735  19.626 -0.1356  0.2690  0.3557
 5553W        W 7703   0.135   6.995  24.794  0.1214  0.0434  0.0946
 5554W        W 7704  10.535   6.196   8.244 -0.0337  0.0246 -0.1838
 5555W        W 7705   0.000   2.988  16.671  0.1662 -0.3381  0.2965
 5556W        W 7706  28.155   4.289  20.498 -0.1138 -0.1672 -0.1504
 5557W        W 7707  20.041   2.584  24.182  0.1400  0.0469 -0.0153
 5558W        W 7708   9.347   5.183  22.772  0.1948 -0.0468 -0.4106
 5559W        W 7709   4.787   2.580  20.024  0.3283 -0.0568 -0.0932
 5560W        W 7710  16.631   7.397  23.851  0.0514  0.0950 -0.0407
 5561W        W 7711   6.995   6.584  18.861  0.0162 -0.0203 -0.0868
 5562W        W 7712  22.263   2.131   9.355 -0.0048 -0.0092 -0.3060
 5563W        W 7713   7.620   0.410   3.085 -0.0326 -0.0154 -0.1558
 5564W        W 7714  23.519   2.862   0.940  0.4139  0.0253 -0.1505
 5565W        W 7715  16.512   1.915   0.954 -0.3492  0.2606 -0.2714
 5566W        W 7716   4.571   6.739   6.491  0.0201  0.0331 -0.1881
 5567W        W 7717  16.648   0.711   3.891  0.1156  0.0743 -0.3883
 5568W        W 7718  16.626   5.346   4.762 -0.1730 -0.0880 -0.0839
 5569W        W 7719  27.371   7.746   5.622 -0.0362  0.1006  0.0131
 5570W        W 7720  16.797   5.451   7.070 -0.1441 -0.1305 -0.1127
 5571W        W 7721  15.794   2.881   9.446  0.2583 -0.0900 -0.3082
 5572W        W 7722  21.337   6.935   1.065 -0.2564 -0.0300 -0.4004
 5573W        W 7723   2.390   6.195  15.681  0.0264 -0.1264 -0.0391
 5574W        W 7724  26.114   2.243  16.205  0.4335 -0.1293  0.1937
 5575W        W 7725  24.820   5.931  20.222 -0.1402  0.1463 -0.1602
 5576W        W 7726  19.949   7.403   4.852  0.1063 -0.0697 -0.1677
 5577W        W 7727  26.601   6.218  10.081  0.0530 -0.0968  0.2618
 5578W        W 7728  19.210   3.846   8.083 -0.0526 -0.2621  0.2760
 5579W        W 7729  27.680   4.087   8.596  0.2151  0.1447  0.2327
 5580W        W 7730   7.320   3.434  11.480 -0.1057  0.0768  0.0464
 5581W        W 7731  18.900   2.886  10.857 -0.0882 -0.0086 -0.0845
 5582W        W 7732  24.114   0.946   0.480  0.2277 -0.0950 -0.3494
 5583W        W 7733  11.108   4.488  15.047 -0.1045 -0.0280 -0.0312
 5584W        W 7734  21.926   4.955  24.967 -0.0901 -0.0577 -0.2738
 5585W        W 7735   8.384   1.654  24.590  0.0418  0.0149  0.0840
 5586W        W 7736  17.225   6.331  21.175 -0.1775  0.2223  0.0297
 5587W        W 7737  31.050   6.869  17.572 -0.3006  0.0477 -0.1552
 5588W        W 7738  17.802   4.103   6.439  0.0066 -0.1118 -0.0718
 5589W        W 7739   1.185   1.619  22.639 -0.1604 -0.0379 -0.0111
 5590W        W 7740  22.694   4.105   2.082  0.1599  0.0095  0.1395
 5591W        W 7741  30.388   4.030   6.074 -0.0626 -0.1427 -0.1857
 5592W        W 7742   5.371   0.798  25.576 -0.2638  0.0468 -0.0244
 5593W        W 7743  14.859   0.882  15.948 -0.2413  0.2471 -0.0213
 5594W        W 7744   6.428   1.436   2.040  0.2507  0.2292  0.1335
 5595W        W 7745  25.198   6.172  23.821  0.1364 -0.2162  0.0666
 5596W        W 7746   3.510   7.022  17.831  0.1760  0.1252  0.2666
 5597W        W 7747  20.645   7.208   9.014 -0.0408 -0.0027 -0.1236
 5598W        W 7748   2.063   4.275   7.502 -0.0177  0.1524 -0.3109
 5599W        W 7749   3.473   3.508  20.362  0.0848  0.5019  0.0919
 5600W        W 7750  25.818   3.298   9.687  0.0814  0.0747 -0.2222
 5601W        W 7751   0.325   5.201   9.665 -0.1036  0.4891 -0.0019
 5602W        W 7752  27.032   1.306  21.643 -0.1386 -0.0595 -0.3938
 5603W        W 7753  18.241   0.448  26.331  0.2326  0.0759  0.1244
 5604W        W 7754  20.894   3.176   9.097  0.1333  0.1622  0.1598
 5605W        W 7755  19.015   1.646   8.800 -0.2549 -0.0262 -0.2766
 5606W        W 7756  23.584   3.701   9.336 -0.2810 -0.1359 -0.3123
 5607W        W 7757  30.063   1.560   1.043 -0.1507 -0.1553  0.0150
 5608W        W 7758  29.671   1.360   8.022  0.0055  0.1822 -0.1389
 5609W        W 7759  14.096   0.971   5.736  0.2319  0.2782 -0.2060
 5610W        W 7760   1.867   1.519   1.635 -0.2678  0.1071 -0.3960
 5611W        W 7761  17.032   3.243  26.385  0.1164  0.0449  0.1217
 5612W        W 7762   8.451   6.579  20.060 -0.2891 -0.0383  0.0181
 5613W        W 7763  21.640   5.149  17.427  0.0684  0.0798  0.2794
 5614W        W 7764  22.178   3.582  23.704 -0.0486 -0.0374  0.2968
 5615W        W 7765  23.771   6.761  17.947 -0.0453  0.2828  0.0471
 5616W        W 7766  20.262   0.506  24.389 -0.2968 -0.3434 -0.1120
 5617W        W 7767  30.139   3.806   2.084  0.1519  0.0198 -0.1495
 5618W        W 7768  25.746   7.519  18.325 -0.0055  0.0654 -0.0513
 5619W        W 7769  14.770   6.060  24.237 -0.1062  0.0402 -0.1943
 5620W        W 7770  16.824   1.101   9.615  0.0024  0.1423  0.0614
 5621W        W 7771  18.080   5.587  15.810  0.0416 -0.0519 -0.2243
 5622W        W 7772   2.466   2.281  11.599  0.3480 -0.4521  0.3555
 5623W        W 7773  11.215   3.555   3.043  0.1380  0.0134  0.0307
 5624W        W 7774  12.104   7.083   8.010  0.3690  0.0770 -0.0346
 5625W        W 7775  13.427   3.325  17.343 -0.1199  0.0178  0.1081
 5626W        W 7776   8.746   0.216   4.725 -0.1074  0.1554  0.0230
 5627W        W 7777   2.011   2.435   2.632  0.0755 -0.0505 -0.1241
 5628W        W 7778  17.555   4.748   7.184 -0.0637 -0.1529  0.2475
 5629W        W 7779   9.049   3.516   4.118  0.0405  0.0859  0.0227
 5630W        W 7780  27.818   3.618  20.790  0.0066  0.5013 -0.1222
 5631W        W 7781   2.282   6.098   6.803 -0.0196 -0.0335  0.1107
 5632W        W 7782  25.270   6.752  18.544  0.2998  0.0981  0.0565
 5633W        W 7783  18.777   2.014  25.198  0.3964 -0.0218 -0.0372
 5634W        W 7784  18.876   2.933  16.562  0.0212 -0.1070 -0.0015
 5635W        W 7785   1.199   4.242   9.929 -0.0079 -0.2085 -0.0399
 5636W        W 7786   7.300   7.399   3.222  0.0374 -0.1707 -0.0033
 5637W        W 7787  24.653   3.536  17.162  0.0670  0.2500  0.1453
 5638W        W 7788  26.951   1.915   1.061 -0.1060 -0.1098  0.0819
 5639W        W 7789  29.633   2.259  24.480  0.3557  0.0070  0.2806
 5640W        W 7790  22.000   1.614  20.728 -0.1930  0.0534 -0.1442
 5641W        W 7791  12.679   5.223  25.550 -0.0808  0.1608  0.0559
 5642W        W 7792  15.916   0.081   3.532 -0.1114 -0.2481 -0.2793
 5643W        W 7793  22.564   5.019   2.230  0.2111  0.0467 -0.2501
 5644W        W 7794   7.987   3.997  26.048 -0.0188 -0.2957  0.0873
 5645W        W 7795   9.901   0.536  10.274  0.0787  0.0527 -0.0544
 5646W        W 7796   2.814   2.049  24.364  0.2189 -0.0852 -0.0992
 5647W        W 7797   2.739   4.931  11.479  0.2670  0.1491  0.0071
 5648W        W 7798  24.736   7.716   5.928  0.1370 -0.1931  0.1064
 5649W        W 7799  15.466   5.874   5.091 -0.0967 -0.1454 -0.1894
 5650W        W 7800  29.725   2.976  15.719 -0.4988 -0.1350  0.0469
 5651W        W 7801  30.380   4.396  23.332 -0.0546 -0.3266 -0.1363
 5652W        W 7802  24.347   3.218   7.410  0.1334  0.0109  0.0538
 5653W        W 7803  22.555   6.975  17.359 -0.0005  0.1356  0.1241
 5654W        W 7804   6.342   1.775  24.119  0.2232 -0.0862  0.0436
 5655W        W 7805   4.505   3.208  26.128 -0.0659 -0.3070  0.1914
 5656W        W 7806   5.189   3.874   0.803 -0.3793  0.1477  0.2443
 5657W        W 7807  27.189   1.916   7.910  0.0285  0.2349 -0.0766
 5658W        W 7808  16.247   1.713   2.842 -0.0966  0.0128  0.0470
 5659W        W 7809   8.195   7.751  24.993 -0.2394  0.1122 -0.2337
 5660W        W 7810   9.220   4.017   8.627  0.0759  0.1795  0.2072
 5661W        W 7811  25.574   3.520   5.534  0.4279 -0.3205 -0.3667
 5662W        W 7812   5.424   3.485  11.621  0.3562  0.2663  0.1894
 5663W        W 7813   7.399   2.621  16.489 -0.2317 -0.0592  0.2314
 5664W        W 7814  16.848   5.055   2.409  0.0959  0.0786 -0.0144
 5665W        W 7815  20.051   2.589   7.254  0.1418 -0.0037 -0.0070
 5666W        W 7816  28.289   7.505   4.337 -0.1427  0.1105  0.0143
 5667W        W 7817  23.733   1.919  20.057 -0.0928 -0.1721 -0.3635
 5668W        W 7818  10.375   5.308   9.953  0.0175 -0.0303  0.1213
 5669W        W 7819   2.254   4.614  23.234 -0.0462  0.1369  0.1499
 5670W        W 7820  24.043   4.933   5.594  0.0283 -0.1041 -0.0027
 5671W        W 7821  19.072   1.413  18.759 -0.1228 -0.1475 -0.1531
 5672W        W 7822  12.072   2.595  21.061 -0.1194 -0.1594  0.1173
 5673W        W 7823  29.875   6.603   5.780  0.0762  0.1625 -0.1837
 5674W        W 7824  18.278   5.885  18.762  0.0067  0.0113  0.1685
 5675W        W 7825   1.984   1.483   0.436 -0.1371  0.3872 -0.1698
 5676W        W 7826  14.623   7.213  15.780 -0.0658  0.2362 -0.1444
 5677W        W 7827  29.096   3.890   6.967 -0.2676 -0.0549  0.1420
 5678W        W 7828   6.761   1.186  22.090 -0.2070  0.0993  0.3307
 5679W        W 7829   9.806   6.114  16.099  0.0673  0.1867  0.1082
 5680W        W 7830  11.210   1.940   0.945  0.0771 -0.1658  0.0907
 5681W        W 7831  16.601   0.075  19.331 -0.0909  0.1686  0.0795
 5682W        W 7832   4.407   0.815   3.166 -0.1680  0.1759  0.2090
 5683W        W 7833   5.903   2.188   2.846  0.0177  0.0577 -0.0372
 5684W        W 7834  23.574   1.796   9.748  0.0724  0.0744 -0.1595
 5685W        W 7835  28.829   2.435   9.038 -0.0520  0.1081 -0.1225
 5686W        W 7836  19.332   6.053   4.376  0.0291 -0.2215  0.0202
 5687W        W 7837   1.612   3.175  18.130 -0.1789  0.3758  0.1358
 5688W        W 7838   1.923   5.810   8.742  0.1181 -0.0899  0.1445
 5689W        W 7839  20.743   6.196   7.346  0.0371 -0.2112 -0.0122
 5690W        W 7840   5.141   3.614  18.829  0.0340 -0.2977  0.2788
 5691W        W 7841  11.088   5.844  23.034 -0.2143 -0.1948 -0.1123
 5692W        W 7842  24.309   5.962   8.406  0.0484  0.2314  0.0861
 5693W        W 7843   7.108   4.774   9.520  0.0040 -0.2794  0.1466
 5694W        W 7844  19.269   6.038  16.236 -0.1836  0.2227  0.0201
 5695W        W 7845   2.406   0.749   9.659 -0.3676  0.1591 -0.2091
 5696W        W 7846   3.015   6.018  17.235  0.0668 -0.2458  0.0616
 5697W        W 7847  30.130   3.236  21.100 -0.4135 -0.2110 -0.0560
 5698W        W 7848   2.419   5.505   8.016 -0.2638  0.0902 -0.0249
 5699W        W 7849  25.697   4.261   7.070  0.1213 -0.2832 -0.2629
 5700W        W 7850   0.114   0.548  26.323  0.2066 -0.1212 -0.1737
 5701W        W 7851  28.303   4.871   5.498  0.0501  0.1186  0.1635
 5702W        W 7852   9.638   6.304  15.578  0.3678 -0.0369 -0.0299
 5703W        W 7853   1.098   6.056  25.912  0.0758  0.0211 -0.0144
 5704W        W 7854   3.048   4.457   5.581 -0.0331 -0.1548 -0.1243
 5705W        W 7855  20.845   2.947  24.249  0.2891  0.3156  0.1057
 5706W        W 7856  16.919   6.329   8.879  0.2682  0.0071  0.1736
 5707W        W 7857  13.698   5.054  16.230  0.1762 -0.0337 -0.1242
 5708W        W 7858  12.065   1.830   2.177  0.2752  0.4074 -0.1804
 5709W        W 7859  12.281   5.173  21.493  0.1027  0.0080 -0.0092
 5710W        W 7860   0.555   6.723  16.882  0.0731 -0.0859 -0.0133
 5711W        W 7861  19.228   5.442  26.226 -0.3033  0.0254  0.0028
 5712W        W 7862   2.891   7.758  24.763  0.2794 -0.2290 -0.2491
 5713W        W 7863   0.543   6.870  11.056  0.0259 -0.3080  0.0326
 5714W        W 7864  11.077   7.460  17.816  0.0908  0.1019 -0.0797
 5715W        W 7865   9.350   0.521   1.650  0.2590 -0.3209  0.2046
 5716W        W 7866  17.111   3.977  16.937 -0.1250 -0.2948  0.4090
 5717W        W 7867  22.465   3.445  19.847  0.0569  0.0392 -0.1951
 5718W        W 7868   9.593   6.036   1.434 -0.1217  0.1542  0.0889
 5719W        W 7869   3.258   2.641   5.191 -0.0749  0.0799 -0.0771
 5720W        W 7870  10.440   5.959   5.227  0.0120  0.0307  0.0030
 5721W        W 7871   9.929   7.065  18.821 -0.0500 -0.1819 -0.1872
 5722W        W 7872  18.076   6.481  21.249  0.1630 -0.2961  0.0678
 5723W        W 7873  19.692   2.488  25.513  0.1255  0.0843  0.0410
 5724W        W 7874  14.265   0.642  10.303 -0.0194  0.1083  0.1527
 5725W        W 7875  26.543   0.778  17.966 -0.1514 -0.3021  0.0037
 5726W        W 7876   1.563   4.964   1.466 -0.1753 -0.3269 -0.0425
 5727W        W 7877  11.598   2.213  17.336  0.1340 -0.0174  0.0643
 5728W        W 7878  25.628   3.639   4.277 -0.0354 -0.0259 -0.1541
 5729W        W 7879   2.487   5.379  25.712  0.0548 -0.3256 -0.3450
 5730W        W 7880  25.679   3.855  17.416  0.1336  0.0122 -0.0018
 5731W        W 7881  30.244   3.374  15.625 -0.0794  0.1196  0.0435
 5732W        W 7882   5.365   2.217  24.402 -0.1918 -0.2838  0.1146
 5733W        W 7883  17.134   6.898  15.400 -0.0430  0.0093 -0.2235
 5734W        W 7884  21.259   6.876   7.565 -0.2079 -0.0549  0.0350
 5735W        W 7885   0.552   2.593  17.428 -0.3314  0.0491 -0.0391
 5736W        W 7886   1.703   7.269  15.737 -0.1394  0.0968  0.5145
 5737W        W 7887   9.349   2.307  25.590  0.0912  0.0379 -0.1749
 5738W        W 7888  27.351   0.810   3.316 -0.1916  0.1259  0.1019
 5739W        W 7889  14.442   3.995  18.740  0.1221 -0.1358  0.0383
 5740W        W 7890  10.925   2.414  24.336  0.1008 -0.0858  0.1167
 5741W        W 7891  26.930   6.737  10.896 -0.0731  0.0467  0.1118
 5742W        W 7892  21.158   6.254  17.989 -0.0615  0.0572  0.0669
 5743W        W 7893  16.706   0.364   6.898 -0.1263 -0.0967 -0.2994
 5744W        W 7894  21.633   4.687  19.624  0.1678  0.1414  0.0453
 5745W        W 7895  10.464   3.115   2.753 -0.0893 -0.1740 -0.0331
 5746W        W 7896  27.193   6.519  22.889 -0.0503 -0.2942 -0.1627
 5747W        W 7897  12.611   6.843  16.749 -0.2031  0.1657  0.2026
 5748W        W 7898  11.753   3.237  20.451 -0.2084  0.0870 -0.0435
 5749W        W 7899  18.513   0.035   5.078 -0.0254 -0.2956 -0.0554
 5750W        W 7900  26.857   5.485  10.516 -0.0947  0.0524 -0.1700
 5751W        W 7901   5.234   0.669  18.579 -0.1596 -0.0127 -0.1814
 5752W        W 7902  16.168   7.199   2.895 -0.0749 -0.0193  0.1607
 5753W        W 7903   8.346   5.114  16.813  0.0064  0.0870 -0.1183
 5754W        W 7904   3.373   5.636   4.839 -0.0718  0.1587 -0.0012
 5755W        W 7905  24.655   6.380  26.398 -0.2375 -0.1962  0.1672
 5756W        W 7906   1.423   2.232   8.250  0.0437  0.0283 -0.3599
 5757W        W 7907  25.680   6.193   9.865 -0.2412 -0.0404  0.0380
 5758W        W 7908  17.727   4.058   7.892  0.1820  0.3692  0.1593
 5759W        W 7909   2.547   1.466  10.078  0.1292 -0.3683 -0.2636
 5760W        W 7910  18.188   6.377   6.259 -0.0881  0.2112 -0.0618
 5761W        W 7911  12.503   2.098  17.097  0.4435  0.0414  0.1823
 5762W        W 7912  17.233   4.046  23.140  0.1406 -0.0027 -0.2289
 5763W        W 7913   3.630   1.876   7.598 -0.2063  0.1121  0.0172
 5764W        W 7914  15.449   2.628   3.358  0.3735 -0.1729 -0.3942
 5765W        W 7915  22.544   3.586   6.349  0.1492 -0.0336  0.1197
 5766W        W 7916  15.358   4.303   4.217 -0.1612  0.0250 -0.0301
 5767W        W 7917  18.046   7.200   7.482 -0.0116  0.0471  0.0707
 5768W        W 7918  10.643   7.705   3.328 -0.0675  0.0138  0.2047
 5769W        W 7919  28.712   3.800   4.245 -0.1773  0.1545 -0.0369
 5770W        W 7920   8.592   6.479   7.931 -0.2017 -0.2167 -0.0479
 5771W        W 7921   1.588   0.972   8.740  0.0276  0.2836  0.0612
 5772W        W 7922   9.086   5.686   8.708  0.1067 -0.1365 -0.0009
 5773W        W 7923   2.310   4.919  20.342 -0.0932  0.0424  0.1065
 5774W        W 7924  19.524   4.091   3.732 -0.2543  0.0313  0.2696
 5775W        W 7925  19.371   0.739  22.193  0.1333 -0.0057 -0.1343
 5776W        W 7926   8.146   3.016  17.000 -0.0019 -0.0016 -0.0583
 5777W        W 7927   2.689   6.505  22.832  0.0455 -0.0531  0.0703
 5778W        W 7928   6.349   6.431   4.054  0.1813  0.2041 -0.1577
 5779W        W 7929  29.969   7.430  14.970 -0.0388 -0.3959  0.0386
 5780W        W 7930  16.655   1.740  25.568  0.2672 -0.2914 -0.0756
 5781W        W 7931  29.822   6.320   3.187 -0.0450  0.1525  0.0786
 5782W        W 7932  21.287   5.447  24.182  0.1100 -0.2147 -0.0510
 5783W        W 7933   0.137   5.155  23.807 -0.1161  0.1162  0.0995
 5784W        W 7934  18.835   3.338  22.628  0.0966  0.1174 -0.3171
 5785W        W 7935   4.546   3.432  16.277  0.0167  0.0362 -0.0516
 5786W        W 7936  27.450   6.046  15.879  0.2268  0.0325  0.1321
 5787W        W 7937  20.881   7.629  19.734 -0.1715  0.0323  0.0629
 5788W        W 7938  17.659   1.513  17.364  0.0985  0.1785  0.0456
 5789W        W 7939  14.666   5.968   5.220  0.4080  0.1655 -0.0422
 5790W        W 7940  25.117   2.425  25.581  0.0626  0.1738  0.4077
 5791W        W 7941  27.308   2.908  20.362  0.2003 -0.2035  0.2128
 5792W        W 7942   3.374   4.450  11.603  0.1092  0.3431 -0.2389
 5793W        W 7943  21.800   4.506   7.030  0.2018 -0.0288  0.1549
 5794W        W 7944  14.003   6.618  26.354  0.1376  0.1738 -0.2778
 5795W        W 7945  19.506   3.899  22.853 -0.1627  0.0794 -0.0742
 5796W        W 7946   7.871   4.937  16.322 -0.4381  0.0488 -0.1250
 5797W        W 7947  14.678   1.592  19.302  0.0248  0.3534  0.1131
 5798W        W 7948  17.427   3.363   1.312 -0.2669  0.1481 -0.2552
 5799W        W 7949   3.779   2.635  23.074 -0.0787 -0.0300  0.1900
 5800W        W 7950  20.191   2.994  20.901  0.1805  0.2497  0.0440
 5801W        W 7951   1.561   0.880  25.159  0.1747  0.3284  0.1622
 5802W        W 7952  14.499   7.091   7.607 -0.0361  0.0591  0.2617
 5803W        W 7953  29.820   0.746  17.983  0.1425 -0.0727  0.1926
 5804W        W 7954  23.657   5.448  19.621  0.0648 -0.0129 -0.1479
 5805W        W 7955   7.513   6.847  25.770 -0.2631 -0.2468 -0.0324
 5806W        W 7956  16.501   2.073  21.735 -0.0096  0.1166 -0.0561
 5807W        W 7957   6.144   2.358   3.609 -0.3183 -0.1670 -0.3070
 5808W        W 7958  12.614   6.028  24.664  0.1566  0.0053  0.0655
 5809W        W 7959   9.072   1.279   2.269  0.0734  0.2149  0.0635
 5810W        W 7960  20.718   0.655  19.825 -0.1716 -0.2017  0.1367
 5811W        W 7961   5.387   0.830  22.029  0.1445  0.0712  0.0631
 5812W        W 7962  25.080   3.871   6.123 -0.3494  0.1438  0.3289
 5813W        W 7963   3.853   4.607  10.277 -0.1704  0.0432  0.2172
 5814W        W 7964  18.959   5.746   4.611  0.1452 -0.2431 -0.2106
 5815W        W 7965  15.306   1.575  25.921  0.2953  0.0624  0.0586
 5816W        W 7966  15.632   5.417  21.568 -0.1354  0.3130  0.3368
 5817W        W 7967  20.413   5.844   5.505  0.0448 -0.2410  0.2756
 5818W        W 7968  25.487   0.534  20.408  0.0334 -0.1130  0.0934
 5819W        W 7969  22.303   3.013  10.658  0.0609 -0.0729 -0.1271
 5820W        W 7970  21.522   2.932  20.749  0.1767  0.0369  0.0617
 5821W        W 7971  27.195   0.190  24.979  0.3084 -0.1813 -0.1549
 5822W        W 7972   1.940   3.234  25.959  0.0914 -0.0435  0.0739
 5823W        W 7973  23.814   2.038   8.817 -0.0331  0.3080  0.0502
 5824W        W 7974  25.825   2.265  24.235  0.0150 -0.1910 -0.1366
 5825W        W 7975  31.092   1.346  18.802 -0.1735 -0.0413 -0.2449
 5826W        W 7976   2.112   6.056  24.574 -0.1659 -0.2094 -0.1470
 5827W        W 7977  10.618   6.022   2.773  0.1876  0.0331 -0.1284
 5828W        W 7978  21.871   4.439   2.631 -0.1125  0.0047  0.2200
 5829W        W 7979  29.180   2.885  10.763 -0.2324  0.0175  0.0025
 5830W        W 7980  31.094   1.704  19.289  0.0293 -0.0068  0.0102
 5831W        W 7981  27.302   3.638  21.643  0.0175  0.1788  0.1113
 5832W        W 7982  28.725   0.791   3.557 -0.0992  0.0154  0.1170
 5833W        W 7983  11.726   4.679   9.443 -0.0640  0.0178 -0.0771
 5834W        W 7984   7.636   0.378  24.903  0.3004 -0.0658 -0.2476
 5835W        W 7985  27.588   6.272  19.274 -0.4155 -0.0240 -0.1066
 5836W        W 7986  10.042   4.870  25.970  0.1007  0.0945 -0.0310
 5837W        W 7987  19.746   2.826  10.713  0.2388  0.1169 -0.1744
 5838W        W 7988   4.157   2.959   4.764  0.3137 -0.0727  0.1830
 5839W        W 7989   4.272   0.637  21.736  0.0127  0.2643  0.0988
 5840W        W 7990   4.186   1.795   5.254 -0.1969 -0.1023  0.1087
 5841W        W 7991   2.255   4.860  21.782 -0.1131  0.2309  0.1418
 5842W        W 7992  18.805   1.681  20.683  0.1772  0.0940  0.0866
 5843W        W 7993   6.846   1.392   0.744  0.1452  0.0529 -0.1054
 5844W        W 7994  24.020   2.068   3.210  0.0990 -0.2162 -0.0758
 5845W        W 7995  23.528   3.431   7.878 -0.1440 -0.0288 -0.1613
 5846W        W 7996  19.684   6.935  19.357  0.0599 -0.2565 -0.1892
 5847W        W 7997  19.464   4.459   9.427  0.2271  0.1532 -0.0190
 5848W        W 7998  14.335   1.022   2.189 -0.0879  0.0798 -0.0987
 5849W        W 7999   8.191   3.279  16.583  0.0584  0.0064 -0.0725
 5850W        W 8000   2.592   7.069  10.257  0.0856  0.3602 -0.1588
 5851W        W 8001   4.760   7.732   3.213 -0.1581 -0.2166  0.0144
 5852W        W 8002  26.859   2.073  21.697  0.1123 -0.1166  0.0254
 5853W        W 8003  23.018   6.335   1.937 -0.1643 -0.1229 -0.3038
 5854W        W 8004  10.483   5.593   4.818  0.2174  0.0254  0.1671
 5855W        W 8005   3.523   3.839   7.161 -0.1139 -0.1201 -0.0094
 5856W        W 8006  14.211   6.521   0.715 -0.2031 -0.1628 -0.1952
 5857W        W 8007  19.554   0.287   3.455 -0.0576  0.1026  0.1081
 5858W        W 8008  18.672   7.741  23.302 -0.2997  0.0401 -0.1720
 5859W        W 8009   9.652   0.363  18.096  0.1465  0.1234 -0.1804
 5860W        W 8010   0.513   6.847   8.291  0.0440  0.1311  0.0823
 5861W        W 8011  11.641   0.755  10.002 -0.0055 -0.1197 -0.0982
 5862W        W 8012   5.241   3.023  11.516 -0.3698 -0.3318 -0.2175
 5863W        W 8013  27.741   0.310  17.979 -0.0074  0.3320  0.0110
 5864W        W 8014   4.215   7.079   0.358 -0.2318 -0.3068  0.0258
 5865W        W 8015   6.606   1.215  20.620  0.1009  0.1262 -0.0121
 5866W        W 8016   2.373   5.197  16.077 -0.4425 -0.0229  0.0701
 5867W        W 8017   6.010   1.611  23.505  0.3257 -0.2371  0.0897
 5868W        W 8018   4.972   4.993  10.608  0.0883 -0.1651  0.1311
 5869W        W 8019  15.051   5.330  17.091  0.2104  0.1141 -0.1367
 5870W        W 8020  25.300   5.110  18.367  0.1100  0.2321 -0.0519
 5871W        W 8021   4.609   0.403   2.942  0.0909 -0.2995  0.0373
 5872W        W 8022  10.599   3.643   2.924 -0.2273  0.1622 -0.0353
 5873W        W 8023  17.718   5.575  22.297 -0.3126  0.0997 -0.0266
 5874W        W 8024  15.598   2.291  24.993 -0.1010  0.1584  0.1689
 5875W        W 8025  18.634   4.707  17.200  0.2008  0.1530 -0.0432
 5876W        W 8026  16.285   3.379  20.371  0.0386 -0.0932  0.1878
 5877W        W 8027  18.283   1.903  22.734 -0.0455 -0.1229 -0.2483
 5878W        W 8028  11.323   4.324   9.598 -0.0783 -0.0903  0.1846
 5879W        W 8029  21.187   1.563  25.273 -0.3293  0.1135  0.1089
 5880W        W 8030  30.551   3.542   2.896 -0.0156  0.0850  0.1889
 5881W        W 8031  31.138   6.017  18.812 -0.1733 -0.3836  0.1306
 5882W        W 8032   3.325   6.985  19.718  0.0217 -0.1906  0.2548
 5883W        W 8033   7.326   0.737   6.937 -0.0483  0.1127 -0.3225
 5884W        W 8034  27.740   4.657   5.409 -0.1503  0.3348  0.1021
 5885W        W 8035  13.827   5.470   9.010  0.0616 -0.3322  0.0063
 5886W        W 8036   6.006   4.189  10.428  0.3699  0.0947 -0.0553
 5887W        W 8037   5.791   6.086   1.540  0.1645 -0.0231  0.0265
 5888W        W 8038   0.126   5.605   2.708 -0.1894 -0.0226 -0.1805
 5889W        W 8039  18.196   0.599   6.975 -0.0262  0.0374  0.2267
 5890W        W 8040  11.601   3.526   1.967 -0.2578 -0.2859 -0.0963
 5891W        W 8041   2.276   4.528  25.318 -0.0659 -0.2007 -0.3090
 5892W        W 8042  28.103   0.332  19.480 -0.0505 -0.0721  0.1147
 5893W        W 8043  23.657   2.047  23.501  0.1696 -0.4323  0.0113
 5894W        W 8044   1.002   4.958  15.996 -0.1054  0.1782 -0.1697
 5895W        W 8045   0.542   7.352  24.970  0.1076 -0.0815  0.1354
 5896W        W 8046  22.323   7.068   5.535 -0.1441 -0.0053  0.1175
 5897W        W 8047  24.844   6.938  18.891  0.2003 -0.5452  0.2309
 5898W        W 8048   2.600   7.099   5.686  0.0312 -0.0269 -0.1382
 5899W        W 8049  30.836   7.188  24.370  0.2136  0.1722  0.0674
 5900W        W 8050  20.503   4.353   8.459  0.0905  0.0411 -0.0600
 5901W        W 8051   4.778   0.979  23.171  0.0379  0.0396 -0.4937
 5902W        W 8052  11.561   3.840   8.175  0.1188  0.2249 -0.0911
 5903W        W 8053   0.542   3.670   8.874 -0.2860 -0.2204 -0.1056
 5904W        W 8054   0.803   6.972   6.315  0.1396  0.3358  0.1047
 5905W        W 8055  22.951   5.283  10.131  0.2305 -0.0466  0.0137
 5906W        W 8056  14.955   3.428  24.589 -0.1609  0.1889  0.0857
 5907W        W 8057  12.955   1.475   4.232  0.0115  0.2263  0.0838
 5908W        W 8058  13.100   7.278   0.235 -0.1168 -0.2705  0.0174
 5909W        W 8059  26.812   3.424   9.590 -0.1965  0.2212 -0.0250
 5910W        W 8060  26.355   5.860   0.036  0.0304 -0.0636 -0.2498
 5911W        W 8061   7.471   5.934   1.033  0.0843 -0.0380 -0.1392
 5912W        W 8062  13.045   6.866   1.878  0.0076  0.1495  0.0829
 5913W        W 8063  12.721   2.566  24.613  0.1281 -0.0129 -0.2598
 5914W        W 8064  27.059   5.756   3.190 -0.1683 -0.4150 -0.2876
 5915W        W 8065   9.865   0.412  21.013 -0.2546 -0.0511 -0.0016
 5916W        W 8066  28.726   4.645  17.428 -0.4924  0.1163  0.0564
 5917W        W 8067  18.026   3.896  17.043  0.1464  0.2563 -0.2886
 5918W        W 8068   3.534   5.760  15.894  0.1991  0.1145  0.1157
 5919W        W 8069  26.167   7.032  18.566 -0.0003  0.1187  0.0672
 5920W        W 8070  14.921   0.752   7.402  0.1577 -0.0305 -0.0365
 5921W        W 8071   1.010   1.562   1.006  0.0545 -0.2120  0.2118
 5922W        W 8072   1.915   7.751   4.153  0.0145 -0.0232  0.1759
 5923W        W 8073  16.124   6.058   9.746 -0.2952 -0.0763  0.1333
 5924W        W 8074   3.749   3.443   0.909 -0.1069 -0.1090  0.0884
 5925W        W 8075  22.571   3.180  21.626  0.1381  0.1043 -0.1031
 5926W        W 8076   1.261   0.733  24.736 -0.1949  0.2581  0.1477
 5927W        W 8077  14.103   2.144   6.763 -0.2275  0.2949 -0.0129
 5928W        W 8078  24.041   6.378   4.400  0.2615  0.2463 -0.1220
 5929W        W 8079  26.985   4.290   2.176  0.0366  0.1123 -0.3218
 5930W        W 8080   2.378   7.567  15.974  0.0685  0.1403  0.0943
 5931W        W 8081  13.562   3.528   3.314 -0.1106  0.0439 -0.2263
 5932W        W 8082  17.303   5.112   0.495 -0.0297  0.1842  0.3669
 5933W        W 8083  11.429   5.511   4.659  0.2097 -0.0018 -0.2395
 5934W        W 8084   0.670   5.330  10.319 -0.0587  0.1172  0.3602
 5935W        W 8085  21.839   0.530   2.453  0.0282  0.2416 -0.0080
 5936W        W 8086  29.926   4.281  23.995 -0.0771  0.3234 -0.1353
 5937W        W 8087  13.476   7.354   5.488  0.2803  0.0545 -0.0657
 5938W        W 8088   8.827   6.669  20.994 -0.0678  0.2532 -0.0853
 5939W        W 8089  15.241   0.552  18.519 -0.2029  0.0735  0.0115
 5940W        W 8090  18.593   4.591  15.021 -0.0819 -0.1485 -0.1104
 5941W        W 8091  22.374   7.682   7.810 -0.0336 -0.2383  0.1083
 5942W        W 8092  17.825   2.116   7.851  0.1738 -0.1954 -0.0203
 5943W        W 8093  19.124   6.750   3.279 -0.1836 -0.0555  0.0143
 5944W        W 8094  15.463   1.850  23.559  0.0931  0.0165  0.0509
 5945W        W 8095  29.934   1.635  23.564 -0.2683  0.1588  0.0719
 5946W        W 8096  13.338   3.334  16.496 -0.2472  0.0796  0.1505
 5947W        W 8097   3.569   4.581  17.538  0.1073  0.1817 -0.0906
 5948W        W 8098   0.273   3.150  19.474 -0.0432  0.0861 -0.1307
 5949W        W 8099  23.345   7.072   9.236 -0.1249  0.1916 -0.2491
 5950W        W 8100   0.769   4.867   9.792  0.2176 -0.0493  0.1776
 5951W        W 8101  26.387   4.775   4.168 -0.2223 -0.1848  0.0287
 5952W        W 8102   6.042   4.023  22.433  0.0311 -0.0724 -0.1029
 5953W        W 8103  26.506   6.161  19.412  0.2817 -0.0188  0.0983
 5954W        W 8104  12.638   2.518  21.478  0.0247 -0.0802  0.0632
 5955W        W 8105  14.498   1.892   1.144  0.2242 -0.2943 -0.0531
 5956W        W 8106   3.050   7.420   0.757 -0.1433 -0.3662 -0.3043
 5957W        W 8107   5.390   6.823  21.903  0.4245 -0.1664 -0.1297
 5958W        W 8108  16.369   4.078  25.606  0.0348  0.0668  0.0889
 5959W        W 8109   2.114   3.965   8.104 -0.2219 -0.2550  0.1128
 5960W        W 8110  22.173   6.563   2.790  0.0864 -0.3639 -0.1689
 5961W        W 8111   8.624   0.068   8.262 -0.0059  0.1488  0.1266
 5962W        W 8112  10.685   2.474  10.122  0.2515  0.1357  0.2737
 5963W        W 8113   7.758   0.932   1.457 -0.0464  0.1633  0.0416
 5964W        W 8114  11.663   2.594  20.799  0.0260  0.0006 -0.1984
 5965W        W 8115   5.745   7.250  22.875  0.2184  0.0385 -0.1777
 5966W        W 8116  26.500   6.715  10.155  0.1115 -0.2330  0.0062
 5967W        W 8117  11.609   3.535   3.991 -0.0686  0.0441  0.1632
 5968W        W 8118  12.506   5.432  16.803 -0.0345 -0.0257  0.0257
 5969W        W 8119   2.287   5.095  11.556 -0.1498  0.0381  0.0104
 5970W        W 8120  25.256   0.032   4.697  0.2530  0.2873 -0.1511
 5971W        W 8121  27.358   0.833  19.667 -0.3613 -0.2262  0.2221
 5972W        W 8122   9.438   6.132  23.874  0.0994 -0.0626  0.0270
 5973W        W 8123  15.869   3.828   5.533  0.1805  0.1570 -0.0354
 5974W        W 8124  16.971   2.426   5.613 -0.0337  0.2123  0.1615
 5975W        W 8125  11.089   0.427   6.902  0.1028 -0.3364 -0.3058
 5976W        W 8126  27.528   0.510  20.578 -0.1031 -0.0869  0.2084
 5977W        W 8127  11.433   5.418  15.722  0.0590 -0.0416  0.2415
 5978W        W 8128  30.331   5.805   1.223 -0.1418  0.0168  0.0141
 5979W        W 8129  14.303   7.780  23.905 -0.0288  0.1293 -0.0668
 5980W        W 8130  16.749   0.535  19.180 -0.1229  0.0753 -0.0756
 5981W        W 8131  16.077   7.594   1.271 -0.4642 -0.1149  0.1309
 5982W        W 8132  17.919   4.123  20.203  0.2888  0.1582 -0.2922
 5983W        W 8133  13.256   5.385  18.398 -0.0262  0.1181 -0.0694
 5984W        W 8134   5.459   5.599  25.903 -0.1181 -0.1460  0.1854
 5985W        W 8135  13.458   3.334   7.006  0.0407  0.0523  0.1597
 5986W        W 8136  18.242   3.231  24.369 -0.0757  0.4338  0.1415
 5987W        W 8137   9.624   5.442   7.905 -0.1463 -0.0565  0.2145
 5988W        W 8138  16.804   6.501  24.375 -0.0517 -0.0820 -0.2115
 5989W        W 8139  14.914   0.169  18.692  0.1541  0.0876  0.1818
 5990W        W 8140   7.019   7.572  20.568  0.3718  0.3126 -0.2557
 5991W        W 8141   6.852   2.609  23.899  0.2835  0.2945  0.0180
 5992W        W 8142  29.113   5.867  17.052 -0.2956 -0.1345 -0.0566
 5993W        W 8143  26.613   1.337  22.973 -0.0005  0.0326 -0.1614
 5994W        W 8144  13.207   7.441  21.963  0.1516  0.1851  0.1464
 5995W        W 8145  30.892   4.732   9.560  0.1492 -0.2046 -0.0368
 5996W        W 8146   4.550   7.391   8.245  0.1616  0.1366 -0.0554
 5997W        W 8147  14.098   5.342  24.933 -0.1165 -0.2229  0.0874
 5998W        W 8148   9.761   7.380  10.609  0.1857 -0.0155 -0.3346
 5999W        W 8149  10.509   1.147   0.627  0.1003  0.0586 -0.2561
 6000W        W 8150   3.574   3.012  20.442  0.0408 -0.0358  0.0309
 6001W        W 8151   5.506   1.832   4.411  0.1046 -0.0430 -0.0179
 6002W        W 8152   2.229   2.900  20.099 -0.0112  0.1158 -0.2011
 6003W        W 8153  21.888   3.125  21.108 -0.0539 -0.1018  0.0167
 6004W        W 8154  17.354   1.007  23.290  0.0178 -0.0564  0.1487
 6005W        W 8155  15.208   7.089  23.804 -0.2412 -0.0405 -0.2434
 6006W        W 8156   5.022   4.018  25.103 -0.2615 -0.1035 -0.0592
 6007W        W 8157  25.034   4.963   7.590 -0.0221  0.0091 -0.2357
 6008W        W 8158  13.813   2.217  10.406  0.2721 -0.2326 -0.2762
 6009W        W 8159  11.878   5.111  17.234 -0.0307  0.1999 -0.0681
 6010W        W 8160  17.441   5.808   3.743 -0.2242  0.1511  0.3128
 6011W        W 8161  19.430   0.821   8.728  0.0810 -0.3984  0.1294
 6012W        W 8162  14.460   7.369  22.285 -0.1334  0.1452 -0.2113
 6013W        W 8163   1.962   0.138   8.212  0.1354 -0.1679  0.0957
 6014W        W 8164   3.176   5.219   0.679  0.0086 -0.0484 -0.1474
 6015W        W 8165  24.747   1.157   9.384  0.0898  0.3006  0.0549
 6016W        W 8166   4.397   6.543   9.918  0.0780 -0.2185 -0.2793
 6017W        W 8167   8.766   3.191  23.546 -0.0587 -0.1779  0.0694
 6018W        W 8168  16.144   6.757  18.710 -0.2048 -0.1502  0.0089
 6019W        W 8169  25.563   2.812  10.549  0.0261  0.0199 -0.0378
 6020W        W 8170  16.733   4.192  23.072 -0.2174  0.2412  0.0224
 6021W        W 8171  25.947   1.838  16.905  0.1139 -0.2469 -0.2443
 6022W        W 8172  11.701   7.384   1.470  0.1191  0.0294 -0.1611
 6023W        W 8173  19.860   1.960   4.665  0.1548 -0.0886 -0.0442
 6024W        W 8174  18.788   7.625   4.182 -0.0023 -0.1666 -0.2991
 6025W        W 8175  23.344   4.972   9.954 -0.0886  0.1454 -0.1538
 6026W        W 8176  11.553   4.047  24.785  0.0882 -0.2680  0.2641
 6027W        W 8177  18.347   5.810  10.802  0.1111  0.0732  0.0507
 6028W        W 8178   1.232   3.113  23.172 -0.1523  0.0124 -0.2678
 6029W        W 8179   9.677   1.731  18.320 -0.1216 -0.2824 -0.0675
 6030W        W 8180  18.749   3.823  24.523 -0.0319 -0.1320 -0.2274
 6031W        W 8181  24.248   2.683  16.540  0.1715  0.1320  0.2061
 6032W        W 8182  16.396   7.021  22.973  0.2277 -0.0607  0.0613
 6033W        W 8183  15.757   3.727   3.847  0.0722  0.1833 -0.1292
 6034W        W 8184   3.659   1.405   6.002 -0.2388 -0.0951 -0.2082
 6035W        W 8185   5.918   1.679  15.621  0.1627 -0.1355 -0.1393
 6036W        W 8186  11.730   2.624   6.356  0.0280 -0.0853 -0.0289
 6037W        W 8187  23.384   5.736  21.900  0.2073 -0.0502 -0.3672
 6038W        W 8188   1.949   2.889   7.356  0.0807 -0.0553 -0.1576
 6039W        W 8189  14.052   3.380  15.702  0.1464 -0.1632  0.2458
 6040W        W 8190   6.405   6.305   4.912 -0.0945 -0.1981  0.0672
 6041W        W 8191  25.725   4.467  20.179 -0.2651 -0.1681  0.0087
 6042W        W 8192  29.728   2.769   4.904  0.0215  0.1237  0.0048
 6043W        W 8193   5.793   0.374  17.713  0.2548  0.2268  0.0192
 6044W        W 8194  16.945   6.248  20.760  0.2802  0.0932 -0.0081
 6045W        W 8195   6.134   6.151   6.862  0.1568  0.2129  0.0647
 6046W        W 8196   2.415   0.656  20.620 -0.2742 -0.0153  0.0213
 6047W        W 8197  13.707   6.286  18.638 -0.0389 -0.0521 -0.0558
 6048W        W 8198  29.048   3.551  16.170 -0.0370  0.1800 -0.1417
 6049W        W 8199   4.848   6.706  20.376 -0.0327 -0.1010  0.2912
 6050W        W 8200   9.535   2.050   5.980 -0.1976  0.1016 -0.0203
 6051W        W 8201   1.567   1.435   7.067 -0.0258  0.1441 -0.2018
 6052W        W 8202  29.877   3.493  20.188  0.0139  0.2362  0.3343
 6053W        W 8203   5.215   0.975   4.058  0.2885 -0.2001 -0.2920
 6054W        W 8204  13.563   6.287  22.918 -0.3213  0.0774  0.2217
 6055W        W 8205  17.848   3.635  15.691 -0.0129 -0.2132  0.1595
 6056W        W 8206   0.276   0.185  25.685  0.0890 -0.1395  0.0600
 6057W        W 8207  25.843   0.982   6.689 -0.0048  0.2102  0.0615
 6058W        W 8208   3.939   6.305   9.876  0.0428 -0.1087 -0.0181
 6059W        W 8209  17.754   5.115  22.523 -0.1024  0.0483  0.0636
 6060W        W 8210  25.101   7.720   8.934 -0.0773 -0.4016  0.0789
 6061W        W 8211  27.794   3.949  15.696  0.2093  0.2210 -0.0612
 6062W        W 8212  15.629   1.404   0.026  0.2905  0.1137 -0.0542
 6063W        W 8213  10.809   5.333   9.664 -0.1047 -0.1540  0.0397
 6064W        W 8214  30.326   0.476   4.543  0.1549 -0.2158  0.1633
 6065W        W 8215  14.005   6.006  20.649 -0.2057  0.0873  0.0109
 6066W        W 8216  15.312   7.721  17.148 -0.0397 -0.1186 -0.0340
 6067W        W 8217  20.801   5.031  25.084 -0.3567 -0.1907  0.3141
 6068W        W 8218   6.373   4.340   5.567  0.2636  0.1243  0.0223
 6069W        W 8219  26.085   3.642   9.300 -0.0268  0.1261  0.1938
 6070W        W 8220   1.215   0.122   8.927  0.0214  0.1777 -0.0632
 6071W        W 8221  21.376   2.984  15.595 -0.0526 -0.0304  0.0381
 6072W        W 8222   9.554   6.909  16.209  0.4143  0.0431  0.0383
 6073W        W 8223  25.320   3.363  25.558 -0.1553  0.1361  0.0822
 6074W        W 8224  18.639   5.965  24.483 -0.0802  0.0021  0.0745
 6075W        W 8225  20.542   1.244  25.627 -0.1524 -0.0491  0.1488
 6076W        W 8226  18.065   4.477  21.828 -0.2040  0.0494 -0.1581
 6077W        W 8227  25.747   6.947   9.222 -0.0895 -0.1280 -0.1279
 6078W        W 8228   8.941   4.739   2.101  0.3208  0.1378 -0.1386
 6079W        W 8229  20.343   1.149   1.150  0.2028  0.0431 -0.0562
 6080W        W 8230   1.108   5.861  22.410 -0.2267 -0.1271 -0.0061
 6081W        W 8231  22.607   2.565  10.081 -0.0845 -0.0882  0.3627
 6082W        W 8232  22.188   0.317   9.173  0.2357  0.2251 -0.2330
 6083W        W 8233   7.184   3.747  16.114  0.1838 -0.1940  0.2110
 6084W        W 8234   8.564   4.649   5.157 -0.0378 -0.0603  0.1243
 6085W        W 8235  11.291   6.333   7.902  0.0340 -0.1671  0.1716
 6086W        W 8236  17.146   0.333   4.652  0.1709  0.1732  0.0633
 6087W        W 8237   9.630   1.096  20.214 -0.3349 -0.1656 -0.2012
 6088W        W 8238  10.582   1.510  15.848 -0.0223  0.2477 -0.4487
 6089W        W 8239  16.515   5.725   9.757  0.1615  0.2354 -0.0003
 6090W        W 8240  28.064   5.799   3.149 -0.2136 -0.0541 -0.2456
 6091W        W 8241  14.193   5.238   9.377  0.0428  0.1114 -0.0478
 6092W        W 8242  25.881   3.063  16.980  0.1740  0.1301  0.0397
 6093W        W 8243   0.248   4.472   2.210  0.1976  0.2251 -0.2002
 6094W        W 8244  24.247   7.245  22.608  0.3436  0.1444  0.1460
 6095W        W 8245   6.437   3.643  16.851  0.2729  0.1387 -0.1976
 6096W        W 8246  17.638   1.297  20.621  0.0011 -0.3456  0.1015
 6097W        W 8247  14.396   5.836   6.635  0.0182 -0.3698 -0.2273
 6098W        W 8248  17.231   0.565   1.307  0.4403 -0.1575  0.2780
 6099W        W 8249  27.539   2.606  23.453 -0.0637  0.1419  0.2202
 6100W        W 8250  15.727   6.500  16.532 -0.1005 -0.0242  0.1001
 6101W        W 8251   7.007   3.391  22.058  0.0970  0.1488 -0.2471
 6102W        W 8252   2.225   0.337   9.515  0.0312  0.0586  0.0902
 6103W        W 8253  19.499   6.374   5.582 -0.0793 -0.1584 -0.1430
 6104W        W 8254  24.362   1.428   7.947 -0.1044  0.0445 -0.1991
 6105W        W 8255  12.154   0.757   2.921  0.2186  0.0724  0.3570
 6106W        W 8256  28.351   2.171  10.465  0.0844  0.0848 -0.1934
 6107W        W 8257  19.438   0.442  17.080  0.1860  0.0782  0.0109
 6108W        W 8258  19.262   4.654  19.139  0.2510  0.1377 -0.0699
 6109W        W 8259  15.680   3.232   8.210  0.3109 -0.2017 -0.1034
 6110W        W 8260   1.799   0.930  23.429 -0.0041 -0.3187  0.1757
 6111W        W 8261   6.575   6.518   9.385 -0.0192 -0.1161 -0.0157
 6112W        W 8262  25.677   0.502   7.639 -0.2309  0.1018  0.0963
 6113W        W 8263  10.370   3.179  19.096  0.1348  0.0066  0.0082
 6114W        W 8264  30.068   2.847  11.430  0.2201 -0.2041 -0.1277
 6115W        W 8265  24.048   1.692   9.102  0.0666 -0.0523 -0.0866
 6116W        W 8266  16.253   1.039  24.872  0.0375  0.0420  0.1153
 6117W        W 8267  10.575   4.168   1.246 -0.0596 -0.0652 -0.0150
 6118W        W 8268  13.663   7.095  24.109 -0.0383  0.0036  0.3276
 6119W        W 8269  14.412   1.616  16.057  0.2296 -0.2148  0.1425
 6120W        W 8270   1.690   0.943  17.847 -0.0440 -0.1012 -0.0214
 6121W        W 8271   9.448   2.707   3.677 -0.1728  0.3190 -0.1358
 6122W        W 8272   3.579   1.012   7.373 -0.1873  0.0503 -0.5447
 6123W        W 8273  11.109   5.695   3.413  0.1162 -0.0686 -0.0136
 6124W        W 8274  19.927   2.391   2.794  0.1864  0.1426 -0.2401
 6125W        W 8275   7.451   4.567   6.184 -0.0936 -0.1296 -0.1582
 6126W        W 8276  28.693   0.102   1.718 -0.2822  0.1226  0.0761
 6127W        W 8277  30.733   6.137   5.141  0.0043 -0.0410 -0.2485
 6128W        W 8278   8.426   5.342   0.281 -0.1279 -0.1466  0.0452
 6129W        W 8279  14.431   0.596   4.979 -0.0304  0.2085 -0.0154
 6130W        W 8280  16.165   3.019  16.618 -0.1414 -0.1700  0.0248
 6131W        W 8281  20.624   2.341  10.628  0.0503  0.0839  0.1824
 6132W        W 8282  26.232   0.327  17.995 -0.0353 -0.1905  0.1523
 6133W        W 8283  10.898   0.836   3.341 -0.0205 -0.1304  0.0650
 6134W        W 8284   9.512   7.482   7.582 -0.0942 -0.2071  0.2673
 6135W        W 8285   7.906   7.040  16.950 -0.2656  0.1514  0.1781
 6136W        W 8286  24.508   6.163  20.845 -0.1689 -0.0419  0.0346
 6137W        W 8287   9.553   4.020   7.590  0.0111 -0.2210 -0.2498
 6138W        W 8288  18.132   4.371  16.781 -0.2200 -0.2882  0.1951
 6139W        W 8289  25.717   2.912  21.244 -0.0940 -0.0527 -0.0045
 6140W        W 8290  19.047   4.045  19.187  0.0860 -0.1094 -0.2406
 6141W        W 8291  22.944   1.749  19.317 -0.0039 -0.3335  0.0672
 6142W        W 8292  27.335   2.931   2.443  0.0783 -0.1925  0.3264
 6143W        W 8293   6.353   1.979   5.922  0.0451  0.1475 -0.2319
 6144W        W 8294  12.009   4.962  18.850  0.1664 -0.1479  0.2274
 6145W        W 8295   8.275   1.274   8.791 -0.0553  0.2187 -0.0346
 6146W        W 8296  29.967   2.898  26.375 -0.3027  0.6375  0.0788
 6147W        W 8297  30.478   5.275   9.655 -0.0266 -0.0019 -0.0654
 6148W        W 8298   9.402   6.431   5.839 -0.1819 -0.1424 -0.0968
 6149W        W 8299  15.444   0.230   9.407 -0.1768  0.1105  0.1562
 6150W        W 8300   0.537   4.443  26.336  0.0033  0.2001  0.2825
 6151W        W 8301  21.653   1.136   6.488  0.0528  0.1359 -0.1709
 6152W        W 8302   6.026   4.217   3.906 -0.2272  0.0300  0.1640
 6153W        W 8303   3.823   4.015   3.911 -0.1390  0.2168 -0.2153
 6154W        W 8304   6.066   6.898  10.375 -0.0642  0.0988 -0.0113
 6155W        W 8305   8.606   2.956  11.157 -0.0175  0.1727  0.0087
 6156W        W 8306   2.180   0.465  24.568 -0.0691  0.0467 -0.0216
 6157W        W 8307  12.047   0.983   5.189 -0.1402  0.0743 -0.0336
 6158W        W 8308  12.770   6.589  25.609  0.1029 -0.0028  0.0573
 6159W        W 8309   7.284   0.833  19.619 -0.3513 -0.0278  0.1357
 6160W        W 8310   8.114   6.111   0.420  0.0852 -0.1414 -0.1064
 6161W        W 8311  15.104   4.226   8.990  0.1091 -0.0479  0.3500
 6162W        W 8312  16.237   0.582  19.986  0.2184  0.2670  0.4787
 6163W        W 8313  11.567   6.033   2.598  0.3201 -0.3655 -0.2012
 6164W        W 8314  17.628   0.612  17.231 -0.0319 -0.1597 -0.1263
 6165W        W 8315  22.108   3.395   0.866  0.2880 -0.0254 -0.1811
 6166W        W 8316  17.962   2.514  16.650  0.0872  0.0658  0.1009
 6167W        W 8317  30.067   5.982   2.032 -0.2206 -0.1694 -0.0778
 6168W        W 8318   5.806   1.363  20.551  0.1522 -0.3210 -0.0174
 6169W        W 8319   6.021   3.881  22.915  0.1207 -0.1409  0.1416
 6170W        W 8320  11.223   5.046   5.755 -0.0831  0.1090  0.1769
 6171W        W 8321  23.855   5.011   6.466 -0.3530  0.2476  0.1577
 6172W        W 8322  25.061   3.898  25.055 -0.2956  0.2820 -0.0519
 6173W        W 8323  24.626   4.198   2.823  0.0235  0.1022 -0.1607
 6174W        W 8324   6.939   4.845   3.746 -0.0874 -0.2885  0.2377
 6175W        W 8325   6.693   7.109   7.626  0.2840  0.0582  0.4184
 6176W        W 8326  29.281   5.693  20.085  0.0398  0.1844 -0.0422
 6177W        W 8327   2.996   0.618  18.939 -0.0365  0.1114  0.4761
 6178W        W 8328  30.841   5.787   8.742  0.0161 -0.4099  0.2668
 6179W        W 8329  16.130   1.862   4.039  0.1476  0.1395  0.1124
 6180W        W 8330  27.389   7.403  25.502  0.0305 -0.3809  0.0392
 6181W        W 8331   5.883   6.294   8.384 -0.1007 -0.0694  0.1693
 6182W        W 8332  19.612   2.645  26.303  0.0763 -0.0568  0.2829
 6183W        W 8333  19.002   4.678   6.016  0.1663 -0.1570 -0.3586
 6184W        W 8334   8.747   4.087  24.917 -0.2064  0.1756 -0.1892
 6185W        W 8335   4.954   7.500  24.788  0.1456  0.1718  0.3555
 6186W        W 8336  19.848   0.586  10.627 -0.1515  0.1284  0.2385
 6187W        W 8337  24.813   4.799  22.988 -0.0170  0.0932  0.0764
 6188W        W 8338  30.196   7.252  21.392 -0.1138 -0.1199  0.1091
 6189W        W 8339   0.304   2.965  17.763 -0.1575 -0.0262  0.2408
 6190W        W 8340  19.914   4.833   6.388  0.1337 -0.0130  0.0604
 6191W        W 8341  30.682   1.928  10.040  0.1754  0.2518  0.4049
 6192W        W 8342  19.514   4.551  25.267 -0.3436  0.2578  0.4462
 6193W        W 8343  28.561   1.062  24.791  0.0967  0.0760  0.0182
 6194W        W 8344  17.605   0.817   9.358  0.1301 -0.0089  0.0111
 6195W        W 8345   0.320   5.654   5.236 -0.0826 -0.1609  0.0956
 6196W        W 8346   5.902   5.160  10.161  0.1993 -0.1711  0.0606
 6197W        W 8347  26.130   5.922   5.314  0.0637  0.1411  0.2058
 6198W        W 8348  26.867   6.621   8.625 -0.0913 -0.2873 -0.2502
 6199W        W 8349  26.015   0.654   4.643 -0.2774 -0.3139  0.0846
 6200W        W 8350  14.881   2.302  15.871  0.3855  0.0888  0.0621
 6201W        W 8351  22.880   7.650   0.812  0.0493  0.0611  0.2462
 6202W        W 8352  16.979   7.102   7.252  0.0455  0.0421  0.0324
 6203W        W 8353  25.145   5.239  21.319  0.1042  0.0450  0.0188
 6204W        W 8354  24.497   6.442  18.259  0.1317  0.1383  0.0540
 6205W        W 8355  25.456   6.859  17.021  0.0336 -0.3881  0.0702
 6206W        W 8356  26.539   3.745  23.062  0.0474  0.1119  0.0233
 6207W        W 8357   2.153   7.294  15.450  0.1055  0.2073 -0.1226
 6208W        W 8358  19.501   4.575  10.398 -0.0114  0.0995  0.4769
 6209W        W 8359  30.492   0.243  20.959 -0.0663 -0.0271 -0.2815
 6210W        W 8360   1.057   0.444  26.133  0.3496  0.1358 -0.1418
 6211W        W 8361   3.157   7.407   1.780  0.0467 -0.1858 -0.2532
 6212W        W 8362  26.248   5.670  19.469 -0.0623 -0.0288 -0.0054
 6213W        W 8363  26.851   7.372  25.583  0.2771 -0.1098 -0.2924
 6214W        W 8364  26.893   2.551   8.946 -0.0766  0.2966 -0.1909
 6215W        W 8365   3.605   6.760  22.546 -0.1906 -0.1989 -0.0741
 6216W        W 8366  29.122   2.765  10.168 -0.2153  0.1687  0.0800
 6217W        W 8367  23.805   4.081  25.947  0.1049 -0.0584  0.0139
 6218W        W 8368  26.517   4.916   1.823 -0.2897 -0.2147  0.0649
 6219W        W 8369  11.210   0.345   4.893  0.1303 -0.0540 -0.0612
 6220W        W 8370   2.328   0.151  23.323 -0.0425  0.0509  0.0304
 6221W        W 8371   9.277   5.239  25.111 -0.1402 -0.5656 -0.0976
 6222W        W 8372  20.748   1.373  15.839 -0.0142  0.1001 -0.1583
 6223W        W 8373  16.743   5.576   2.352 -0.5575 -0.2029 -0.1392
 6224W        W 8374  20.695   6.733  26.340 -0.1263  0.2380  0.0361
 6225W        W 8375  13.220   2.481   6.561  0.1986 -0.0903  0.2727
 6226W        W 8376  25.581   1.566  16.500 -0.1299 -0.0010  0.2658
 6227W        W 8377   4.108   7.228  17.391  0.0857  0.0554  0.1186
 6228W        W 8378  29.236   7.692  25.499  0.0398  0.1486 -0.1133
 6229W        W 8379  20.990   2.985  18.767  0.2426  0.1740 -0.3201
 6230W        W 8380  21.538   4.633   3.963  0.1110  0.0428 -0.3555
 6231W        W 8381  22.274   2.477   3.376  0.0230  0.1665 -0.2334
 6232W        W 8382  15.579   0.564  22.006  0.0729  0.0463  0.0901
 6233W        W 8383  25.091   6.168   8.704  0.2247  0.0449  0.2404
 6234W        W 8384  20.523   4.624  23.015  0.1169  0.0813  0.0679
 6235W        W 8385  20.420   2.484  21.294 -0.0647 -0.1055  0.1782
 6236W        W 8386  10.015   6.477  20.539 -0.0556 -0.0879 -0.0821
 6237W        W 8387   8.675   2.670   4.268 -0.0339 -0.0167  0.0267
 6238W        W 8388  11.185   1.279  21.207  0.2863  0.1298  0.0948
 6239W        W 8389  14.139   7.791  25.645  0.5497 -0.1635  0.0984
 6240W        W 8390  19.255   2.956   1.117 -0.1056 -0.2315  0.1841
 6241W        W 8391   5.248   6.129  24.090  0.1300 -0.0454 -0.1526
 6242W        W 8392  17.700   6.790  18.661  0.5011 -0.0058  0.1317
 6243W        W 8393  13.837   4.143  23.998  0.0293  0.1228  0.2778
 6244W        W 8394  26.894   1.573   4.804  0.3030  0.0518  0.2491
 6245W        W 8395  29.301   2.946   4.726 -0.2940  0.0050  0.1318
 6246W        W 8396  20.834   6.483  17.660 -0.1577  0.0106  0.0254
 6247W        W 8397  25.690   5.150  21.247  0.0455 -0.0286 -0.0917
 6248W        W 8398  12.785   5.744   3.629  0.1664 -0.0719 -0.0700
 6249W        W 8399  29.011   6.127  22.287 -0.0330  0.0685 -0.1385
 6250W        W 8400  27.007   4.584   9.045  0.1818  0.1194 -0.0047
 6251W        W 8401  27.113   7.474   1.808  0.0463 -0.0784  0.0868
 6252W        W 8402   9.749   7.068  23.998  0.1777  0.0906  0.1623
 6253W        W 8403  14.915   2.294   5.642 -0.0800 -0.1196  0.0984
 6254W        W 8404  25.170   5.288  18.824  0.0974  0.0402  0.0333
 6255W        W 8405  30.208   5.166  17.033  0.0864  0.0637  0.3999
 6256W        W 8406   4.764   6.791  21.819 -0.1702 -0.1354 -0.3192
 6257W        W 8407  11.080   4.112  17.127 -0.1260  0.1810  0.0519
 6258W        W 8408  26.549   0.316  19.441  0.1984 -0.3545 -0.0351
 6259W        W 8409  28.184   0.642  16.405 -0.0526  0.1662 -0.0523
 6260W        W 8410   7.832   0.867  19.710 -0.1439  0.2655  0.2474
 6261W        W 8411   3.821   5.650   3.105  0.0893 -0.2451  0.1471
 6262W        W 8412  17.363   3.859   2.014 -0.0264 -0.2006 -0.1360
 6263W        W 8413  19.657   1.906  25.403 -0.0575 -0.3022  0.1732
 6264W        W 8414  23.751   4.072   6.599 -0.0564 -0.2583 -0.1015
 6265W        W 8415  18.840   6.606   4.847 -0.1841 -0.1268 -0.0646
 6266W        W 8416  18.636   3.056   2.379 -0.1618 -0.0719  0.0504
 6267W        W 8417  11.462   2.313   5.139 -0.2078  0.1384  0.2249
 6268W        W 8418  19.170   2.042   9.543 -0.1733 -0.1767  0.0161
 6269W        W 8419  12.850   0.853   7.139  0.1785  0.2691  0.2087
 6270W        W 8420   4.879   2.263  15.076 -0.1094  0.0197  0.4558
 6271W        W 8421   1.750   4.340   5.323 -0.1269 -0.2714  0.0267
 6272W        W 8422  20.331   1.249   8.738  0.0177 -0.0706 -0.0038
 6273W        W 8423  11.566   5.144  26.369  0.1609 -0.2466 -0.0419
 6274W        W 8424  26.177   7.594  17.996  0.2028 -0.0013  0.0537
 6275W        W 8425   8.866   0.850   6.817  0.1320  0.0176 -0.4155
 6276W        W 8426   1.711   2.461  21.208  0.3666 -0.1149  0.0026
 6277W        W 8427  10.910   0.938  20.727 -0.0156 -0.2124  0.0848
 6278W        W 8428  19.714   0.181  24.247  0.1206  0.0716  0.1147
 6279W        W 8429  16.609   3.186   3.638  0.2466 -0.1631  0.0063
 6280W        W 8430   6.154   4.709   4.419  0.1776 -0.1788 -0.0827
 6281W        W 8431   4.842   5.674  17.358 -0.1907 -0.2400  0.0669
 6282W        W 8432  25.584   1.069   3.615 -0.1118  0.0830 -0.3376
 6283W        W 8433  30.325   2.335   4.430  0.2497 -0.1927  0.1033
 6284W        W 8434   4.844   7.150  18.315 -0.3770  0.1686  0.1033
 6285W        W 8435   4.727   4.302   8.316  0.1394  0.0981  0.2705
 6286W        W 8436   9.901   0.026   2.188  0.2909  0.0874 -0.0567
 6287W        W 8437   7.283   5.243   6.291  0.1748 -0.0671  0.0804
 6288W        W 8438  30.894   1.987  15.783  0.1691  0.0675 -0.1961
 6289W        W 8439  26.388   4.883  24.055  0.0159  0.2207 -0.0018
 6290W        W 8440  25.824   6.670  23.462 -0.1013 -0.0380 -0.2976
 6291W        W 8441  28.907   0.795   5.493  0.1087  0.0150  0.0383
 6292W        W 8442  18.197   6.936   2.281 -0.0346  0.3091 -0.2169
 6293W        W 8443  26.367   1.267  11.330  0.0198 -0.3473  0.1756
 6294W        W 8444  17.702   6.138  21.158 -0.0919 -0.0430 -0.0194
 6295W        W 8445  22.592   0.492  22.670  0.1708  0.1297 -0.1464
 6296W        W 8446  10.520   3.984  22.008 -0.0191  0.0100 -0.2529
 6297W        W 8447  25.612   5.745  20.606  0.2937 -0.1862 -0.2014
 6298W        W 8448  23.491   3.120   2.372  0.1382  0.1243 -0.1986
 6299W        W 8449  10.896   6.779  19.516 -0.2634  0.2109  0.2694
 6300W        W 8450   9.139   1.517  26.061 -0.0364  0.2903 -0.1112
 6301W        W 8451   2.511   2.308   0.166 -0.0835 -0.1537 -0.0846
 6302W        W 8452   3.583   5.491   2.106  0.0803 -0.1339  0.0650
 6303W        W 8453  18.444   5.809   1.301  0.0205  0.3440 -0.0919
 6304W        W 8454   2.766   3.831  21.086 -0.0387  0.0877 -0.0279
 6305W        W 8455  10.286   6.213   2.010 -0.0301 -0.0404 -0.2016
 6306W        W 8456   1.319   6.585   8.886  0.0702 -0.0702 -0.3543
 6307W        W 8457  18.117   1.491  17.078  0.2315  0.0206  0.0343
 6308W        W 8458  21.403   1.434   1.566  0.2132 -0.0050 -0.1743
 6309W        W 8459  26.329   4.151   7.998  0.0326  0.0615  0.0511
 6310W        W 8460  26.719   7.716  19.110  0.0736 -0.0348  0.1890
 6311W        W 8461  26.841   3.107  24.347  0.0203  0.0804 -0.0161
 6312W        W 8462  14.273   5.923   6.145  0.1156  0.0073 -0.3191
 6313W        W 8463  10.762   3.329  16.871 -0.1186 -0.1521 -0.0411
 6314W        W 8464  16.642   0.732  18.731  0.1667  0.0704  0.0905
 6315W        W 8465   1.930   3.409   7.316 -0.1410  0.1556  0.0510
 6316W        W 8466  23.136   3.615  17.364 -0.1493  0.0831 -0.0048
 6317W        W 8467  25.795   5.882  22.240  0.1867 -0.0034 -0.2199
 6318W        W 8468  21.568   0.764  20.889  0.2307 -0.0235  0.2083
 6319W        W 8469   1.765   3.836   9.052 -0.1544  0.0117  0.0677
 6320W        W 8470  17.058   4.317   4.289 -0.1337  0.1034  0.0778
 6321W        W 8471   1.856   2.014  21.477 -0.1058  0.2136  0.1806
 6322W        W 8472  24.817   0.227   0.279 -0.1287  0.3089 -0.0010
 6323W        W 8473  28.776   5.922   6.684 -0.1377 -0.1603  0.2787
 6324W        W 8474  13.942   7.215   4.574  0.1034  0.4577  0.0780
 6325W        W 8475  16.678   5.821  10.245 -0.2799 -0.0937 -0.2373
 6326W        W 8476   0.325   5.369   7.522  0.1867 -0.0228  0.0073
 6327W        W 8477  26.504   2.857   0.323  0.0942 -0.0413 -0.0653
 6328W        W 8478  11.451   6.424   9.532  0.2717 -0.0733 -0.0252
 6329W        W 8479  14.787   7.381  22.640 -0.2397 -0.0298  0.1859
 6330W        W 8480  16.949   3.979  16.195 -0.1729  0.2292  0.0627
 6331W        W 8481   9.727   4.557  23.109  0.2603  0.0639 -0.1044
 6332W        W 8482  11.036   1.581   8.720 -0.2546  0.0791  0.2643
 6333W        W 8483  28.639   6.093  25.247 -0.0112 -0.4812  0.1578
 6334W        W 8484  18.903   1.771   8.314  0.2511 -0.5221 -0.1606
 6335W        W 8485  23.409   2.371  18.218  0.0559 -0.2460 -0.1755
 6336W        W 8486  30.814   6.019  22.941 -0.0076 -0.0698  0.0458
 6337W        W 8487   4.274   0.862  16.567  0.1154  0.3619 -0.0213
 6338W        W 8488  19.765   3.352  10.446  0.1836  0.0940 -0.5597
 6339W        W 8489  29.096   4.738  21.187 -0.2326  0.0723  0.1279
 6340W        W 8490  14.066   2.299   8.240  0.1191  0.1868  0.1606
 6341W        W 8491  16.413   5.744  18.377 -0.1408  0.0636  0.1157
 6342W        W 8492   5.348   3.543  23.906 -0.3223  0.0914  0.3390
 6343W        W 8493  15.285   5.559  10.373  0.0147  0.3385 -0.1439
 6344W        W 8494   0.611   0.051   3.258  0.4260 -0.0848 -0.0041
 6345W        W 8495   6.469   0.491  20.786  0.2526 -0.0340  0.3167
 6346W        W 8496  21.246   3.487   0.405  0.2768  0.1812  0.0316
 6347W        W 8497   6.673   3.287   2.168 -0.1082  0.1733 -0.4050
 6348W        W 8498   0.567   3.159   7.277 -0.2293  0.0983 -0.0805
 6349W        W 8499  18.703   5.663  18.084 -0.0901  0.0735 -0.1450
 6350W        W 8500  21.642   2.779  17.570  0.0593 -0.0706 -0.3091
 6351W        W 8501   2.302   7.294  18.067 -0.0605 -0.0108 -0.0051
 6352W        W 8502   0.692   6.579  22.315  0.0454 -0.0929  0.0176
 6353W        W 8503  10.847   1.923  19.804  0.2769  0.2571  0.1749
 6354W        W 8504   2.234   0.725  15.648  0.1516  0.0327  0.1689
 6355W        W 8505   2.590   6.674   6.045 -0.0781 -0.2798 -0.1541
 6356W        W 8506   1.701   4.025   9.788 -0.1492 -0.0061  0.4168
 6357W        W 8507  21.981   0.440  11.100  0.0754  0.1249 -0.0828
 6358W        W 8508  23.420   3.855  16.065 -0.0697 -0.1120  0.1167
 6359W        W 8509  19.396   6.483  17.109  0.1062 -0.1323 -0.1666
 6360W        W 8510   5.044   3.620  26.274  0.1579  0.0510  0.1076
 6361W        W 8511   5.186   3.969  16.023 -0.0171  0.2661  0.0461
 6362W        W 8512   0.227   2.719   7.962  0.3011  0.1010 -0.1938
 6363W        W 8513  13.905   0.629   6.978  0.2241 -0.1217  0.1780
 6364W        W 8514  28.802   2.916  22.584 -0.2038  0.2683 -0.1734
 6365W        W 8515  16.703   6.809   8.808 -0.0480  0.1450 -0.0618
 6366W        W 8516   2.581   0.117  20.496 -0.0142 -0.0001  0.2922
 6367W        W 8517  29.202   1.824  23.704 -0.1122  0.0433  0.3951
 6368W        W 8518  14.342   2.131  18.028  0.0227 -0.0677  0.0591
 6369W        W 8519  29.783   6.344  21.606 -0.1454  0.0038 -0.0924
 6370W        W 8520  13.244   0.477  23.183 -0.1652 -0.1627  0.1624
 6371W        W 8521  10.793   3.155  20.315 -0.1943 -0.2232  0.0986
 6372W        W 8522  12.774   3.829  23.323  0.0709  0.2047 -0.3500
 6373W        W 8523  13.063   1.040  25.451  0.0215  0.2249 -0.1129
 6374W        W 8524   0.408   6.532   9.573 -0.0273 -0.0716  0.0253
 6375W        W 8525  24.284   0.412   3.940  0.0729  0.4474 -0.0681
 6376W        W 8526   9.218   6.065  10.948 -0.0955 -0.1169  0.1676
 6377W        W 8527  10.811   1.778  17.818 -0.3159 -0.0140  0.0959
 6378W        W 8528  13.022   6.946  17.091  0.0815 -0.1323  0.3040
 6379W        W 8529  15.543   1.562  21.167 -0.0148 -0.2184 -0.1687
 6380W        W 8530   8.566   2.736   6.027  0.0527  0.1293 -0.1239
 6381W        W 8531  23.340   1.021  20.217  0.2022  0.0610 -0.1809
 6382W        W 8532  21.858   4.140   4.920  0.3231 -0.1973 -0.1374
 6383W        W 8533  26.930   1.815  24.425 -0.1256  0.0741  0.2694
 6384W        W 8534  29.430   5.944  26.224  0.2047 -0.0675 -0.2953
 6385W        W 8535  11.982   4.535   2.009 -0.1562  0.0300  0.0237
 6386W        W 8536  30.352   5.611   3.803 -0.1008  0.0770 -0.0787
 6387W        W 8537   2.659   6.543  23.646  0.5679  0.1908 -0.0541
 6388W        W 8538  10.371   3.513  25.739 -0.2640  0.0832 -0.1462
 6389W        W 8539   4.007   3.911  16.946  0.0776 -0.1752  0.3539
 6390W        W 8540  10.585   0.515  19.144  0.0001  0.1424  0.0830
 6391W        W 8541  23.744   2.102   9.387 -0.0315  0.0619 -0.0559
 6392W        W 8542  24.878   6.738   6.550  0.5023 -0.0410 -0.0799
 6393W        W 8543  24.972   6.914   1.706 -0.2359  0.0524  0.2385
 6394W        W 8544  29.808   0.895  24.474  0.2312 -0.0240 -0.0333
 6395W        W 8545  21.038   0.577  20.415  0.0090 -0.0308 -0.5424
 6396W        W 8546   6.610   0.150   3.245 -0.1488 -0.0337 -0.0732
 6397W        W 8547   0.226   0.364   1.326 -0.1491 -0.3290  0.0529
 6398W        W 8548  30.727   6.693   9.909 -0.1417  0.2930  0.1304
 6399W        W 8549   4.797   1.978  24.993  0.2477 -0.1663 -0.2212
 6400W        W 8550   0.140   0.254  19.012 -0.5836  0.0964 -0.1821
 6401W        W 8551   1.636   5.126  26.283  0.1632  0.0186 -0.0117
 6402W        W 8552  12.849   5.465  21.015 -0.0494  0.1025  0.0710
 6403W        W 8553  15.641   2.750  16.412  0.0507 -0.2480  0.0953
 6404W        W 8554   9.219   3.051   0.412  0.1761  0.1356  0.0291
 6405W        W 8555  21.339   0.819  24.104  0.0398 -0.0526  0.0441
 6406W        W 8556  21.194   4.983   2.999 -0.2599  0.0007 -0.2445
 6407W        W 8557  17.108   5.200  24.150  0.0249 -0.3836 -0.0888
 6408W        W 8558  20.063   3.402   8.346 -0.1002  0.2211 -0.0308
 6409W        W 8559   7.939   4.457  18.477  0.0197 -0.2262 -0.1243
 6410W        W 8560   2.534   6.499   9.984 -0.1530 -0.1208 -0.4961
 6411W        W 8561   7.793   3.522  22.901  0.0484  0.2100  0.4050
 6412W        W 8562   8.258   2.004   8.971 -0.0066  0.0943 -0.1965
 6413W        W 8563   1.508   5.150  18.345  0.0554 -0.0389  0.1116
 6414W        W 8564  21.342   1.397  16.534 -0.0261 -0.1687 -0.1769
 6415W        W 8565   3.089   2.884   3.994  0.2007 -0.2051  0.1534
 6416W        W 8566  23.456   1.646   7.479  0.3754  0.0370  0.1368
 6417W        W 8567  23.502   1.725  17.421  0.0754 -0.0456  0.1454
 6418W        W 8568  10.167   0.097  17.425  0.3456  0.0044 -0.2451
 6419W        W 8569  24.507   2.954   6.926  0.1186 -0.1466 -0.0074
 6420W        W 8570  18.393   4.252   5.096  0.2008  0.1078 -0.0900
 6421W        W 8571  18.563   4.995  20.844 -0.1644  0.0945  0.0363
 6422W        W 8572  12.040   7.304  21.169  0.2203 -0.0462 -0.1076
 6423W        W 8573  21.974   3.665  24.140  0.2935  0.1375 -0.3195
 6424W        W 8574   5.308   2.319   8.957 -0.1005 -0.2514  0.2652
 6425W        W 8575   8.800   4.330  20.358  0.4818  0.2865 -0.2242
 6426W        W 8576  25.121   1.082   2.384 -0.0995  0.0336 -0.0805
 6427W        W 8577  18.157   4.465   6.595  0.0027  0.1289  0.0311
 6428W        W 8578   5.257   1.156  23.680  0.0046  0.0752  0.0431
 6429W        W 8579  20.981   3.210  18.293 -0.0001 -0.1380  0.1527
 6430W        W 8580  13.445   0.105   3.979 -0.0980 -0.2398  0.0616
 6431W        W 8581   8.788   6.350  19.139  0.3282  0.1060 -0.0698
 6432W        W 8582  24.744   2.161   0.728  0.3632  0.0023  0.4259
 6433W        W 8583  20.181   6.613  19.283 -0.3967 -0.0390 -0.2077
 6434W        W 8584  21.468   1.959  22.508  0.3295 -0.0528  0.0093
 6435W        W 8585  19.522   0.087   7.901  0.1717 -0.1218  0.4175
 6436W        W 8586  24.092   4.034   7.083 -0.0821 -0.2298  0.1582
 6437W        W 8587   9.541   0.266   6.399 -0.1895 -0.2166  0.0084
 6438W        W 8588  26.161   2.919   1.074  0.0172 -0.0259 -0.1713
 6439W        W 8589  15.729   7.245  21.165  0.4681 -0.1859  0.2296
 6440W        W 8590  26.996   0.219  24.414  0.0826 -0.0559  0.1918
 6441W        W 8591  15.630   5.555  24.482 -0.2050  0.0280 -0.1378
 6442W        W 8592  26.287   3.774  23.502  0.3467 -0.0371 -0.0272
 6443W        W 8593  20.282   6.115   3.658 -0.2787  0.1108  0.2491
 6444W        W 8594  17.692   7.642   5.245  0.0849  0.1147  0.3192
 6445W        W 8595  13.780   0.295  15.991  0.2415 -0.2579 -0.1559
 6446W        W 8596  18.811   1.318   0.142 -0.1597 -0.1080 -0.0896
 6447W        W 8597  17.927   3.571   7.918  0.2509 -0.2270  0.0292
 6448W        W 8598   3.125   0.330  20.398 -0.0213 -0.0360  0.0423
 6449W        W 8599   4.894   5.509  21.847  0.0104  0.0898 -0.1558
 6450W        W 8600   0.667   6.079  22.281  0.1932 -0.1800  0.1905
 6451W        W 8601  30.743   6.793  15.920 -0.2486 -0.0139  0.1822
 6452W        W 8602  11.759   4.967   9.002  0.0614  0.0852 -0.0904
 6453W        W 8603  25.584   5.591  18.228 -0.0483 -0.0005 -0.0058
 6454W        W 8604  17.826   5.950  15.952  0.0979 -0.1469  0.0165
 6455W        W 8605   7.505   7.641  24.241  0.0915  0.1653 -0.0406
 6456W        W 8606  23.017   5.738  10.013 -0.1324  0.1219  0.0679
 6457W        W 8607   6.795   0.663  18.905 -0.0187  0.2232 -0.0240
 6458W        W 8608  10.715   6.712   6.054  0.1563  0.1383 -0.0596
 6459W        W 8609   5.735   5.191  19.694 -0.0605 -0.1476 -0.1904
 6460W        W 8610   8.500   4.757   7.438  0.1621  0.2010 -0.3402
 6461W        W 8611  18.309   7.124  20.501 -0.1894  0.1299 -0.2144
 6462W        W 8612  10.727   7.614   9.842  0.4221  0.1353 -0.1780
 6463W        W 8613  17.857   3.310   9.772 -0.0267  0.4682  0.1654
 6464W        W 8614  27.434   3.090  23.663  0.1175 -0.1698 -0.2295
 6465W        W 8615   1.460   2.686  18.162 -0.0469  0.1166  0.1305
 6466W        W 8616   7.922   5.716   4.907 -0.0050 -0.1940  0.2113
 6467W        W 8617  11.042   2.252   4.240 -0.1584  0.0202 -0.2886
 6468W        W 8618  24.625   0.220  25.508 -0.1487  0.1234 -0.0759
 6469W        W 8619  15.429   2.851   4.858  0.1835  0.2995  0.2415
 6470W        W 8620  21.003   3.390  23.324 -0.1960  0.4055 -0.1217
 6471W        W 8621   1.808   1.855   9.523  0.0820 -0.1556  0.2698
 6472W        W 8622   8.461   1.986   1.149 -0.1006 -0.1188 -0.0420
 6473W        W 8623  19.645   6.181   4.830 -0.1282  0.0464 -0.1102
 6474W        W 8624  17.978   6.277  25.030 -0.1736  0.0183 -0.2283
 6475W        W 8625  20.091   4.962   0.504  0.0078  0.1372  0.1692
 6476W        W 8626   6.042   3.636   0.087  0.2951 -0.1068  0.1805
 6477W        W 8627  18.628   6.673  23.223  0.2288  0.1344  0.1097
 6478W        W 8628   9.927   4.419  26.053  0.0626  0.1236  0.1642
 6479W        W 8629  19.325   0.340   1.360  0.2844 -0.1068  0.1115
 6480W        W 8630   0.478   4.552  24.812  0.0990  0.0616 -0.0338
 6481W        W 8631  20.518   5.187   2.336 -0.0249 -0.1785  0.0946
 6482W        W 8632  14.332   0.760   1.592  0.0231  0.0294  0.0325
 6483W        W 8633  30.015   0.022  25.960 -0.3433  0.0266 -0.1436
 6484W        W 8634  29.662   4.739  15.197 -0.0670 -0.3909 -0.1210
 6485W        W 8635  15.706   1.527  25.648  0.0584  0.0381  0.2117
 6486W        W 8636  17.615   4.450  23.864 -0.1836  0.0713 -0.4091
 6487W        W 8637  11.003   1.083   0.424 -0.1393 -0.1219 -0.2476
 6488W        W 8638  28.033   0.427  20.347  0.3308  0.1810  0.3153
 6489W        W 8639  14.284   5.982  21.675  0.1138  0.1395 -0.0842
 6490W        W 8640   9.794   0.763   7.780 -0.2078 -0.0679  0.1242
 6491W        W 8641   1.004   2.743   8.668 -0.2570  0.0114  0.0941
 6492W        W 8642  18.011   5.459   9.474 -0.0402  0.3530  0.0341
 6493W        W 8643  22.684   0.825  24.204  0.0206 -0.0956 -0.4806
 6494W        W 8644  21.989   4.238   5.655  0.1913  0.1093 -0.0925
 6495W        W 8645  19.708   1.911   1.498  0.1096 -0.0887  0.2305
 6496W        W 8646  23.556   6.710  23.111  0.1807 -0.0208 -0.1671
 6497W        W 8647   7.205   6.423   4.806 -0.2388  0.0408  0.3449
 6498W        W 8648  16.431   5.351  21.545  0.1349 -0.0127 -0.0799
 6499W        W 8649  17.017   0.890  18.131  0.1011 -0.1125  0.2588
 6500W        W 8650   0.534   4.284   9.214 -0.1883  0.3595  0.0173
 6501W        W 8651  28.635   5.402   9.293 -0.1521 -0.3418 -0.1180
 6502W        W 8652   1.646   6.691  22.077 -0.2537  0.0237 -0.2753
 6503W        W 8653  24.804   5.968  15.317  0.1182  0.0816  0.0388
 6504W        W 8654  26.534   6.407   1.698  0.0180  0.5943  0.0651
 6505W        W 8655  12.821   0.800   0.608 -0.1188  0.0218 -0.0450
 6506W        W 8656  19.900   1.131   2.319 -0.1910 -0.2143  0.1412
 6507W        W 8657  19.647   3.574  20.161  0.1637 -0.1817 -0.2782
 6508W        W 8658  21.342   2.826   5.704 -0.0237 -0.0888  0.1266
 6509W        W 8659  11.714   1.771   1.786 -0.2262  0.1714  0.2575
 6510W        W 8660  23.565   6.768  17.022 -0.1575 -0.0796  0.0589
 6511W        W 8661  19.881   4.252  15.591 -0.1678  0.1581  0.0381
 6512W        W 8662  19.008   5.548   3.322 -0.1194  0.1993  0.0371
 6513W        W 8663  23.848   7.107  19.509  0.0432 -0.1595 -0.0135
 6514W        W 8664  14.801   3.879   1.341  0.5141  0.0570 -0.2878
 6515W        W 8665  25.901   1.259  21.027  0.2080 -0.0924  0.1175
 6516W        W 8666  15.869   5.069   0.782  0.2016 -0.0504  0.4055
 6517W        W 8667  13.012   3.009  10.606 -0.1214  0.0141  0.0911
 6518W        W 8668   6.149   0.338   7.338  0.0211 -0.1545 -0.2975
 6519W        W 8669  14.615   4.094   5.589  0.0301  0.1985  0.0075
 6520W        W 8670  27.666   0.757   9.628 -0.0844 -0.0371 -0.3854
 6521W        W 8671   8.839   1.228  20.957 -0.0405 -0.1833  0.0882
 6522W        W 8672  15.928   3.560  24.174  0.2062  0.1516 -0.2201
 6523W        W 8673  28.732   1.115  23.342  0.4242  0.2116 -0.0259
 6524W        W 8674  28.173   3.446   8.078 -0.1436 -0.3385  0.0330
 6525W        W 8675  16.340   3.358   4.802 -0.1552  0.0518  0.0318
 6526W        W 8676   0.624   0.472  15.740  0.0793 -0.1790  0.2814
 6527W        W 8677  25.718   1.012   8.356 -0.1130 -0.1367 -0.2338
 6528W        W 8678  16.686   1.647  20.734 -0.2137 -0.0862  0.0559
 6529W        W 8679  11.841   3.189   2.427  0.2214  0.0884  0.0281
 6530W        W 8680   9.353   6.255   6.365 -0.1687  0.0848  0.1725
 6531W        W 8681  19.272   2.689   4.665  0.4671 -0.3451  0.0983
 6532W        W 8682  28.759   7.485   5.788  0.0262  0.0952  0.1714
 6533W        W 8683  24.219   3.240   2.630 -0.2983 -0.0756 -0.1425
 6534W        W 8684   4.791   2.894   3.677 -0.0279 -0.0813  0.0485
 6535W        W 8685  23.019   4.950   2.932  0.1364  0.1573 -0.1065
 6536W        W 8686   0.031   5.712  23.138  0.1077  0.0171  0.2107
 6537W        W 8687   7.667   4.150  10.928  0.1219  0.2060 -0.0225
 6538W        W 8688  21.603   5.619   0.319 -0.1774  0.0274 -0.0660
 6539W        W 8689  12.935   6.389  18.183 -0.0716 -0.0893  0.1041
 6540W        W 8690   8.407   4.827  25.581 -0.1454  0.3288 -0.4236
 6541W        W 8691  14.114   2.843   4.019 -0.2532 -0.1457 -0.0463
 6542W        W 8692   9.536   7.199  23.575 -0.2510 -0.0422 -0.1823
 6543W        W 8693   8.178   6.204  10.584 -0.0994 -0.0256  0.0947
 6544W        W 8694  29.251   6.684  11.313 -0.0764  0.1950  0.0698
 6545W        W 8695  21.958   5.401  22.169 -0.1318 -0.1135  0.2386
 6546W        W 8696  14.927   0.259  10.348 -0.1126  0.4966 -0.0583
 6547W        W 8697   5.845   1.627  25.065 -0.2309  0.0093  0.1362
 6548W        W 8698  29.932   4.514  21.561 -0.0233 -0.0674  0.0206
 6549W        W 8699  30.120   3.702   4.454  0.0349 -0.2643  0.3888
 6550W        W 8700  16.932   3.543   5.020 -0.2095 -0.0434  0.2767
 6551W        W 8701  27.092   2.544  19.094 -0.0655 -0.3807  0.0454
 6552W        W 8702  23.239   3.319   1.108  0.0200 -0.0702  0.2063
 6553W        W 8703  27.707   3.529  11.108  0.0248 -0.1508 -0.2051
 6554W        W 8704  23.890   1.875  18.237 -0.1062 -0.3435  0.0262
 6555W        W 8705   4.672   6.019   7.782 -0.2015  0.0262 -0.0636
 6556W        W 8706   4.281   1.564   8.386  0.0290 -0.1617  0.2001
 6557W        W 8707   6.859   0.591   0.344  0.3277  0.0114 -0.0764
 6558W        W 8708  10.819   4.200  25.876  0.0123  0.1071  0.3688
 6559W        W 8709  27.905   7.408  22.001  0.3093 -0.1249 -0.0042
 6560W        W 8710  25.328   3.763  21.366 -0.0449 -0.1448 -0.1008
 6561W        W 8711  21.913   1.226  17.113 -0.1247  0.2006 -0.1550
 6562W        W 8712  18.794   1.419  22.040 -0.1286 -0.1289 -0.2039
 6563W        W 8713  29.630   7.651  23.097 -0.1178 -0.0440 -0.0635
 6564W        W 8714  10.910   7.168   9.614  0.0058  0.0908  0.3627
 6565W        W 8715  16.213   0.702  22.408  0.2736 -0.0465  0.0023
 6566W        W 8716  30.627   3.648  19.715 -0.0899  0.3147  0.1983
 6567W        W 8717   5.310   7.009   4.049 -0.0292  0.0695 -0.2079
 6568W        W 8718   2.079   5.727  19.162 -0.2558  0.0630  0.0100
 6569W        W 8719   4.574   6.765   2.260  0.1169  0.2602 -0.2414
 6570W        W 8720   1.717   0.632   5.339  0.1340  0.3262  0.0755
 6571W        W 8721  24.068   2.240  18.561 -0.1132 -0.1344 -0.0282
 6572W        W 8722   6.395   7.491  16.584 -0.3032 -0.0151 -0.1823
 6573W        W 8723  21.289   1.391  20.055 -0.1614 -0.0396 -0.1280
 6574W        W 8724  20.981   2.474   3.432 -0.2879 -0.0911 -0.2610
 6575W        W 8725  10.294   5.208   5.856 -0.1125 -0.2614 -0.1313
 6576W        W 8726   2.016   1.644   5.595  0.1660  0.0151 -0.0430
 6577W        W 8727  27.776   2.746   7.422  0.1322  0.1698  0.0376
 6578W        W 8728  14.429   3.577   8.995 -0.1447  0.1256 -0.0900
 6579W        W 8729  28.493   3.460  25.264  0.1887  0.1056 -0.0749
 6580W        W 8730  13.238   0.144  20.710  0.0584 -0.2102 -0.0311
 6581W        W 8731  24.076   5.633  18.731 -0.3076  0.0707  0.0365
 6582W        W 8732  18.293   3.058   1.508  0.0487 -0.0288 -0.1909
 6583W        W 8733  10.954   3.073   3.811  0.3610  0.1963  0.1918
 6584W        W 8734  12.073   2.955  18.908  0.0630  0.0844  0.0442
 6585W        W 8735  27.104   3.199   7.781  0.0319  0.0764 -0.1379
 6586W        W 8736  19.136   0.687   2.756  0.0640  0.1676  0.0470
 6587W        W 8737  15.005   4.803  24.569  0.1158 -0.0225 -0.0430
 6588W        W 8738   8.041   5.959   2.398  0.2957  0.2059  0.0457
 6589W        W 8739  20.572   3.950   9.860 -0.3951 -0.2035  0.1334
 6590W        W 8740  14.880   0.679  10.076  0.0287  0.0142 -0.0042
 6591W        W 8741   2.580   3.174  24.403 -0.1455 -0.0146  0.1024
 6592W        W 8742  30.372   6.758   7.937  0.0397  0.1178 -0.0535
 6593W        W 8743  23.537   1.086  19.597  0.3150  0.0120 -0.1090
 6594W        W 8744   1.145   6.226   4.454 -0.0675  0.0300 -0.0051
 6595W        W 8745   9.244   6.523  19.287 -0.1023  0.1173  0.3248
 6596W        W 8746  12.874   4.463  24.802  0.1557 -0.0439  0.2616
 6597W        W 8747  12.886   4.595   1.914 -0.1014 -0.3376 -0.0027
 6598W        W 8748  21.604   4.326   5.304  0.3004  0.2439  0.0308
 6599W        W 8749  24.040   7.533  19.734  0.0909  0.0805 -0.2276
 6600W        W 8750  29.598   3.393   5.276  0.1051  0.1058  0.2282
 6601W        W 8751  29.408   5.313   8.747 -0.0830  0.0344 -0.2364
 6602W        W 8752  10.256   0.906  10.196  0.0466  0.0899  0.0920
 6603W        W 8753  28.719   1.322   1.595 -0.0151  0.1065 -0.2115
 6604W        W 8754   9.773   1.578  15.112  0.1056 -0.1568  0.2267
 6605W        W 8755  23.573   4.939  19.707  0.2645  0.0587 -0.2272
 6606W        W 8756   7.573   2.350  15.745  0.0897  0.0289 -0.2332
 6607W        W 8757  19.328   0.632   7.049 -0.0659  0.0994  0.0080
 6608W        W 8758  13.526   1.528  17.054 -0.0590 -0.0513  0.0234
 6609W        W 8759  11.054   4.383  18.788  0.0100 -0.4129 -0.3923
 6610W        W 8760  28.392   1.170   8.064 -0.0699 -0.1485 -0.0877
 6611W        W 8761   8.210   7.031  10.593  0.1054  0.2418  0.0369
 6612W        W 8762  31.184   2.017   9.846 -0.1325  0.2500  0.2350
 6613W        W 8763   2.193   2.421  16.089  0.2284 -0.0551 -0.0554
 6614W        W 8764   1.886   5.631  10.116 -0.2120  0.1858 -0.0519
 6615W        W 8765   7.737   0.318  26.412 -0.1335  0.2235  0.2667
 6616W        W 8766  13.444   5.091  22.317  0.0205 -0.0015  0.2098
 6617W        W 8767  23.766   1.948   6.011  0.2026 -0.1871  0.3154
 6618W        W 8768   2.991   0.888   3.761  0.1200 -0.3113  0.0279
 6619W        W 8769  16.411   3.088  23.858  0.2738 -0.0659  0.0025
 6620W        W 8770  13.869   3.528   9.685  0.3744 -0.0960 -0.0374
 6621W        W 8771  23.596   0.594   7.145 -0.1295  0.0568 -0.1125
 6622W        W 8772   6.723   1.148  18.617 -0.1435 -0.1127 -0.0202
 6623W        W 8773  21.965   2.152  16.456 -0.0762  0.2870 -0.2580
 6624W        W 8774  13.847   4.967  19.552  0.3206 -0.2074  0.3233
 6625W        W 8775  20.704   6.367  22.949  0.0611  0.3545  0.2242
 6626W        W 8776  16.968   0.090   7.923 -0.0738 -0.1949  0.0185
 6627W        W 8777  27.270   5.156  17.181 -0.0407 -0.1726  0.1048
 6628W        W 8778  12.728   6.910  18.464 -0.0874  0.0400  0.1641
 6629W        W 8779  22.558   3.891  25.273 -0.1157 -0.0502  0.0931
 6630W        W 8780   6.503   1.988   8.190  0.0800 -0.1273 -0.0567
 6631W        W 8781  23.515   7.404   1.440 -0.1650 -0.0324  0.3678
 6632W        W 8782  13.236   4.104  25.481 -0.0285  0.0367 -0.0190
 6633W        W 8783  12.699   6.173   1.130 -0.2897 -0.1739  0.1128
 6634W        W 8784  16.030   7.119   4.235 -0.1312  0.0683  0.2006
 6635W        W 8785   1.897   5.690  20.799  0.0293  0.3538  0.1537
 6636W        W 8786   8.670   2.080  24.458 -0.3303  0.2403 -0.2474
 6637W        W 8787   2.033   3.575  19.621 -0.2545 -0.4396 -0.0092
 6638W        W 8788   7.626   0.181  23.648 -0.4654 -0.0920  0.1215
 6639W        W 8789  27.580   3.184  19.409 -0.1857  0.1084 -0.0550
 6640W        W 8790  24.511   2.767   2.544  0.1360  0.0416 -0.0286
 6641W        W 8791   7.229   2.076  16.506  0.1765 -0.0175 -0.3115
 6642W        W 8792   7.835   5.105  15.412  0.4275  0.1686 -0.2041
 6643W        W 8793   8.580   2.456  20.965 -0.0034  0.1563  0.1611
 6644W        W 8794  27.004   5.147  25.886 -0.1315  0.0788  0.1609
 6645W        W 8795   8.135   2.876   8.283  0.3500  0.2698  0.0734
 6646W        W 8796  29.491   0.067  18.281 -0.0542 -0.3364  0.2550
 6647W        W 8797  22.655   0.986  17.693  0.1273  0.1028 -0.1223
 6648W        W 8798  28.010   5.606   7.315 -0.5186  0.0924  0.1750
 6649W        W 8799  29.479   5.122  20.234 -0.0734  0.0418 -0.2942
 6650W        W 8800  15.916   3.580   2.922  0.0007 -0.0241  0.1252
 6651W        W 8801  16.386   0.518  25.035  0.1504  0.2261  0.1466
 6652W        W 8802   4.739   0.796  18.569 -0.2643  0.0153 -0.0625
 6653W        W 8803  27.074   1.162  23.719  0.2642  0.0656  0.1496
 6654W        W 8804  21.182   3.188   2.869 -0.2220  0.0774  0.0778
 6655W        W 8805   7.234   5.115  18.519 -0.0535 -0.3704  0.0979
 6656W        W 8806   3.424   3.412  17.105 -0.1254 -0.3457 -0.0618
 6657W        W 8807   3.115   5.205   6.973 -0.0064  0.0635  0.1321
 6658W        W 8808   6.571   1.497  23.333  0.2002  0.1346 -0.1184
 6659W        W 8809  19.111   1.725  25.415  0.0354  0.3036 -0.3192
 6660W        W 8810  11.743   3.880   8.725  0.0488 -0.0417  0.2096
 6661W        W 8811  18.967   5.596   1.351 -0.1047 -0.0762  0.3845
 6662W        W 8812  23.835   6.964  22.393 -0.2634 -0.0240  0.2073
 6663W        W 8813  19.661   5.267  16.656 -0.3141  0.2952 -0.0777
 6664W        W 8814  13.395   5.275   8.864 -0.2646  0.0364  0.1944
 6665W        W 8815   6.291   3.044   0.498 -0.1422  0.1763 -0.0407
 6666W        W 8816  22.313   2.522  24.503  0.3092 -0.0935 -0.1166
 6667W        W 8817   4.458   3.820   7.128 -0.1269  0.3195  0.1364
 6668W        W 8818  24.703   1.475   2.127  0.0989 -0.2162  0.3188
 6669W        W 8819  13.398   3.669   1.917  0.1560  0.2249 -0.1181
 6670W        W 8820  30.698   7.697  24.535 -0.1054  0.0262  0.0000
 6671W        W 8821   1.281   3.793  17.594  0.1104  0.0699 -0.2729
 6672W        W 8822   2.058   7.034   0.413 -0.1448 -0.1389  0.1023
 6673W        W 8823   4.808   5.871   2.096  0.0217  0.1370  0.0549
 6674W        W 8824  21.997   2.671   4.970  0.0137  0.1488 -0.0173
 6675W        W 8825  17.438   4.430   4.605 -0.2545 -0.0066 -0.3976
 6676W        W 8826  24.916   4.946   5.292  0.2165 -0.1382 -0.1619
 6677W        W 8827   6.309   2.411  10.588 -0.1787 -0.2022 -0.0685
 6678W        W 8828  16.415   4.132   8.586  0.0546 -0.0113  0.0235
 6679W        W 8829   1.627   3.611   9.466 -0.0588  0.0809 -0.2518
 6680W        W 8830  24.887   3.718   2.973 -0.0295 -0.0584 -0.0954
 6681W        W 8831  15.194   1.657   8.993 -0.0997  0.1838 -0.3404
 6682W        W 8832  12.808   3.481  15.940 -0.1637  0.1515  0.1488
 6683W        W 8833  18.861   5.598  20.193 -0.2170 -0.0308 -0.1895
 6684W        W 8834  13.113   4.764   8.807  0.0001 -0.1860 -0.2254
 6685W        W 8835   5.884   6.873  26.231  0.0029 -0.2120  0.1085
 6686W        W 8836  20.795   3.636   0.061 -0.0492  0.2633 -0.0370
 6687W        W 8837   4.218   1.928   0.345  0.0220 -0.2038  0.1821
 6688W        W 8838  27.257   2.084  19.997  0.0633 -0.0247  0.0522
 6689W        W 8839  23.334   6.340  24.995 -0.4865  0.0672 -0.0946
 6690W        W 8840   2.934   1.312   9.289 -0.1640 -0.0710 -0.1655
 6691W        W 8841  26.298   7.217  11.026 -0.0298  0.1091  0.1785
 6692W        W 8842  30.574   6.018  17.242 -0.2179  0.3158 -0.0284
 6693W        W 8843  10.119   7.510  10.065  0.1911 -0.1430  0.3368
 6694W        W 8844  14.438   7.477   4.539  0.1294  0.1597  0.0062
 6695W        W 8845  28.028   5.652  10.498  0.4812  0.1494  0.0143
 6696W        W 8846   6.660   0.750  17.452  0.1373  0.2745 -0.2924
 6697W        W 8847  17.596   4.411   2.588  0.1159  0.0526  0.2604
 6698W        W 8848  23.606   1.307  22.029 -0.1147 -0.0502 -0.0490
 6699W        W 8849  19.811   0.745  22.448  0.1397  0.0345  0.0221
 6700W        W 8850  16.617   2.798  18.717 -0.1173  0.2143 -0.1821
 6701W        W 8851  27.631   4.769  18.961  0.1286 -0.1966 -0.0637
 6702W        W 8852  24.647   3.193  11.357  0.2066  0.1589 -0.0552
 6703W        W 8853  20.486   3.644  21.508  0.2058 -0.0087  0.1606
 6704W        W 8854  29.253   1.469   3.738 -0.3244 -0.1221  0.0419
 6705W        W 8855  12.170   1.122   0.245  0.0604  0.0231 -0.1625
 6706W        W 8856  13.200   3.714  22.504 -0.0133 -0.0522 -0.2056
 6707W        W 8857   4.203   3.002  24.310  0.0770  0.1662 -0.2249
 6708W        W 8858   5.378   6.458  16.233 -0.0555 -0.0291  0.2450
 6709W        W 8859  28.162   5.846  16.003 -0.0702  0.2054 -0.0532
 6710W        W 8860  23.520   4.455  25.691  0.0315 -0.2085  0.0967
 6711W        W 8861  21.700   4.824   1.704 -0.0217  0.0028 -0.0844
 6712W        W 8862   5.495   0.944   8.506  0.0438 -0.0131  0.0852
 6713W        W 8863   5.563   0.259   3.452  0.2044  0.0035  0.1567
 6714W        W 8864  26.292   0.276   0.112  0.0371  0.0541 -0.3928
 6715W        W 8865  28.805   2.448   4.104 -0.4022  0.3570 -0.4091
 6716W        W 8866  20.046   2.540   8.757  0.0971  0.0019 -0.2114
 6717W        W 8867   2.345   5.258  22.251  0.1783 -0.1484 -0.0935
 6718W        W 8868  24.762   4.229   8.144 -0.2710  0.0455  0.0171
 6719W        W 8869  19.223   2.549   0.241 -0.1479  0.0109 -0.0824
 6720W        W 8870  14.723   3.513  16.444  0.1905 -0.2743  0.4873
 6721W        W 8871  12.592   5.012  15.231  0.1940  0.0257 -0.0312
 6722W        W 8872  29.231   3.788  18.778 -0.0037 -0.1520 -0.2922
 6723W        W 8873  24.665   0.251   7.654  0.1000 -0.0269 -0.2251
 6724W        W 8874  30.152   5.308  23.224 -0.1189 -0.1744 -0.0529
 6725W        W 8875  25.759   3.092  25.717  0.1102 -0.1686  0.2112
 6726W        W 8876  27.252   2.945   2.977  0.0850  0.2019 -0.0529
 6727W        W 8877  29.687   2.816   2.774 -0.1788 -0.1114  0.0787
 6728W        W 8878   3.548   4.654  22.742 -0.1503 -0.0142  0.2932
 6729W        W 8879  24.389   2.479   7.173 -0.1132  0.1106  0.0471
 6730W        W 8880  17.676   4.490  22.283  0.3563 -0.2212 -0.0860
 6731W        W 8881  12.826   2.158   6.567  0.2413 -0.3567  0.0988
 6732W        W 8882  17.561   7.605   6.253 -0.1317  0.1159  0.1471
 6733W        W 8883  28.084   1.034   7.262  0.0051 -0.0144 -0.1664
 6734W        W 8884  18.253   3.955   7.557 -0.1134 -0.1242 -0.1310
 6735W        W 8885   3.030   4.488  24.850 -0.0284 -0.2301 -0.2833
 6736W        W 8886  15.996   1.144  18.258  0.1179  0.2374  0.2371
 6737W        W 8887  13.091   1.444  23.390  0.1275  0.3884 -0.0945
 6738W        W 8888   3.794   6.824  21.870  0.1629  0.2991 -0.1901
 6739W        W 8889   6.550   2.322  21.175  0.2870 -0.1085 -0.0050
 6740W        W 8890   6.627   6.837  20.072  0.0109 -0.0917  0.1322
 6741W        W 8891  16.545   2.204  16.709 -0.0920 -0.0151 -0.2436
 6742W        W 8892  13.123   6.373  15.967  0.3712 -0.0187  0.0220
 6743W        W 8893   2.128   2.025  18.500  0.1578 -0.1180 -0.1874
 6744W        W 8894   7.414   3.479  25.499  0.0620  0.0205  0.0445
 6745W        W 8895  19.341   0.522  21.200 -0.2014 -0.1071 -0.0129
 6746W        W 8896  26.685   0.528  23.566 -0.1362 -0.1712 -0.3788
 6747W        W 8897   6.218   3.918   0.484  0.0649  0.1019 -0.1735
 6748W        W 8898   1.494   6.577  10.361  0.2449  0.2775  0.0025
 6749W        W 8899   6.187   3.562  15.898 -0.0884 -0.1074 -0.1041
 6750W        W 8900  25.089   5.508   6.908  0.0531  0.2631 -0.1280
 6751W        W 8901  27.465   0.139  20.148  0.1961 -0.0069  0.2006
 6752W        W 8902  21.230   5.022   1.717 -0.0016  0.2125  0.3789
 6753W        W 8903  13.452   2.808  17.121 -0.2427 -0.2149 -0.0470
 6754W        W 8904  11.812   2.226   9.493  0.1327 -0.0288 -0.0558
 6755W        W 8905  19.703   3.364   1.646 -0.1336 -0.0644 -0.1889
 6756W        W 8906   0.168   3.231   8.036 -0.0586 -0.0794 -0.2568
 6757W        W 8907  20.426   6.571   5.926  0.0351  0.0996  0.1409
 6758W        W 8908  15.542   0.931   1.484  0.0443 -0.0832  0.1179
 6759W        W 8909   0.543   1.878  22.132  0.1758  0.1847  0.1311
 6760W        W 8910  13.853   1.857  19.556 -0.3319 -0.1413  0.2105
 6761W        W 8911  25.427   0.274   8.604 -0.2632  0.1462  0.2610
 6762W        W 8912  15.569   0.739  26.018 -0.0962  0.0734  0.0026
 6763W        W 8913  15.800   1.081  24.513  0.2189  0.3649  0.0344
 6764W        W 8914  17.734   3.625  18.322  0.1223 -0.1878 -0.0040
 6765W        W 8915  10.267   3.039   5.400 -0.0712  0.0713  0.2681
 6766W        W 8916  25.156   6.996  18.121  0.2106 -0.1074  0.2019
 6767W        W 8917  29.471   6.771  23.739  0.0962 -0.1126  0.1929
 6768W        W 8918  14.745   1.286  22.727  0.2516  0.1021 -0.0689
 6769W        W 8919  17.950   3.131  22.325 -0.1292  0.1025 -0.1545
 6770W        W 8920  24.911   1.247   6.678 -0.2406  0.1634  0.3473
 6771W        W 8921  19.404   7.180  18.138 -0.1130 -0.1943 -0.2185
 6772W        W 8922  27.331   3.368   0.961 -0.1092 -0.1552 -0.1534
 6773W        W 8923   8.459   0.740   9.705  0.2144  0.1598 -0.2303
 6774W        W 8924   8.180   0.545   6.414  0.1127 -0.3280  0.1214
 6775W        W 8925   8.552   3.196   3.436  0.0220 -0.1535  0.1018
 6776W        W 8926  12.905   5.430  17.133 -0.2577  0.0134  0.1078
 6777W        W 8927  14.106   4.523  21.017 -0.1091  0.1265 -0.0455
 6778W        W 8928  30.196   6.590   0.569  0.1408  0.3212  0.3554
 6779W        W 8929  30.071   3.785  23.857  0.0752 -0.0027  0.3180
 6780W        W 8930  19.048   4.455  23.966  0.2805  0.1082  0.1365
 6781W        W 8931  26.494   5.640   6.383  0.2160 -0.0566  0.2201
 6782W        W 8932   9.669   1.247  23.876  0.0238  0.1601  0.0750
 6783W        W 8933  24.214   5.414   6.389 -0.2795  0.1882 -0.2246
 6784W        W 8934  18.904   4.963  18.919 -0.1806 -0.0320  0.0043
 6785W        W 8935   4.869   1.895  22.911  0.0970  0.1396  0.1196
 6786W        W 8936   2.776   1.853  24.870  0.0105 -0.0275  0.0298
 6787W        W 8937   0.512   0.519   0.612 -0.0432  0.1080  0.0531
 6788W        W 8938  12.650   1.019  21.290  0.2633 -0.2128 -0.0376
 6789W        W 8939  22.053   6.796   8.795 -0.1768  0.1183 -0.1663
 6790W        W 8940  20.961   7.724   8.881  0.0467  0.0255  0.0297
 6791W        W 8941  17.048   2.272   2.558  0.3998 -0.0466  0.1488
 6792W        W 8942  10.658   0.838  23.895  0.1468  0.2188  0.2991
 6793W        W 8943  14.800   5.477  18.436 -0.0312 -0.1510  0.2112
 6794W        W 8944  27.750   5.692   8.827 -0.3685 -0.2521 -0.2336
 6795W        W 8945  26.393   2.693  16.977 -0.2179 -0.4143 -0.1580
 6796W        W 8946  10.988   0.201   1.523  0.0416 -0.0890  0.1295
 6797W        W 8947   7.531   5.506  15.696 -0.0399 -0.0295  0.1011
 6798W        W 8948   4.418   7.254   2.399 -0.0956 -0.0485 -0.0868
 6799W        W 8949  18.601   1.837   2.123  0.2425 -0.0639  0.2959
 6800W        W 8950   3.249   4.664   9.130 -0.0474  0.2782 -0.2728
 6801W        W 8951  14.478   4.450  22.165  0.3299  0.0587  0.2406
 6802W        W 8952  26.085   5.905  20.606 -0.1870  0.3780 -0.1152
 6803W        W 8953  16.043   2.366  22.875 -0.2187 -0.1033 -0.2366
 6804W        W 8954   3.282   2.099   5.583  0.0840  0.2382 -0.2177
 6805W        W 8955  22.869   6.590  24.536  0.1429  0.1333  0.0334
 6806W        W 8956   8.998   0.005  19.916 -0.0492  0.1328 -0.1037
 6807W        W 8957  28.279   6.472   7.627 -0.2392 -0.0122 -0.0260
 6808W        W 8958  10.982   1.629  17.305 -0.1114 -0.1719  0.0506
 6809W        W 8959   6.093   6.744   7.069 -0.1945  0.0687 -0.2848
 6810W        W 8960  22.758   0.590  11.760 -0.1005 -0.0691  0.0625
 6811W        W 8961  25.502   6.099   4.888  0.2618  0.0995 -0.0756
 6812W        W 8962  14.200   0.641   6.061  0.1892 -0.0348  0.0026
 6813W        W 8963   0.773   0.007  17.390  0.0135 -0.2653  0.0833
 6814W        W 8964   2.468   4.083  25.429  0.1481  0.3170 -0.1391
 6815W        W 8965   9.070   0.930  25.580 -0.1251 -0.0773  0.1984
 6816W        W 8966   1.753   2.585   8.225 -0.1664 -0.1441  0.1049
 6817W        W 8967  29.973   7.762  11.278 -0.1152  0.0594 -0.1029
 6818W        W 8968  24.506   7.099   1.112  0.1147  0.0843  0.3102
 6819W        W 8969  27.892   5.870   6.007  0.0560  0.2674  0.2804
 6820W        W 8970  17.364   2.840   0.759 -0.1836 -0.1119  0.1167
 6821W        W 8971  29.853   0.104   8.205 -0.0439  0.2418  0.2047
 6822W        W 8972  16.564   3.637   5.325  0.0017 -0.2175 -0.1920
 6823W        W 8973  18.727   0.978  18.677 -0.0256 -0.1443  0.0785
 6824W        W 8974   0.390   4.799   5.239  0.0135  0.3369 -0.2913
 6825W        W 8975  13.167   2.357  18.594 -0.0673 -0.0443  0.3112
 6826W        W 8976  14.253   5.387  17.134  0.0902 -0.0338 -0.0496
 6827W        W 8977  30.894   6.255   3.159  0.2133  0.0088 -0.0364
 6828W        W 8978   6.465   4.037  25.937  0.0788 -0.0048  0.0703
 6829W        W 8979  14.936   5.023  19.846 -0.1981  0.1691 -0.1054
 6830W        W 8980   2.567   5.701  16.358  0.0244 -0.2739 -0.2552
 6831W        W 8981  25.674   3.808  15.975  0.0374 -0.0563  0.2230
 6832W        W 8982   2.461   4.548   1.128 -0.1324  0.0292 -0.2109
 6833W        W 8983  24.935   7.291  17.796  0.0371  0.0585  0.0027
 6834W        W 8984  24.438   2.508   8.698 -0.0279  0.0393 -0.1704
 6835W        W 8985  30.481   5.508  19.716 -0.0305  0.0204  0.1004
 6836W        W 8986  23.699   4.010  24.497 -0.1110  0.0964 -0.1075
 6837W        W 8987   7.623   5.271  23.382  0.1824 -0.0171 -0.1903
 6838W        W 8988  13.542   0.731   7.786 -0.2655  0.0061  0.0900
 6839W        W 8989  10.279   1.559  23.392 -0.1456  0.2362 -0.1668
 6840W        W 8990   1.775   2.255   7.814  0.2631  0.0794 -0.0199
 6841W        W 8991  21.789   4.997   8.339  0.2029  0.2232  0.0118
 6842W        W 8992  31.017   3.801  19.448  0.4653 -0.0535  0.1124
 6843W        W 8993   3.268   1.012   4.782 -0.0127 -0.0911 -0.0543
 6844W        W 8994   5.769   1.428  17.049 -0.1404 -0.0041  0.0982
 6845W        W 8995   6.064   7.133   6.276  0.1973 -0.0419 -0.4166
 6846W        W 8996   8.758   5.656   7.421 -0.0994 -0.2866 -0.1780
 6847W        W 8997  28.040   5.337   6.832 -0.0079 -0.2858 -0.1837
 6848W        W 8998  21.569   5.040  21.973  0.1973  0.6134 -0.3384
 6849W        W 8999  29.057   1.615   3.247 -0.0084  0.2618  0.1232
 6850W        W 9000  19.187   2.957  20.841 -0.1894 -0.2124 -0.1537
 6851W        W 9001   4.636   1.023   0.434  0.0093  0.4545 -0.4411
 6852W        W 9002   2.900   4.645  26.228 -0.0428 -0.1325  0.1773
 6853W        W 9003   1.275   2.839  26.186  0.1649 -0.0946 -0.1981
 6854W        W 9004  11.080   7.164   0.360  0.0460 -0.3007  0.0626
 6855W        W 9005  18.675   4.968   6.293 -0.1535  0.0937  0.0655
 6856W        W 9006   9.455   5.180  17.210 -0.1390 -0.0945  0.0809
 6857W        W 9007  20.421   6.326   9.682  0.1024 -0.5415 -0.0085
 6858W        W 9008  12.122   4.421  20.336  0.2141  0.2841 -0.0613
 6859W        W 9009  29.616   7.466   2.858  0.1078  0.3176  0.2094
 6860W        W 9010   6.452   5.800  18.525  0.1993 -0.0875 -0.0626
 6861W        W 9011   9.963   4.576   7.914  0.1469  0.0866  0.0523
 6862W        W 9012   8.519   1.154   6.003  0.1928 -0.1127  0.1769
 6863W        W 9013   6.490   6.417  17.009  0.0267 -0.0108 -0.1342
 6864W        W 9014  22.572   2.581  10.710 -0.0719 -0.1893  0.2108
 6865W        W 9015  12.553   6.584  24.213 -0.2393 -0.1555  0.0392
 6866W        W 9016  14.334   3.549   4.730  0.0127  0.0570 -0.1816
 6867W        W 9017  26.856   0.258  16.664 -0.0344  0.2529  0.2325
 6868W        W 9018  13.386   1.949   3.468  0.0034  0.2326 -0.0246
 6869W        W 9019   9.265   4.733  20.521 -0.0734 -0.1556  0.0353
 6870W        W 9020   9.880   2.586   3.360  0.2110  0.3228  0.1411
 6871W        W 9021  15.551   0.916  22.457  0.0522 -0.0586  0.1927
 6872W        W 9022  12.082   6.352  22.052 -0.1597  0.1441  0.1907
 6873W        W 9023  25.096   1.716  25.436  0.1664 -0.3093 -0.3077
 6874W        W 9024  24.694   4.970   2.744 -0.0375 -0.0080 -0.0411
 6875W        W 9025  12.787   4.794   7.476  0.0333 -0.3884  0.0908
 6876W        W 9026  20.068   5.393  10.572 -0.2909  0.0829 -0.0935
 6877W        W 9027   8.598   0.431   6.629  0.0847  0.0924 -0.1562
 6878W        W 9028   6.478   4.479   1.663  0.0237  0.3055 -0.0050
 6879W        W 9029   0.211   6.265   6.857 -0.0687 -0.1611 -0.4502
 6880W        W 9030   4.526   5.504   7.793 -0.0179  0.1431  0.2476
 6881W        W 9031  13.307   3.186   4.725 -0.1498  0.1311 -0.1229
 6882W        W 9032  14.305   2.881   0.359  0.4119  0.0428  0.0532
 6883W        W 9033  14.691   7.342   0.846 -0.1900  0.3608  0.0553
 6884W        W 9034   1.630   2.205  21.868  0.1282 -0.1788 -0.3193
 6885W        W 9035  28.240   6.484  19.022 -0.1296  0.0935 -0.2514
 6886W        W 9036  16.168   6.496  10.007 -0.2166 -0.0731 -0.2491
 6887W        W 9037  25.734   0.752  21.113  0.2689 -0.0237 -0.0627
 6888W        W 9038  23.894   5.880   3.299 -0.0527  0.4038  0.1294
 6889W        W 9039  18.193   5.427  24.186  0.0371  0.0972 -0.0485
 6890W        W 9040   2.376   2.678  22.837 -0.1334 -0.1938 -0.0339
 6891W        W 9041   8.633   1.789  23.711 -0.0548 -0.1227 -0.2060
 6892W        W 9042   1.484   7.151  23.425  0.0387  0.5037 -0.1082
 6893W        W 9043   9.674   0.126  15.879  0.0269  0.2264  0.0117
 6894W        W 9044  25.950   4.773  10.739 -0.1045  0.1271 -0.1026
 6895W        W 9045   3.790   0.294   8.433 -0.0569 -0.0376 -0.0393
 6896W        W 9046  26.587   4.460  22.274 -0.1456 -0.2680  0.0958
 6897W        W 9047   4.879   5.925  15.405  0.1209  0.0059  0.1088
 6898W        W 9048  28.144   2.298  24.502  0.4958  0.2262 -0.0063
 6899W        W 9049  20.957   4.388  23.186  0.3323 -0.2170 -0.3361
 6900W        W 9050   7.866   6.390   9.702 -0.1125  0.1296 -0.0710
 6901W        W 9051  12.291   4.823  25.076  0.0298 -0.0596 -0.0713
 6902W        W 9052  17.167   5.670  22.289 -0.0622  0.1788 -0.0549
 6903W        W 9053  25.162   7.765   2.799  0.1145 -0.1871 -0.3138
 6904W        W 9054  19.978   5.948  23.556 -0.2018  0.0091  0.0582
 6905W        W 9055   8.193   1.127   5.593  0.3102 -0.2458  0.2377
 6906W        W 9056   9.525   0.082  18.495 -0.1405 -0.2257  0.0073
 6907W        W 9057   7.218   4.064   1.234  0.2973  0.1051 -0.2836
 6908W        W 9058  10.945   6.879   4.948  0.1670 -0.1612 -0.0782
 6909W        W 9059  27.042   2.238  16.148 -0.0844  0.2204 -0.1613
 6910W        W 9060  26.740   6.777   5.611  0.0627 -0.0623 -0.0840
 6911W        W 9061  26.506   5.823  20.317 -0.0830  0.1230 -0.2180
 6912W        W 9062  24.138   6.973   8.284  0.2750 -0.2102 -0.1956
 6913W        W 9063   9.170   4.288  25.558 -0.1179  0.1579 -0.2820
 6914W        W 9064  11.381   5.592  15.217  0.0866  0.1699 -0.0516
 6915W        W 9065   8.932   5.875  17.770 -0.2716 -0.1330 -0.1570
 6916W        W 9066   3.162   6.247   3.350  0.2557 -0.0476 -0.0847
 6917W        W 9067  18.493   1.819   6.414  0.0515  0.0594 -0.1332
 6918W        W 9068  23.995   6.079  19.550  0.2230  0.1712 -0.2031
 6919W        W 9069   6.184   0.776  17.108 -0.2608  0.2085 -0.0458
 6920W        W 9070  10.424   6.338   4.249 -0.0474 -0.0653 -0.2807
 6921W        W 9071  21.759   3.178  23.373  0.4186  0.4160  0.0998
 6922W        W 9072  30.854   4.443   9.161 -0.2034  0.2301 -0.0304
 6923W        W 9073   2.844   6.016   5.796  0.1080 -0.0485  0.0590
 6924W        W 9074   7.752   0.380  23.242 -0.1279  0.0921 -0.1936
 6925W        W 9075  18.590   5.703  23.873 -0.3129  0.3166  0.3009
 6926W        W 9076   0.135   6.079   4.206  0.0975  0.2183  0.0732
 6927W        W 9077   7.019   5.145   8.441 -0.2742  0.0026 -0.2239
 6928W        W 9078   6.763   7.131   9.390 -0.0181  0.2301 -0.1732
 6929W        W 9079  19.515   7.501   6.671  0.2055 -0.0875 -0.1546
 6930W        W 9080  22.991   5.490  10.932  0.1438  0.0438 -0.1056
 6931W        W 9081  14.211   5.736   9.341  0.1352 -0.1436  0.1482
 6932W        W 9082  16.397   2.311   6.598  0.2656 -0.0926 -0.0303
 6933W        W 9083  30.637   3.588  15.376  0.2117 -0.0350  0.0333
 6934W        W 9084  12.705   7.522  17.940  0.0632 -0.0578 -0.2948
 6935W        W 9085  26.488   2.395  21.395  0.1099  0.0842  0.2228
 6936W        W 9086  17.855   7.794   1.336  0.2157 -0.1598 -0.0023
 6937W        W 9087  25.181   2.242  21.284  0.1585 -0.2606  0.0134
 6938W        W 9088   4.651   2.452  18.077  0.0189  0.0924 -0.2128
 6939W        W 9089   5.221   1.959  18.307 -0.2411 -0.2090  0.0795
 6940W        W 9090  11.829   6.525  18.026 -0.3501 -0.1391  0.1257
 6941W        W 9091   9.042   1.880   7.473  0.1244 -0.1802 -0.1735
 6942W        W 9092  18.522   5.845   4.751  0.2629  0.0482 -0.0671
 6943W        W 9093  26.776   3.633   0.683 -0.0762  0.0072 -0.0678
 6944W        W 9094   7.349   7.412  24.699  0.0944 -0.1602  0.2204
 6945W        W 9095  16.922   4.730  19.536  0.1488 -0.0614 -0.3567
 6946W        W 9096  13.021   1.936  25.370 -0.4587 -0.0017  0.2673
 6947W        W 9097  12.996   3.535  15.026 -0.2280  0.1747 -0.0345
 6948W        W 9098   9.082   0.157  18.054 -0.1049 -0.1214  0.1629
 6949W        W 9099  11.728   4.188   2.201 -0.2312 -0.1665  0.0860
 6950W        W 9100   1.644   3.071   5.725  0.0419  0.1395  0.3737
 6951W        W 9101  17.601   7.028   2.398  0.2601 -0.2981 -0.1356
 6952W        W 9102  11.988   3.983  20.105 -0.0364  0.0899 -0.2557
 6953W        W 9103  17.635   0.373  24.201  0.0729 -0.0126  0.1010
 6954W        W 9104  22.343   5.377  24.802  0.0104  0.0152  0.2729
 6955W        W 9105  27.764   5.514   4.084  0.1544  0.0860  0.0313
 6956W        W 9106   7.325   5.006  15.644 -0.2243 -0.1357 -0.2809
 6957W        W 9107  13.216   4.036   7.512  0.1820 -0.0413 -0.0215
 6958W        W 9108   6.903   1.124   4.325  0.1235 -0.1055  0.1722
 6959W        W 9109  26.661   6.832   8.190 -0.3394  0.1528 -0.0675
 6960W        W 9110  18.418   0.359  16.620 -0.0015 -0.0749  0.3793
 6961W        W 9111   6.079   5.350  17.246  0.3522  0.0085  0.1468
 6962W        W 9112  24.132   4.966  18.098 -0.2319 -0.0818  0.0068
 6963W        W 9113   1.736   4.680   1.872 -0.0200 -0.0042 -0.2275
 6964W        W 9114  12.016   3.987   7.296  0.1926 -0.0823 -0.0430
 6965W        W 9115  25.247   1.142   8.440  0.0443  0.1593 -0.0176
 6966W        W 9116  17.209   6.306   3.424 -0.1521 -0.0307  0.0667
 6967W        W 9117   5.435   1.293  10.034  0.0514  0.0012 -0.1107
 6968W        W 9118  10.103   4.490  22.787 -0.0340 -0.0923 -0.4180
 6969W        W 9119   0.874   0.044  26.318  0.3600  0.3371 -0.1602
 6970W        W 9120   9.705   3.606  24.149  0.0160 -0.0137 -0.0201
 6971W        W 9121   5.176   4.815   5.872 -0.1885  0.0172 -0.1443
 6972W        W 9122  15.220   7.603   6.472 -0.2229  0.1436 -0.1366
 6973W        W 9123  30.597   3.661  22.040  0.1545 -0.0240  0.0840
 6974W        W 9124   7.531   0.515  25.764  0.1259  0.1770 -0.0144
 6975W        W 9125  11.217   3.594  17.123 -0.1906  0.0172  0.2102
 6976W        W 9126  12.703   7.311  22.631 -0.0441 -0.0492  0.0455
 6977W        W 9127  26.196   2.494   4.220  0.1591  0.1426  0.1797
 6978W        W 9128  29.403   3.813   3.805  0.0944 -0.0744  0.1333
 6979W        W 9129  27.825   6.893  19.206  0.0365 -0.0136 -0.3238
 6980W        W 9130   8.704   5.058  24.074  0.2662 -0.1282 -0.0681
 6981W        W 9131   4.272   2.422   2.581  0.2963  0.2645 -0.1932
 6982W        W 9132   9.541   4.410  26.408  0.2395 -0.0477 -0.1492
 6983W        W 9133  14.685   6.032  16.553 -0.1635 -0.1774 -0.2270
 6984W        W 9134  10.381   3.990   0.819  0.1702  0.1160 -0.3167
 6985W        W 9135  27.388   4.906   1.870  0.2319 -0.0066  0.0439
 6986W        W 9136  14.497   0.387  25.605 -0.0383 -0.0096 -0.3268
 6987W        W 9137  15.740   0.313   3.003 -0.2696 -0.1763  0.0789
 6988W        W 9138  24.877   1.276   7.448  0.0721 -0.1178  0.0576
 6989W        W 9139   3.221   0.068  20.936  0.0481  0.1355  0.1780
 6990W        W 9140   6.856   3.111  23.869 -0.0880  0.3160  0.1617
 6991W        W 9141  30.298   5.417  25.920 -0.1564  0.1056 -0.1502
 6992W        W 9142  16.798   4.551   1.146 -0.2078 -0.0900  0.1610
 6993W        W 9143  20.627   4.453  21.416  0.2223 -0.0257  0.1146
 6994W        W 9144  22.505   0.420  10.874 -0.2143  0.2565  0.0769
 6995W        W 9145  23.020   5.111  18.294 -0.1929  0.0752 -0.2824
 6996W        W 9146  12.694   4.468  10.603 -0.0036  0.0173 -0.1377
 6997W        W 9147   1.587   3.980  23.333  0.0703  0.0696  0.0019
 6998W        W 9148   7.210   2.938  24.241 -0.0796 -0.0856  0.0531
 6999W        W 9149  15.459   6.537  26.372  0.1749 -0.2318 -0.2541
 7000W        W 9150   1.310   2.753  24.060  0.2661 -0.3735 -0.0385
 7001W        W 9151  24.573   3.833  25.125 -0.0203  0.1992 -0.0940
 7002W        W 9152  27.298   2.286   0.858 -0.1568  0.3853  0.2028
 7003W        W 9153  30.563   7.522   4.263 -0.1021  0.0205  0.2176
 7004W        W 9154  27.575   3.452   7.016  0.2768  0.0482  0.0155
 7005W        W 9155  15.632   7.433  25.848  0.1401 -0.0877  0.0235
 7006W        W 9156   4.539   4.776  16.848  0.0343 -0.1925  0.1528
 7007W        W 9157  20.345   6.795  22.033 -0.2172  0.2494  0.5224
 7008W        W 9158  12.998   6.743  20.312 -0.0710  0.1279  0.6625
 7009W        W 9159  23.958   1.890  16.524 -0.0493 -0.2146  0.1051
 7010W        W 9160  27.495   3.951  24.745 -0.0758  0.0757 -0.0219
 7011W        W 9161  14.973   7.084  22.280  0.2136 -0.4109  0.0318
 7012W        W 9162   2.212   7.341  21.383  0.0386 -0.1670  0.1049
 7013W        W 9163  23.211   0.545  25.925 -0.1613 -0.1001  0.1594
 7014W        W 9164   6.564   4.313  20.552  0.0223  0.1054 -0.1202
 7015W        W 9165  25.027   6.700   8.810  0.0474 -0.3747 -0.2320
 7016W        W 9166  16.609   4.250  10.503  0.0096 -0.0730 -0.1342
 7017W        W 9167  13.201   2.807  15.697  0.0265 -0.2583  0.2065
 7018W        W 9168  20.020   2.663  19.753 -0.1358 -0.3162  0.0317
 7019W        W 9169   4.032   6.354  20.301 -0.1623 -0.1079  0.3060
 7020W        W 9170  12.652   3.740   4.022 -0.2463  0.1922  0.1314
 7021W        W 9171  30.288   0.467  20.025  0.0787  0.2905  0.1857
 7022W        W 9172  18.990   4.336  16.794 -0.1436  0.0343  0.0155
 7023W        W 9173  27.799   7.621   4.344 -0.0362 -0.1687  0.0306
 7024W        W 9174   3.856   4.867  22.382  0.4311 -0.3549  0.0189
 7025W        W 9175  12.041   1.106  23.850 -0.1419  0.0061 -0.1421
 7026W        W 9176  26.308   1.706  23.158  0.2531 -0.0798 -0.1055
 7027W        W 9177  20.247   2.032   1.194 -0.0511 -0.2944 -0.0636
 7028W        W 9178  28.139   5.212  10.889  0.0300  0.2369 -0.0413
 7029W        W 9179  22.816   1.488  24.150 -0.0760  0.1554  0.1876
 7030W        W 9180  21.966   2.656   6.907 -0.2664 -0.1022  0.1667
 7031W        W 9181  14.376   7.293  21.476 -0.0414  0.2308  0.1058
 7032W        W 9182  11.877   5.451   4.515 -0.2519  0.1512  0.1019
 7033W        W 9183   8.561   0.646  21.177  0.1041 -0.1619 -0.0094
 7034W        W 9184  12.602   5.582   5.065 -0.0366  0.1653 -0.0330
 7035W        W 9185  18.083   2.191   6.077 -0.0097 -0.1263  0.1112
 7036W        W 9186   3.507   0.693   0.926 -0.2408  0.2237  0.0507
 7037W        W 9187   6.614   4.900  20.318 -0.0890  0.4225 -0.3408
 7038W        W 9188  30.677   6.723  17.903 -0.0238 -0.3633 -0.0859
 7039W        W 9189  28.128   4.892   6.637 -0.0630  0.4136  0.0794
 7040W        W 9190  25.879   3.485   5.923 -0.0202  0.2790 -0.1580
 7041W        W 9191  10.152   1.815   9.780 -0.0497 -0.1945 -0.1557
 7042W        W 9192   2.992   7.128  18.778  0.0215  0.0757 -0.1409
 7043W        W 9193   4.008   3.168   4.253 -0.1263 -0.1659  0.0555
 7044W        W 9194  26.815   5.299   2.387 -0.1722 -0.2586  0.0897
 7045W        W 9195  28.540   5.929   2.504 -0.5406  0.0931 -0.1363
 7046W        W 9196   7.505   6.654  21.173 -0.0580  0.2182  0.1424
 7047W        W 9197  17.609   3.811  20.420  0.2574 -0.3958 -0.1080
 7048W        W 9198  13.128   1.831   6.237 -0.0773 -0.0972  0.3561
 7049W        W 9199  10.047   3.684   0.975 -0.1030  0.1374  0.3054
 7050W        W 9200  26.969   4.456  22.632 -0.0490 -0.0898 -0.2207
 7051W        W 9201   5.140   0.261  21.467  0.1637  0.0312 -0.0253
 7052W        W 9202   1.445   4.017  20.534 -0.1461 -0.0746  0.0425
 7053W        W 9203  28.991   4.484  11.122  0.0622 -0.2347 -0.3228
 7054W        W 9204  24.843   3.313  23.575  0.0111  0.0447  0.1170
 7055W        W 9205   8.694   5.135   2.987  0.3781  0.2588  0.1532
 7056W        W 9206   2.078   6.932  17.827  0.1462  0.3054 -0.1596
 7057W        W 9207   4.130   3.671   4.122 -0.2405 -0.0777  0.0492
 7058W        W 9208   8.621   5.747   9.951 -0.2488 -0.2580  0.3336
 7059W        W 9209  12.087   2.321   2.529  0.3013 -0.3161 -0.2002
 7060W        W 9210  25.483   4.456  25.641 -0.0989 -0.0226 -0.3112
 7061W        W 9211  29.192   0.356   5.516  0.3515  0.0399  0.2687
 7062W        W 9212  14.197   3.839  20.719 -0.1761  0.0457  0.0715
 7063W        W 9213   9.133   0.702   2.514  0.0260 -0.1957 -0.0496
 7064W        W 9214   1.585   4.786  19.874  0.0975 -0.0104 -0.0574
 7065W        W 9215  17.669   4.662  17.417  0.2082  0.1455 -0.0725
 7066W        W 9216   7.227   7.367   5.231  0.0937  0.1842 -0.1234
 7067W        W 9217  23.389   6.038  16.584 -0.1171  0.1449 -0.1250
 7068W        W 9218   1.211   0.251  18.619 -0.1057 -0.3283 -0.2516
 7069W        W 9219   0.290   6.031  17.068 -0.1398 -0.0322 -0.1246
 7070W        W 9220  13.594   5.044   6.004 -0.2860  0.2276  0.1788
 7071W        W 9221  21.899   3.986  15.429 -0.1006  0.3703  0.0000
 7072W        W 9222   5.885   6.645   5.536 -0.0750  0.2586 -0.4503
 7073W        W 9223  13.338   7.063   4.787 -0.3554  0.0415  0.0478
 7074W        W 9224   3.183   2.127  19.849  0.1818 -0.0775 -0.0385
 7075W        W 9225  15.829   5.504   4.227  0.0364 -0.2784  0.0491
 7076W        W 9226   8.835   6.739  25.822  0.2883 -0.0552 -0.0098
 7077W        W 9227  26.755   0.005   5.583  0.1517 -0.0054 -0.1337
 7078W        W 9228   5.158   3.959   1.474  0.1098 -0.1464  0.3262
 7079W        W 9229  18.225   4.647  25.907 -0.0926  0.1236 -0.1002
 7080W        W 9230   0.113   2.340  21.650  0.0031 -0.2297  0.2655
 7081W        W 9231   2.230   7.518   7.386  0.2333 -0.0084  0.1344
 7082W        W 9232  26.521   4.241   6.746  0.0674  0.1741  0.0909
 7083W        W 9233  13.591   0.461  18.256 -0.2871  0.1223  0.2255
 7084W        W 9234  28.158   1.704   0.686  0.0446  0.1583 -0.1261
 7085W        W 9235  25.387   2.237  17.393 -0.0813 -0.0595  0.1805
 7086W        W 9236  24.021   4.429   4.299  0.0460 -0.0195 -0.1745
 7087W        W 9237  14.532   7.233  10.101 -0.0046 -0.0795 -0.1788
 7088W        W 9238   1.759   0.314   9.731 -0.0630  0.1144  0.1501
 7089W        W 9239  17.610   2.633  15.781 -0.0212 -0.0520  0.1629
 7090W        W 9240   7.743   0.822   5.617 -0.1381  0.1978 -0.2123
 7091W        W 9241   1.120   0.328   9.928  0.0752 -0.0789 -0.0543
 7092W        W 9242  24.187   0.034  25.083 -0.0240 -0.1048 -0.0623
 7093W        W 9243  18.203   7.099   0.387  0.0521 -0.2494  0.1106
 7094W        W 9244   0.673   2.067  11.298 -0.0369 -0.2906 -0.3298
 7095W        W 9245   2.106   4.044  19.800 -0.0227  0.1713  0.1441
 7096W        W 9246  13.869   2.622   8.652  0.1824 -0.2193 -0.2019
 7097W        W 9247  29.688   4.644   4.832 -0.1272  0.2167 -0.1714
 7098W        W 9248  22.543   2.932   8.590 -0.1585 -0.1028  0.1364
 7099W        W 9249  27.958   6.786   0.766  0.2023 -0.2980 -0.0772
 7100W        W 9250  27.693   6.189   3.213 -0.1172 -0.1597  0.2289
 7101W        W 9251  30.734   7.735  26.399 -0.1470  0.0195 -0.3164
 7102W        W 9252  26.539   1.192   7.431  0.1675 -0.0654  0.2987
 7103W        W 9253  20.813   4.553  16.954  0.1433  0.0490 -0.1489
 7104W        W 9254  13.711   5.109   7.291 -0.0820 -0.0151 -0.2236
 7105W        W 9255   6.974   2.069  17.368  0.1463  0.1280 -0.1559
 7106W        W 9256  21.867   0.866   9.182 -0.2326  0.1958 -0.0664
 7107W        W 9257  17.413   0.843   8.295 -0.3403  0.2644  0.2442
 7108W        W 9258  24.720   2.497   3.748 -0.1518  0.1293 -0.1486
 7109W        W 9259  24.311   7.645   9.209 -0.2160 -0.0989  0.0341
 7110W        W 9260   5.858   2.179  15.642 -0.2501 -0.1000 -0.0167
 7111W        W 9261  12.852   5.768   0.408  0.0530  0.0703 -0.0571
 7112W        W 9262   3.692   2.666  18.351 -0.1734  0.0603  0.0664
 7113W        W 9263   1.183   2.434  19.544 -0.1655  0.0979 -0.0247
 7114W        W 9264  10.792   5.941   8.587  0.0620 -0.1404 -0.1680
 7115W        W 9265  28.118   6.084  24.110  0.0691  0.2215 -0.0575
 7116W        W 9266   6.943   4.640  10.398  0.0655 -0.0324  0.1218
 7117W        W 9267  15.941   3.441  15.253  0.4680 -0.1721  0.1751
 7118W        W 9268  25.291   1.094  19.614  0.1318 -0.0494  0.1608
 7119W        W 9269  31.101   7.004   4.737  0.2192  0.0184 -0.0952
 7120W        W 9270  15.722   4.360  22.272  0.1257 -0.0854  0.0003
 7121W        W 9271   1.480   2.028  19.552  0.1741 -0.2110 -0.0326
 7122W        W 9272  22.701   1.878   2.767  0.2338  0.1316 -0.1031
 7123W        W 9273  25.313   6.010  10.210  0.0075  0.2453  0.0766
 7124W        W 9274  16.275   0.305  17.608  0.0122 -0.0332 -0.1614
 7125W        W 9275  21.563   3.713   6.196  0.2143  0.2952 -0.0785
 7126W        W 9276  24.767   2.107  16.191 -0.2016  0.0291  0.0537
 7127W        W 9277  27.123   7.077   0.429  0.1130  0.1326 -0.0144
 7128W        W 9278  12.662   1.686  18.347 -0.0519 -0.0057 -0.1180
 7129W        W 9279  24.941   4.841   9.100 -0.2451  0.1113  0.0424
 7130W        W 9280  14.808   3.654  21.063 -0.1046  0.0919 -0.0763
 7131W        W 9281  27.516   3.960  21.018  0.0793 -0.0650 -0.0325
 7132W        W 9282  11.052   6.880  24.087  0.0274  0.1615 -0.0771
 7133W        W 9283  18.019   6.619  24.504 -0.1601  0.4045  0.1536
 7134W        W 9284  26.122   5.881  23.338 -0.1051 -0.1523  0.0260
 7135W        W 9285  15.716   2.618   6.182 -0.1832 -0.0146  0.0871
 7136W        W 9286   2.872   6.444  24.952 -0.0781  0.2947  0.2221
 7137W        W 9287  19.659   1.630  20.964  0.0435 -0.1712  0.3806
 7138W        W 9288  27.425   3.091  18.448  0.0275  0.1075 -0.1742
 7139W        W 9289  31.048   5.493   7.728  0.2282 -0.2833 -0.0488
 7140W        W 9290  18.020   6.106  20.489 -0.1646 -0.0341  0.1420
 7141W        W 9291   6.460   0.813  15.868 -0.0803  0.1763  0.1212
 7142W        W 9292  26.803   1.376  25.820  0.4897  0.1225 -0.0783
 7143W        W 9293   5.311   1.470  20.974 -0.0444  0.0478  0.1017
 7144W        W 9294  22.262   0.633  11.893  0.2576  0.2487 -0.0593
 7145W        W 9295   5.080   7.220  16.755  0.3556  0.0136 -0.1840
 7146W        W 9296  10.021   2.304  24.170 -0.4150  0.2543  0.0199
 7147W        W 9297   3.768   5.232   9.368  0.0173 -0.1044 -0.1028
 7148W        W 9298   0.585   2.135  23.786  0.2282 -0.0418  0.0725
 7149W        W 9299  13.285   0.635  19.964  0.3100 -0.2994 -0.1834
 7150W        W 9300   3.671   1.721  23.117  0.0332  0.1757  0.2087
 7151W        W 9301   4.014   6.612   7.959 -0.0605 -0.0499  0.3476
 7152W        W 9302  29.116   2.956  16.735  0.0786  0.0935  0.1473
 7153W        W 9303  15.900   0.847  19.708 -0.0102 -0.0906 -0.4018
 7154W        W 9304  20.635   0.220   6.948  0.1383  0.4232 -0.0219
 7155W        W 9305  26.193   3.521   0.226 -0.0667  0.1960 -0.4209
 7156W        W 9306  18.193   2.201   4.839  0.0976  0.0714  0.2264
 7157W        W 9307   3.023   2.084   3.442 -0.0373 -0.0852  0.0496
 7158W        W 9308   4.602   7.608  16.566 -0.0321 -0.0401  0.2103
 7159W        W 9309   6.505   3.980   7.540  0.0927  0.1624  0.3606
 7160W        W 9310  22.048   5.315  25.766  0.0585  0.0383  0.1395
 7161W        W 9311  28.634   4.488   3.181  0.0802 -0.0893 -0.2174
 7162W        W 9312  23.333   7.069   7.561  0.0174  0.0802 -0.2861
 7163W        W 9313  25.114   0.799  24.329  0.0117 -0.1731  0.0337
 7164W        W 9314  25.967   3.290  21.610  0.1823 -0.3600 -0.0709
 7165W        W 9315  27.237   2.061  25.536 -0.0684  0.4413  0.3280
 7166W        W 9316   1.897   3.642  17.518  0.1395  0.2568  0.2407
 7167W        W 9317  27.687   0.127  21.869  0.1283  0.2009 -0.1193
 7168W        W 9318  30.637   5.794  20.989 -0.0211  0.0443 -0.0297
 7169W        W 9319  12.863   2.816  25.192  0.0337  0.0722 -0.0776
 7170W        W 9320  14.315   1.851  23.622  0.1922 -0.1097  0.0596
 7171W        W 9321  21.446   5.178   4.464 -0.0379  0.1152 -0.0388
 7172W        W 9322  12.104   5.372   1.203  0.2768 -0.0482  0.2428
 7173W        W 9323   1.718   3.704   4.992  0.0689 -0.2654 -0.0875
 7174W        W 9324  14.198   0.283  20.504  0.1526  0.1197 -0.1203
 7175W        W 9325   4.606   0.094  11.114  0.1091  0.0638 -0.0301
 7176W        W 9326   5.648   5.973  26.381  0.2114 -0.0876  0.1569
 7177W        W 9327  18.536   5.445  25.178 -0.1353 -0.0991  0.0145
 7178W        W 9328   7.266   2.196   4.294 -0.2056  0.1325 -0.0955
 7179W        W 9329  24.243   1.887   2.701 -0.3168 -0.1095  0.0792
 7180W        W 9330  28.059   7.145   2.489 -0.1268 -0.3817  0.1252
 7181W        W 9331   2.304   2.271   7.687 -0.0354 -0.2663  0.2825
 7182W        W 9332   0.898   1.660  26.117 -0.0679 -0.0624  0.1733
 7183W        W 9333  10.910   1.290  21.825  0.0375  0.3125  0.0090
 7184W        W 9334  20.794   1.860  10.405 -0.0358 -0.0845  0.1262
 7185W        W 9335  20.627   7.667   1.066  0.0037 -0.0478  0.0899
 7186W        W 9336  27.143   1.150   3.799 -0.2394  0.0083  0.1836
 7187W        W 9337  23.837   1.074  24.532  0.0963 -0.0884 -0.0167
 7188W        W 9338   7.987   3.059  21.596  0.1945 -0.2940 -0.0954
 7189W        W 9339  25.119   1.278  10.599  0.2402  0.1012  0.1091
 7190W        W 9340  22.686   1.560  19.679 -0.3034  0.0759  0.0964
 7191W        W 9341  11.310   0.859  11.406  0.0482  0.1163  0.0793
 7192W        W 9342  13.594   4.555  22.207 -0.1658  0.0092 -0.1075
 7193W        W 9343  30.704   1.499   5.840 -0.2590 -0.2745  0.2475
 7194W        W 9344  21.540   0.155  16.389 -0.0381 -0.0953  0.0203
 7195W        W 9345  14.760   0.058  23.432  0.0935  0.0179  0.1990
 7196W        W 9346  29.476   4.617   0.216 -0.2836  0.0093  0.2832
 7197W        W 9347  13.104   6.810  19.644  0.2755  0.1106 -0.2076
 7198W        W 9348  21.416   0.436   4.339 -0.1012 -0.3016 -0.2509
 7199W        W 9349  15.906   2.264  18.549 -0.0179 -0.2089  0.1093
 7200W        W 9350   1.478   3.699   1.572  0.3097 -0.1515  0.3206
 7201W        W 9351   2.296   2.089   5.513  0.0714 -0.0354 -0.1020
 7202W        W 9352  14.435   5.770   4.283 -0.3354  0.0559  0.2451
 7203W        W 9353  14.922   3.512  26.136 -0.1249  0.0582  0.1959
 7204W        W 9354  23.044   1.716   6.681 -0.2519  0.0171 -0.1180
 7205W        W 9355  11.737   0.742   3.723  0.0288  0.1114 -0.1353
 7206W        W 9356  16.928   4.684  23.752  0.0383  0.0344 -0.1419
 7207W        W 9357  22.967   3.590  19.990 -0.0311 -0.1710 -0.4773
 7208W        W 9358  31.099   3.585  22.259  0.1549 -0.0836 -0.2229
 7209W        W 9359  29.163   2.425   7.457 -0.2000 -0.0571 -0.1218
 7210W        W 9360  26.095   2.934  25.020 -0.0496 -0.3052 -0.3094
 7211W        W 9361  18.686   6.990  19.790 -0.0652  0.2038  0.2558
 7212W        W 9362   5.366   5.935   9.915 -0.0949  0.2328 -0.3319
 7213W        W 9363  16.865   0.339  15.950  0.0047 -0.3476 -0.3171
 7214W        W 9364   7.594   7.099   2.205 -0.1437 -0.2813 -0.1872
 7215W        W 9365  15.998   4.290   9.438 -0.1387 -0.1124  0.0521
 7216W        W 9366   7.702   3.334  19.231  0.3214  0.0202  0.1488
 7217W        W 9367  23.036   1.029   2.342 -0.2921  0.0980  0.3428
 7218W        W 9368  24.960   4.831  18.104 -0.1185 -0.3023  0.3466
 7219W        W 9369  12.073   1.478  17.596 -0.3193  0.1213 -0.3225
 7220W        W 9370  11.749   6.196  19.130  0.1036 -0.0410 -0.1563
 7221W        W 9371  27.025   5.840   0.643 -0.0192  0.1979  0.2067
 7222W        W 9372  25.202   2.715   6.410  0.3078  0.2209  0.2293
 7223W        W 9373  29.569   1.681   9.251  0.1403 -0.2495 -0.1144
 7224W        W 9374  19.914   0.422   7.298 -0.3152  0.2390 -0.2633
 7225W        W 9375  10.178   6.774   1.248  0.1375 -0.2894  0.1130
 7226W        W 9376  10.237   0.184   1.688 -0.0902 -0.2233 -0.1025
 7227W        W 9377  19.862   5.501  23.325  0.1303 -0.1979  0.0315
 7228W        W 9378  11.160   4.224  21.470  0.0380 -0.1520  0.1177
 7229W        W 9379   1.024   0.038   6.135  0.1888 -0.2201 -0.0233
 7230W        W 9380   5.339   5.736  15.688 -0.0970  0.0843 -0.1206
 7231W        W 9381  10.862   6.256   2.350 -0.0598  0.4077  0.1581
 7232W        W 9382   6.986   1.630   5.644  0.2207  0.1979 -0.0232
 7233W        W 9383  25.248   4.890  23.354 -0.0797  0.2307  0.1119
 7234W        W 9384   8.367   4.265  11.667 -0.2641  0.3726  0.2430
 7235W        W 9385  19.981   0.366   9.594 -0.1627 -0.0686 -0.1690
 7236W        W 9386  14.948   2.271   6.200  0.2857  0.1954 -0.0087
 7237W        W 9387   1.790   3.020   4.892  0.2485  0.1175 -0.0724
 7238W        W 9388  20.029   1.137   1.533 -0.0331 -0.0217  0.0815
 7239W        W 9389   3.898   1.015  19.669  0.2258 -0.1187  0.1879
 7240W        W 9390   9.953   4.159  21.014 -0.1663  0.0516 -0.0831
 7241W        W 9391  30.012   5.841  21.788  0.0914 -0.0798 -0.2863
 7242W        W 9392  26.755   6.067   2.991 -0.1046 -0.1279 -0.0566
 7243W        W 9393  17.583   7.669  18.650 -0.1066  0.2547 -0.2339
 7244W        W 9394  18.408   1.847  20.394 -0.3756  0.2324 -0.2567
 7245W        W 9395   8.555   0.299  24.352 -0.1944 -0.2010 -0.0792
 7246W        W 9396  11.083   2.879  24.695  0.4599  0.0509 -0.3301
 7247W        W 9397   1.427   0.663   3.548 -0.2814 -0.1168 -0.0843
 7248W        W 9398   7.154   4.935   1.186 -0.1622  0.2463 -0.0069
 7249W        W 9399  25.101   6.196  24.983 -0.1484  0.2114  0.1556
 7250W        W 9400  28.614   5.311   5.342 -0.1314  0.0229 -0.0321
 7251W        W 9401   9.629   5.243   1.066  0.1979  0.1450 -0.1331
 7252W        W 9402   0.731   4.999  22.743  0.1720  0.4306 -0.1246
 7253W        W 9403  19.009   2.619   7.391  0.1765  0.0439 -0.2495
 7254W        W 9404  14.846   6.859  15.388  0.1057 -0.0450 -0.1888
 7255W        W 9405  26.293   4.388   3.680  0.1460 -0.0361 -0.1478
 7256W        W 9406  25.812   4.839  26.364 -0.5493 -0.1460 -0.0523
 7257W        W 9407  12.710   3.111  17.920 -0.4199 -0.0445  0.0377
 7258W        W 9408   3.272   1.095  23.828 -0.0196 -0.0741 -0.1547
 7259W        W 9409  10.243   5.572  19.258 -0.0113 -0.0693 -0.1158
 7260W        W 9410  29.100   7.555   3.732  0.0514  0.0384 -0.1170
 7261W        W 9411  19.647   2.201  18.334 -0.0005  0.0694  0.0957
 7262W        W 9412  23.093   2.934   3.942 -0.4552 -0.3684  0.0368
 7263W        W 9413   8.624   0.777   2.278  0.0587  0.2519 -0.1278
 7264W        W 9414   9.418   1.359  10.595  0.1807 -0.3842 -0.1461
 7265W        W 9415   1.510   0.103  20.868 -0.1587 -0.0506 -0.1937
 7266W        W 9416   4.379   4.310  23.040  0.2330 -0.4553 -0.2772
 7267W        W 9417  18.130   0.626   0.371 -0.3922 -0.1464  0.1679
 7268W        W 9418  19.616   5.036   4.730 -0.0912 -0.3877 -0.0004
 7269W        W 9419   0.694   3.798   9.363  0.2036 -0.1347 -0.2981
 7270W        W 9420   0.651   4.082  22.214 -0.0881 -0.3737 -0.2761
 7271W        W 9421  16.996   4.761  25.205  0.0141 -0.1351 -0.1368
 7272W        W 9422   1.812   3.369  22.514  0.2564 -0.1099  0.0048
 7273W        W 9423   9.796   0.154   9.872  0.1238 -0.3720  0.2420
 7274W        W 9424  29.627   4.027  18.505 -0.1975  0.1531  0.0613
 7275W        W 9425   0.644   1.951   0.667  0.0819  0.1986 -0.3425
 7276W        W 9426  25.159   1.147   7.848  0.0683 -0.1042 -0.0603
 7277W        W 9427   9.181   0.260  18.942  0.1834 -0.3734  0.0999
 7278W        W 9428  21.795   2.443  20.873 -0.1269 -0.1910  0.1379
 7279W        W 9429  29.407   3.408   4.581 -0.2452  0.1290  0.3024
 7280W        W 9430   6.851   0.066   7.575 -0.2827  0.1980  0.1294
 7281W        W 9431  27.215   4.604  21.843 -0.2069  0.1932  0.0522
 7282W        W 9432  21.818   1.611   1.843  0.0708  0.2132 -0.2557
 7283W        W 9433  31.074   0.889   2.487  0.0665 -0.0305  0.0512
 7284W        W 9434   5.514   4.222   9.051 -0.2462 -0.1116  0.2474
 7285W        W 9435   1.048   3.532   1.718  0.0264  0.2216  0.0536
 7286W        W 9436   7.850   7.050  21.144 -0.3906 -0.1510 -0.2530
 7287W        W 9437  21.056   0.804   4.412  0.2494 -0.0002 -0.2492
 7288W        W 9438   9.562   4.348  10.653 -0.2807 -0.3780  0.0710
 7289W        W 9439   5.033   1.490  23.295 -0.1331  0.1283 -0.2924
 7290W        W 9440   2.104   5.382  21.632  0.3181  0.1094  0.1787
 7291W        W 9441  25.130   3.035  11.383  0.3725 -0.2381 -0.0690
 7292W        W 9442   7.619   0.765   2.171  0.2205 -0.0593 -0.3902
 7293W        W 9443  22.799   6.206   9.172  0.0323  0.3186  0.0306
 7294W        W 9444  12.482   5.186   7.204  0.0061 -0.1627  0.1264
 7295W        W 9445  26.043   0.037  24.151  0.1743  0.0513 -0.2529
 7296W        W 9446  16.751   5.200  25.803 -0.0566 -0.0887  0.3180
 7297W        W 9447  19.971   0.617   3.333  0.3013 -0.3280  0.0929
 7298W        W 9448  20.023   5.660  11.043 -0.0818 -0.3401 -0.0948
 7299W        W 9449   9.251   1.628  23.086  0.1059  0.1424  0.0822
 7300W        W 9450  22.596   3.325  18.500  0.3641  0.1835 -0.0413
 7301W        W 9451  17.421   6.912   9.931  0.0541 -0.1468  0.1298
 7302W        W 9452  24.347   3.911  15.884 -0.0299 -0.0137  0.0006
 7303W        W 9453   2.384   6.915  23.076 -0.3004 -0.0870  0.1305
 7304W        W 9454  24.806   7.053   4.469  0.2372  0.3925  0.0494
 7305W        W 9455   7.371   6.905  25.304 -0.1253  0.0039 -0.1844
 7306W        W 9456  23.117   5.781  25.519  0.0886 -0.0444  0.1248
 7307W        W 9457  12.042   2.314  20.604 -0.0300  0.2603  0.2723
 7308W        W 9458   7.138   7.108  17.220 -0.1572 -0.1799  0.1760
 7309W        W 9459  29.590   7.137  15.784 -0.1023 -0.1468  0.0819
 7310W        W 9460  15.897   6.571   5.886  0.1257 -0.2045  0.0152
 7311W        W 9461  22.916   7.277   7.724  0.0245  0.1760  0.0641
 7312W        W 9462   7.604   3.289   7.003  0.2062  0.1912 -0.2567
 7313W        W 9463  28.197   5.665   4.846 -0.0860  0.1822  0.0118
 7314W        W 9464  27.990   3.319  10.696  0.2455  0.2253  0.2450
 7315W        W 9465  19.218   1.611   5.227  0.0628 -0.0174 -0.1351
 7316W        W 9466   5.954   5.582   4.902  0.1625 -0.2222 -0.0516
 7317W        W 9467   6.363   5.223  22.249 -0.1999  0.1138  0.0292
 7318W        W 9468   9.340   3.449   5.989  0.0824  0.0207  0.0265
 7319W        W 9469   7.874   7.159   9.734  0.1675  0.1558  0.1689
 7320W        W 9470  29.422   4.595  20.267 -0.1358 -0.0121  0.2688
 7321W        W 9471  11.778   6.054  17.796 -0.0749  0.0138 -0.3196
 7322W        W 9472   4.115   3.503  23.473  0.1385  0.1136  0.1426
 7323W        W 9473  17.331   4.971  23.091  0.0361 -0.1815  0.2525
 7324W        W 9474  15.628   0.941  16.329 -0.1573 -0.3733 -0.3146
 7325W        W 9475  18.232   6.078   7.287  0.1205 -0.0413 -0.0237
 7326W        W 9476   9.517   3.535  21.349 -0.2670 -0.1090  0.3385
 7327W        W 9477  18.251   0.434   4.225 -0.0863  0.0191  0.3078
 7328W        W 9478  15.731   2.265  21.835 -0.2895 -0.1676  0.0025
 7329W        W 9479  28.736   1.227   4.920  0.0669 -0.3103  0.1474
 7330W        W 9480   5.376   6.137  20.804  0.0136  0.0461 -0.0606
 7331W        W 9481  20.546   1.039   1.592 -0.4363  0.2429  0.0005
 7332W        W 9482   6.940   5.748  17.671 -0.0672 -0.0783 -0.1141
 7333W        W 9483   6.954   7.550  17.397 -0.1603 -0.1195  0.0797
 7334W        W 9484  28.920   6.093  10.140  0.1943  0.2855 -0.2299
 7335W        W 9485  23.837   4.111   0.040  0.3821 -0.2077 -0.0146
 7336W        W 9486  14.382   1.551  18.042  0.0783 -0.3226 -0.3190
 7337W        W 9487   6.910   4.133  15.826  0.0158  0.3568 -0.0623
 7338W        W 9488  16.840   5.650   7.653  0.2364  0.0466 -0.1179
 7339W        W 9489  10.136   6.441  19.627  0.0894  0.1197 -0.0408
 7340W        W 9490   1.937   3.517   5.579  0.0758 -0.0546  0.1775
 7341W        W 9491  21.037   3.180   1.055 -0.5300 -0.0602 -0.2494
 7342W        W 9492  30.982   1.854   9.154 -0.0139 -0.3146 -0.0978
 7343W        W 9493   6.124   5.237   8.009  0.2081  0.1512 -0.0814
 7344W        W 9494  15.189   3.731  20.298 -0.0506  0.0208  0.1401
 7345W        W 9495  21.281   0.239  11.515 -0.1283  0.2518 -0.0352
 7346W        W 9496  19.772   3.856   1.307 -0.0442  0.1934 -0.3109
 7347W        W 9497   7.004   0.573  15.828  0.1023 -0.2922  0.3610
 7348W        W 9498  25.682   4.367   5.029 -0.0599  0.1981  0.0906
 7349W        W 9499  16.897   7.430  20.575 -0.2235 -0.0542 -0.1085
 7350W        W 9500   7.841   0.626   8.071  0.1654 -0.1514 -0.0142
 7351W        W 9501   8.102   1.398  16.915  0.2264  0.0577 -0.0124
 7352W        W 9502   7.615   3.097   1.030  0.0461  0.0718 -0.0846
 7353W        W 9503  24.135   1.352   2.579 -0.2439 -0.0873 -0.2090
 7354W        W 9504   3.503   3.348   7.052 -0.0196 -0.0489  0.0071
 7355W        W 9505  23.582   3.658   2.051 -0.0608 -0.0469 -0.0127
 7356W        W 9506  28.495   1.429  22.307  0.0924 -0.1734  0.1309
 7357W        W 9507   3.997   5.608  25.893  0.0090 -0.0639 -0.3436
 7358W        W 9508   7.857   1.056   5.124  0.1744  0.0999  0.2198
 7359W        W 9509  13.737   0.600  21.752 -0.1931 -0.0994  0.0779
 7360W        W 9510  15.094   1.869  16.203 -0.1212  0.1361 -0.2041
 7361W        W 9511  26.431   2.155  25.403 -0.0967 -0.0177 -0.0167
 7362W        W 9512  19.259   7.628   3.782  0.1216  0.0839 -0.1224
 7363W        W 9513  20.546   2.760   8.671 -0.1493 -0.4743 -0.2507
 7364W        W 9514  17.692   2.327  19.459  0.0807 -0.2812  0.1697
 7365W        W 9515  29.498   3.440  25.623 -0.2819  0.1041 -0.4718
 7366W        W 9516  21.047   0.866  16.171  0.2338  0.1952  0.0190
 7367W        W 9517   9.908   2.860  16.513 -0.1235 -0.1246  0.3225
 7368W        W 9518  20.273   2.013  26.162 -0.1358 -0.0108 -0.1420
 7369W        W 9519  15.873   0.177  19.935  0.0831  0.0231  0.1794
 7370W        W 9520  19.455   2.186  20.348  0.0719  0.0071  0.0035
 7371W        W 9521  25.430   7.416   0.804 -0.2590 -0.2109 -0.2279
 7372W        W 9522  12.143   2.843   6.954  0.2625 -0.0928  0.1116
 7373W        W 9523   2.851   7.189   6.121 -0.1766  0.1639 -0.3703
 7374W        W 9524   0.381   0.576  19.327 -0.0270 -0.0005 -0.0473
 7375W        W 9525  20.298   1.201  23.094  0.1202 -0.0740 -0.2212
 7376W        W 9526  11.704   4.830  11.006  0.1938 -0.4908  0.0190
 7377W        W 9527  13.381   0.599  19.109 -0.2573 -0.1780  0.0153
 7378W        W 9528   8.931   4.586  21.329  0.1052 -0.1729  0.0130
 7379W        W 9529   3.447   1.936  23.500 -0.1453 -0.2311 -0.0737
 7380W        W 9530   4.877   3.619   1.740 -0.1148  0.0072 -0.3478
 7381W        W 9531   7.909   5.721   7.972 -0.1469  0.1021 -0.1762
 7382W        W 9532  23.326   4.613  24.332 -0.2120 -0.2544 -0.1431
 7383W        W 9533  18.291   3.185   5.745  0.0132 -0.0012  0.1493
 7384W        W 9534   3.622   4.896  18.521  0.2031 -0.0923  0.0290
 7385W        W 9535   6.788   2.618   6.681  0.1407 -0.1467  0.1424
 7386W        W 9536  20.848   6.443   1.514 -0.0694  0.0690 -0.2522
 7387W        W 9537   3.424   6.721  23.984 -0.1789  0.0768  0.1898
 7388W        W 9538  28.598   5.827   4.016 -0.2302  0.0967 -0.0117
 7389W        W 9539   8.606   0.623  17.682 -0.0485 -0.0590 -0.0792
 7390W        W 9540  18.049   7.675  22.457  0.0610  0.3091 -0.0550
 7391W        W 9541  19.347   6.850  20.900 -0.2275  0.0734 -0.1111
 7392W        W 9542  14.730   5.884  19.152  0.1933 -0.1032 -0.0271
 7393W        W 9543  30.662   2.096   1.425  0.1923 -0.0279  0.1401
 7394W        W 9544  29.371   7.788   1.182  0.1214  0.0899  0.2656
 7395W        W 9545  13.453   7.524   8.743 -0.2264  0.0591 -0.1003
 7396W        W 9546  21.413   5.810  24.788  0.1014 -0.0911 -0.2500
 7397W        W 9547  14.389   7.192   8.315  0.1456 -0.1073  0.0714
 7398W        W 9548  31.146   6.400  23.826 -0.0994 -0.2608  0.0021
 7399W        W 9549   7.281   3.791  17.867  0.0482 -0.1682 -0.0008
 7400W        W 9550  30.064   2.062  18.573 -0.0168  0.0800  0.1857
 7401W        W 9551  12.438   1.129  21.775 -0.0430  0.2044 -0.2639
 7402W        W 9552  14.812   4.148  24.026  0.3418 -0.0414  0.2292
 7403W        W 9553  16.943   5.094   4.355 -0.0044 -0.0774  0.2845
 7404W        W 9554   0.234   1.763   5.196  0.0202  0.2651 -0.0569
 7405W        W 9555  20.343   1.747  25.196  0.1754 -0.0384 -0.1992
 7406W        W 9556  11.044   2.872  10.327 -0.2014  0.0490  0.3754
 7407W        W 9557  30.815   1.883  24.345 -0.0242  0.1324  0.0459
 7408W        W 9558   8.037   0.603  22.348 -0.3132  0.0101  0.0994
 7409W        W 9559  24.856   3.006  24.197  0.0345 -0.0566  0.0859
 7410W        W 9560   6.915   7.379   8.956 -0.1216 -0.0362  0.1189
 7411W        W 9561  20.852   6.438   2.661  0.3571 -0.3859 -0.0274
 7412W        W 9562  19.811   4.465   0.655 -0.0527  0.2950 -0.0394
 7413W        W 9563  22.968   2.375   9.799  0.0113  0.0229 -0.0404
 7414W        W 9564  22.298   1.412   7.195  0.0166 -0.0708  0.0648
 7415W        W 9565  31.042   3.277  21.859 -0.1704  0.1712 -0.1680
 7416W        W 9566  24.298   5.953   9.182  0.0135 -0.0523 -0.0841
 7417W        W 9567   4.951   5.378  17.707  0.3945 -0.0847 -0.1524
 7418W        W 9568   3.061   6.238  18.437 -0.1435  0.3748 -0.1186
 7419W        W 9569  11.127   2.953   1.857  0.4832 -0.1162  0.1031
 7420W        W 9570  12.747   5.780  10.400 -0.2096  0.0323  0.0612
 7421W        W 9571  17.442   2.535   2.157 -0.0604  0.2923  0.1685
 7422W        W 9572  25.852   6.066  18.525  0.0274 -0.0016 -0.3200
 7423W        W 9573  16.994   7.162  26.315  0.0172 -0.1977 -0.0464
 7424W        W 9574   0.209   7.245  18.936 -0.0202 -0.0086 -0.0484
 7425W        W 9575  18.551   7.574  21.442  0.2655 -0.0611 -0.2020
 7426W        W 9576   0.796   0.913  19.165  0.0393 -0.2609  0.1282
 7427W        W 9577  15.719   3.138   7.324  0.2174  0.4702 -0.2562
 7428W        W 9578   2.874   4.704  23.379  0.1867 -0.1372 -0.0236
 7429W        W 9579  11.334   7.013   9.963  0.2668  0.0360  0.2244
 7430W        W 9580  25.266   5.071  26.340 -0.0738 -0.1175  0.2020
 7431W        W 9581  30.463   6.996  24.079 -0.5173  0.1762  0.0378
 7432W        W 9582  27.244   5.958   6.823  0.0531  0.0263  0.1495
 7433W        W 9583  11.997   7.192   1.865  0.0247 -0.1410 -0.1590
 7434W        W 9584   5.406   4.842   1.692  0.4297 -0.3814 -0.1251
 7435W        W 9585   9.500   3.324  10.778  0.1071 -0.1034 -0.0122
 7436W        W 9586  27.819   3.052  23.188  0.2188  0.0764  0.2457
 7437W        W 9587  21.850   6.774  19.259  0.0731 -0.1500  0.1018
 7438W        W 9588   9.917   1.803  19.436  0.0461  0.0513 -0.1974
 7439W        W 9589   3.704   0.671  18.217  0.0440  0.3922 -0.2362
 7440W        W 9590  19.554   6.369   2.261 -0.1289 -0.0376  0.1101
 7441W        W 9591  12.098   6.908   3.358  0.2948  0.0802 -0.0570
 7442W        W 9592   1.237   7.256   9.711  0.1225 -0.3600  0.1146
 7443W        W 9593  29.540   1.517  16.851 -0.1258 -0.1516  0.0054
 7444W        W 9594   8.724   6.812  16.668  0.1246 -0.1976  0.3342
 7445W        W 9595   1.327   1.363   8.798  0.1484  0.0411  0.2255
 7446W        W 9596  10.976   6.476   8.378  0.0342 -0.0063  0.1763
 7447W        W 9597  19.063   1.178  23.947  0.1053 -0.1686  0.0676
 7448W        W 9598  10.552   3.054   0.709 -0.0402 -0.0119  0.1380
 7449W        W 9599   1.853   2.285   8.658 -0.0458 -0.1688 -0.2974
 7450W        W 9600  14.097   4.286   2.962 -0.1210 -0.1114 -0.1828
 7451W        W 9601  27.235   3.854   0.767  0.2042  0.0282  0.3235
 7452W        W 9602  26.165   6.313   2.821  0.1243  0.0841 -0.1301
 7453W        W 9603  16.413   1.237  22.403  0.1576 -0.2361 -0.0369
 7454W        W 9604  18.862   3.112  14.993  0.3021  0.4428 -0.3038
 7455W        W 9605  21.509   3.916  10.423 -0.3409  0.0055 -0.0592
 7456W        W 9606   6.576   4.674  16.179  0.1813 -0.2078 -0.0859
 7457W        W 9607  22.800   2.271   6.555 -0.3319 -0.0284  0.2251
 7458W        W 9608  29.870   6.929   1.387 -0.0332  0.1694  0.3826
 7459W        W 9609   3.949   7.724  19.915 -0.1724  0.0999  0.0035
 7460W        W 9610   7.502   4.545  20.276  0.0544 -0.1554 -0.1102
 7461W        W 9611  14.449   6.674  20.059  0.2290 -0.2417 -0.1427
 7462W        W 9612   2.901   1.824  18.036 -0.0028  0.1726 -0.0498
 7463W        W 9613  17.109   5.409  20.134 -0.1161 -0.0109  0.1832
 7464W        W 9614  10.692   1.059  24.341 -0.1527  0.1815  0.2831
 7465W        W 9615  24.593   4.800  16.365 -0.1066 -0.1526 -0.5417
 7466W        W 9616  27.007   5.349  26.349 -0.0052  0.1725 -0.1344
 7467W        W 9617  12.926   5.071  19.716 -0.1924 -0.2790 -0.0837
 7468W        W 9618   7.413   4.464  24.913 -0.0337 -0.1834 -0.1834
 7469W        W 9619  10.397   1.455  24.483  0.0402  0.1071 -0.1823
 7470W        W 9620  28.649   6.617  17.708 -0.3918 -0.2883 -0.1490
 7471W        W 9621  16.714   1.901   1.892  0.1266 -0.0972  0.0642
 7472W        W 9622  13.418   6.047  16.864 -0.0210 -0.0994 -0.1114
 7473W        W 9623  21.116   4.832  10.027  0.4173  0.0229  0.0228
 7474W        W 9624   3.332   5.936  18.692  0.2799 -0.1307 -0.5136
 7475W        W 9625   8.138   0.030   2.176 -0.1491  0.0527 -0.0457
 7476W        W 9626  22.654   3.441  22.867 -0.0128 -0.0081  0.1731
 7477W        W 9627  29.658   7.620  19.409  0.0046  0.2367 -0.0877
 7478W        W 9628  25.261   4.922  17.170  0.0300 -0.0137 -0.0078
 7479W        W 9629  21.759   4.513  18.784 -0.0464  0.1683  0.0720
 7480W        W 9630  14.527   7.315   0.384 -0.0875  0.0536  0.0524
 7481W        W 9631  30.916   1.311   2.194 -0.1882 -0.1858  0.3645
 7482W        W 9632  16.365   4.443   5.617  0.3462  0.1626 -0.0145
 7483W        W 9633   5.787   7.516  18.202 -0.1816  0.0200 -0.0550
 7484W        W 9634   4.410   0.471   5.372 -0.2416 -0.0480  0.2786
 7485W        W 9635   0.965   4.795   6.622 -0.3229  0.0095 -0.0680
 7486W        W 9636   4.552   6.019   3.640 -0.2118  0.2103 -0.1547
 7487W        W 9637  29.983   2.497  18.809 -0.0777  0.1642 -0.1816
 7488W        W 9638  23.709   5.987  17.417 -0.1846  0.0003 -0.0533
 7489W        W 9639  12.192   5.630   7.589  0.1819 -0.1377 -0.0685
 7490W        W 9640   4.315   6.068   4.092 -0.1051 -0.0021  0.0977
 7491W        W 9641   5.531   5.377   0.939 -0.2243 -0.0949 -0.1546
 7492W        W 9642  23.434   5.818  17.986 -0.0944  0.2066  0.1337
 7493W        W 9643  15.619   3.131  23.488  0.0867 -0.1331  0.1868
 7494W        W 9644  15.625   3.107  26.359 -0.1424 -0.3651 -0.0442
 7495W        W 9645  10.716   1.254  23.534  0.1204  0.0449  0.2868
 7496W        W 9646  27.987   3.610   4.018 -0.2323 -0.1119  0.2516
 7497W        W 9647   2.375   3.408  19.193 -0.2444  0.3036 -0.2360
 7498W        W 9648  23.612   3.685   0.266  0.3857 -0.1796 -0.1491
 7499W        W 9649  18.290   3.205  20.969  0.2937  0.2482  0.0647
 7500W        W 9650  21.174   5.306  23.234 -0.2411  0.0189 -0.1225
 7501W        W 9651   7.222   1.885  22.799 -0.0472 -0.2600  0.0588
 7502W        W 9652  24.282   6.155   5.210  0.0115 -0.1144 -0.1185
 7503W        W 9653  16.643   4.706  15.158 -0.2196  0.1824  0.1494
 7504W        W 9654   9.803   7.089  26.334  0.0545  0.0996  0.0538
 7505W        W 9655  28.770   0.562   6.325  0.0626  0.1287 -0.0548
 7506W        W 9656  12.049   6.930   2.665 -0.0031 -0.1946  0.1068
 7507W        W 9657   5.384   3.504  21.639  0.2772 -0.1267  0.2071
 7508W        W 9658  23.069   5.550  18.014  0.1425 -0.0006  0.0211
 7509W        W 9659  24.410   2.956  22.863  0.3398  0.0374 -0.1353
 7510W        W 9660   6.067   1.294  19.081  0.0206  0.1082 -0.1341
 7511W        W 9661   4.256   5.777   7.007 -0.2459 -0.2883  0.0265
 7512W        W 9662  13.662   0.401   7.415 -0.1788 -0.0916  0.0890
 7513W        W 9663  24.398   4.843  22.123  0.2202 -0.1441 -0.0940
 7514W        W 9664   4.882   3.603  16.858  0.2549  0.0355  0.0925
 7515W        W 9665  10.182   1.201   8.638 -0.1270 -0.1290  0.1582
 7516W        W 9666  28.983   2.667  25.800  0.0778  0.0135  0.0571
 7517W        W 9667   1.270   4.003   2.568 -0.0914  0.0247  0.0849
 7518W        W 9668  11.238   3.463  15.594  0.2472 -0.1251  0.0693
 7519W        W 9669  13.437   3.271  18.408  0.1933  0.1519  0.0389
 7520W        W 9670  10.059   4.113  18.159 -0.0121  0.2969 -0.2319
 7521W        W 9671   1.527   7.284  25.859  0.1222  0.1210  0.2102
 7522W        W 9672  10.279   3.245  16.390 -0.2106  0.0207  0.1548
 7523W        W 9673   3.356   4.027   1.023 -0.1386 -0.1461  0.0251
 7524W        W 9674  12.510   5.264   7.739  0.0281 -0.0501 -0.0063
 7525W        W 9675  26.918   0.596   6.739 -0.3566  0.0031  0.1916
 7526W        W 9676   3.843   5.005  24.682 -0.0425 -0.0208  0.2687
 7527W        W 9677  23.779   6.633   8.167 -0.0077 -0.0529 -0.3749
 7528W        W 9678   7.420   3.683  16.844 -0.2342 -0.0727 -0.0604
 7529W        W 9679   3.523   1.051   3.852  0.1570  0.0558 -0.1163
 7530W        W 9680   9.099   3.131  20.414 -0.0480  0.2988  0.0974
 7531W        W 9681  23.279   3.942  19.630  0.2304 -0.1199 -0.0922
 7532W        W 9682  12.803   1.399   4.728 -0.3500  0.3320 -0.1938
 7533W        W 9683  14.524   5.156   1.292 -0.1249 -0.1447  0.0950
 7534W        W 9684  29.851   3.574  23.459 -0.2367 -0.1366 -0.1821
 7535W        W 9685  14.795   2.296  25.576  0.3873 -0.1788  0.1270
 7536W        W 9686   4.346   0.733   8.605 -0.1097 -0.0360 -0.1859
 7537W        W 9687   4.670   1.784   1.046  0.1786  0.0311  0.0446
 7538W        W 9688  20.741   4.260   3.800 -0.1476 -0.0349 -0.0170
 7539W        W 9689   7.520   4.536  22.186 -0.4659  0.0849 -0.0458
 7540W        W 9690   8.766   4.358   3.929  0.0046 -0.1981 -0.1203
 7541W        W 9691  22.019   0.063  20.744 -0.1758 -0.1345  0.3869
 7542W        W 9692   4.531   2.830   4.467  0.0695  0.1351  0.1840
 7543W        W 9693  11.856   0.540   2.498 -0.4330  0.0233 -0.0070
 7544W        W 9694  16.914   0.278   9.786 -0.0356  0.2602  0.2480
 7545W        W 9695  28.929   3.789   6.497  0.0728 -0.0879  0.0281
 7546W        W 9696   6.165   4.725   7.427 -0.1921  0.0610 -0.1053
 7547W        W 9697  24.726   7.171  26.088 -0.3791  0.0233 -0.0365
 7548W        W 9698  10.438   2.591  11.564 -0.0843 -0.0445  0.1882
 7549W        W 9699  22.017   0.465  23.045 -0.0523  0.0038 -0.4362
 7550W        W 9700  20.730   0.160  24.438 -0.2809 -0.0353 -0.0394
 7551W        W 9701  10.333   2.020   7.146  0.0713 -0.3015 -0.3407
 7552W        W 9702  25.410   6.674   1.917 -0.1390  0.1597 -0.4153
 7553W        W 9703  19.993   6.079  26.244  0.0225  0.1078  0.1654
 7554W        W 9704  19.378   1.526  16.658 -0.1440 -0.0913  0.0475
 7555W        W 9705  23.661   2.504   9.099  0.2768 -0.3758  0.1466
 7556W        W 9706  21.816   3.456   8.995 -0.1755 -0.0241  0.4096
 7557W        W 9707  12.902   5.101  20.680 -0.0476  0.1824  0.3941
 7558W        W 9708  23.851   4.636   9.759  0.0194  0.2713 -0.2348
 7559W        W 9709  30.144   5.099  15.848 -0.3241  0.1499  0.1066
 7560W        W 9710  23.844   4.649   6.819  0.2169  0.2382 -0.1897
 7561W        W 9711   4.876   2.559  19.503  0.1373 -0.1769 -0.2453
 7562W        W 9712  11.748   4.324  10.926 -0.0576 -0.0061 -0.0274
 7563W        W 9713  26.327   3.681  16.510 -0.0221  0.1524 -0.1277
 7564W        W 9714  14.144   6.591  15.285 -0.2329 -0.0839 -0.1451
 7565W        W 9715  19.680   4.329  11.374 -0.1213 -0.1152  0.2318
 7566W        W 9716  20.358   1.312  16.148  0.0384  0.3331  0.0446
 7567W        W 9717  30.790   0.553   6.632 -0.1173  0.1857  0.1115
 7568W        W 9718   8.468   2.753   0.723 -0.0769 -0.2018 -0.1900
 7569W        W 9719  25.136   6.613  21.661  0.2489 -0.1449 -0.1655
 7570W        W 9720   1.093   1.505   9.266 -0.2811  0.1821 -0.1330
 7571W        W 9721  24.447   7.507   2.210 -0.2704  0.0502  0.1668
 7572W        W 9722  10.885   3.108   1.473  0.1705 -0.4518 -0.0782
 7573W        W 9723   5.580   3.364   2.929 -0.2271 -0.2322 -0.0507
 7574W        W 9724   3.931   6.159  24.007  0.1164  0.0535  0.1531
 7575W        W 9725  16.255   3.230  24.330  0.4039  0.0936 -0.0598
 7576W        W 9726   8.419   4.092   1.699 -0.2725  0.1874  0.0384
 7577W        W 9727  14.855   6.991   3.770  0.0231  0.2459  0.0424
 7578W        W 9728   9.931   6.585   7.942 -0.0353  0.2123  0.0174
 7579W        W 9729  23.301   2.450  26.109 -0.2293  0.0533 -0.2538
 7580W        W 9730  28.263   2.199   7.075  0.0190 -0.1909 -0.1290
 7581W        W 9731  29.003   2.122  22.090  0.1164 -0.0773  0.2795
 7582W        W 9732  18.040   7.766   4.889  0.3622  0.1739 -0.0020
 7583W        W 9733   9.993   0.122  23.891 -0.0875  0.3003 -0.0217
 7584W        W 9734  25.415   4.626   6.941 -0.2086  0.1270 -0.2251
 7585W        W 9735  18.947   4.822   3.621  0.0249 -0.1730  0.1070
 7586W        W 9736   0.196   7.404  20.219 -0.2489 -0.0842 -0.1151
 7587W        W 9737   4.296   4.616  10.544 -0.0591 -0.0816  0.0043
 7588W        W 9738  25.131   4.845  25.803  0.1345 -0.1288 -0.0908
 7589W        W 9739  28.811   3.343   3.304 -0.0740 -0.0226  0.1457
 7590W        W 9740   8.872   2.632  23.701 -0.0966  0.0141  0.1462
 7591W        W 9741  10.134   6.123  24.564 -0.2420 -0.5128  0.2751
 7592W        W 9742  16.652   3.928   9.966  0.2892  0.0247  0.0134
 7593W        W 9743   4.484   3.146   0.967 -0.1865 -0.2305  0.1498
 7594W        W 9744  18.494   4.395   7.711 -0.1230  0.0816 -0.3001
 7595W        W 9745   8.046   4.561  22.836 -0.1052 -0.3088  0.1994
 7596W        W 9746  14.683   4.637  20.015  0.2716 -0.0336 -0.0537
 7597W        W 9747   7.080   3.431   2.482 -0.3815 -0.1074 -0.0653
 7598W        W 9748  12.797   3.657  16.911 -0.0667 -0.1226  0.0853
 7599W        W 9749  14.818   6.288   7.851 -0.1332 -0.0304  0.0987
 7600W        W 9750  22.328   3.469   8.241 -0.1125 -0.0966 -0.0939
 7601W        W 9751  18.098   3.706   7.128 -0.1402  0.3095  0.0632
 7602W        W 9752  12.705   6.363  23.406  0.3892  0.1364  0.1204
 7603W        W 9753  31.090   3.088   5.269 -0.2007  0.1184  0.1611
 7604W        W 9754  30.875   1.157  20.241  0.0481 -0.0910  0.2432
 7605W        W 9755  13.522   5.268   1.580  0.0189  0.0574  0.1148
 7606W        W 9756   5.160   4.419  22.464  0.1655 -0.2155 -0.0824
 7607W        W 9757  23.712   2.631  18.483  0.3448  0.2203  0.0000
 7608W        W 9758  20.003   7.623   8.939  0.1248  0.1621 -0.0128
 7609W        W 9759  25.494   0.944   0.927 -0.0880  0.0119  0.2228
 7610W        W 9760  12.447   3.235  16.102 -0.0461  0.0639  0.2722
 7611W        W 9761  19.094   2.384  22.293 -0.0888 -0.0248  0.2347
 7612W        W 9762  12.120   6.860  19.466 -0.1398 -0.1937 -0.3108
 7613W        W 9763  29.131   1.102   8.464 -0.0843 -0.0626 -0.1483
 7614W        W 9764  23.075   0.877  22.966 -0.1132  0.0882  0.1172
 7615W        W 9765   1.845   7.551  23.024  0.0566  0.2771 -0.3372
 7616W        W 9766  31.201   6.701   0.122 -0.1764 -0.0977 -0.1457
 7617W        W 9767  14.567   0.711  20.283 -0.0459 -0.3918 -0.0717
 7618W        W 9768  11.130   3.431  25.321  0.4622 -0.0361 -0.2196
 7619W        W 9769  25.235   3.346   5.226  0.3382 -0.1063  0.0633
 7620W        W 9770  27.945   6.706  18.368  0.0108  0.0336 -0.1021
 7621W        W 9771  13.203   6.004  17.314 -0.0882 -0.0550  0.0256
 7622W        W 9772  10.297   2.942  15.543  0.1455 -0.1220 -0.2571
 7623W        W 9773  23.168   4.902  22.720  0.1227  0.0837 -0.0769
 7624W        W 9774  22.712   7.450  12.055  0.1768  0.1679 -0.1099
 7625W        W 9775  23.947   1.972  21.528  0.0313 -0.2440 -0.1747
 7626W        W 9776  27.914   6.390  21.053  0.0916  0.2311 -0.0394
 7627W        W 9777   8.547   0.526  18.744  0.0369  0.2149 -0.1143
 7628W        W 9778  19.834   4.947  15.908  0.2090 -0.1036 -0.1450
 7629W        W 9779  14.746   5.027   8.113  0.1824  0.0143  0.0442
 7630W        W 9780   2.648   7.729   0.397 -0.1137 -0.3323  0.0496
 7631W        W 9781  21.940   2.914  19.080 -0.2680  0.0666 -0.0228
 7632W        W 9782   5.894   4.496   1.058 -0.2253  0.1110  0.1148
 7633W        W 9783  22.174   6.332  21.942 -0.0166 -0.1896 -0.0385
 7634W        W 9784  26.952   3.353  10.747 -0.0309 -0.3141  0.0673
 7635W        W 9785   2.063   2.251  17.760  0.2756 -0.0415  0.0304
 7636W        W 9786  19.514   3.607  25.414 -0.1955 -0.0795 -0.2886
 7637W        W 9787  25.897   4.044   0.919  0.1576 -0.1096 -0.0533
 7638W        W 9788  13.504   0.209   6.861  0.0765 -0.1812 -0.0036
 7639W        W 9789  29.803   6.096  23.035 -0.3150  0.1778 -0.0700
 7640W        W 9790  24.990   4.855   9.679 -0.1550 -0.0366  0.0913
 7641W        W 9791  22.234   6.145   1.584  0.1526 -0.1140  0.0383
 7642W        W 9792   8.691   4.574   7.961  0.1143 -0.0385 -0.0747
 7643W        W 9793  16.410   0.929   2.772 -0.0687 -0.2461 -0.1152
 7644W        W 9794  28.039   5.938   4.103  0.0085  0.2345  0.1270
 7645W        W 9795  25.664   5.335  21.854  0.2103  0.4920 -0.2954
 7646W        W 9796  16.575   1.988   4.280 -0.0738  0.0004  0.0246
 7647W        W 9797  21.611   7.690  24.929  0.0793 -0.1552  0.3756
 7648W        W 9798  15.618   3.917  10.199  0.0760 -0.2205 -0.1153
 7649W        W 9799  28.678   3.216  24.144  0.0092  0.4848 -0.0725
 7650W        W 9800  19.216   7.692  25.142  0.3327 -0.1722 -0.0968
 7651W        W 9801  28.018   1.340   5.403 -0.0194  0.2310  0.2699
 7652W        W 9802  27.503   6.592   0.009  0.2608 -0.0187 -0.1963
 7653W        W 9803  21.135   4.793   2.272 -0.0740  0.0493 -0.3047
 7654W        W 9804  11.197   4.194  19.536 -0.0191  0.0718  0.1063
 7655W        W 9805  13.883   6.891  16.910 -0.2545  0.2944 -0.1995
 7656W        W 9806  27.871   6.628   8.552 -0.1470 -0.1402  0.2337
 7657W        W 9807   9.446   0.704  24.636 -0.2256  0.3541 -0.0234
 7658W        W 9808   8.677   3.244   8.285  0.1965 -0.0300  0.0886
 7659W        W 9809   0.614   3.678  22.869 -0.2755 -0.0665 -0.2336
 7660W        W 9810  30.491   2.399   5.818 -0.0412  0.3763 -0.0928
 7661W        W 9811  14.119   3.337   3.171  0.1884 -0.1803  0.0359
 7662W        W 9812  16.337   1.090   0.787 -0.1166  0.1391  0.2858
 7663W        W 9813  20.677   1.066  23.401  0.0296 -0.0497  0.1759
 7664W        W 9814   2.896   0.332  23.922  0.0341 -0.1246 -0.2113
 7665W        W 9815  19.241   0.055  21.990 -0.1166 -0.0068  0.0745
 7666W        W 9816  29.230   5.748  23.108 -0.5212  0.0785 -0.1464
 7667W        W 9817  21.183   2.626   4.003 -0.1103 -0.2292  0.2322
 7668W        W 9818   0.821   3.869  20.439  0.4526 -0.1069 -0.1306
 7669W        W 9819  21.144   0.488  16.969  0.3842  0.0138  0.1789
 7670W        W 9820  15.518   4.574   8.123  0.1840  0.1706 -0.2098
 7671W        W 9821  11.842   6.840   3.876  0.1995 -0.0673  0.1161
 7672W        W 9822   2.002   5.835   4.889 -0.1369 -0.0190  0.2919
 7673W        W 9823  10.939   1.216   9.627  0.2984 -0.1035  0.2034
 7674W        W 9824   5.154   6.617   2.697 -0.1894 -0.1617 -0.0274
 7675W        W 9825   9.559   4.859   4.032 -0.0712  0.0817  0.2537
 7676W        W 9826   0.321   7.212  17.764  0.1355 -0.1818  0.2789
 7677W        W 9827  23.121   6.731   0.968 -0.0286  0.1956 -0.3403
 7678W        W 9828  12.483   1.521  20.516  0.2063 -0.0521  0.2653
 7679W        W 9829  23.449   6.367  21.028 -0.1861  0.1053 -0.1489
 7680W        W 9830  16.740   0.849  25.015 -0.0443 -0.1504 -0.1462
 7681W        W 9831   4.258   3.103  16.544  0.0585 -0.3405 -0.1030
 7682W        W 9832  22.447   0.713   7.264 -0.1019  0.2768  0.3261
 7683W        W 9833   5.734   2.749  20.942  0.1634 -0.0746  0.2491
 7684W        W 9834  20.158   5.157  19.274 -0.1002 -0.0454 -0.0750
 7685W        W 9835  13.576   4.996   2.493  0.0724  0.0097  0.1424
 7686W        W 9836  27.587   0.452   8.712 -0.1155 -0.1964  0.0782
 7687W        W 9837  18.810   0.822  22.909 -0.3044  0.0552 -0.1894
 7688W        W 9838  29.218   0.746   9.315 -0.2756 -0.2806  0.1278
 7689W        W 9839  28.401   2.501   8.051 -0.1006  0.1005  0.0288
 7690W        W 9840  25.350   3.136  16.247  0.0944 -0.0262  0.3194
 7691W        W 9841   4.566   7.067   8.839  0.0960  0.1373 -0.1193
 7692W        W 9842  13.479   2.254  20.737 -0.0272 -0.0911 -0.0231
 7693W        W 9843  19.408   7.387  20.150  0.1374  0.0772  0.1999
 7694W        W 9844  17.987   7.461   3.806  0.0204  0.1727 -0.0939
 7695W        W 9845  30.000   1.673   2.305  0.1848  0.3671 -0.0388
 7696W        W 9846   4.042   5.116  10.440 -0.1446  0.1027  0.2474
 7697W        W 9847   3.029   7.762  18.181 -0.1194  0.0480 -0.0129
 7698W        W 9848   5.813   4.397  24.554  0.1704 -0.1875  0.0903
 7699W        W 9849  12.222   3.873   2.795 -0.0988  0.2482  0.0864
 7700W        W 9850   4.829   6.058  16.981  0.2587 -0.1266  0.0207
 7701W        W 9851  22.195   3.261   4.396 -0.1545  0.1274  0.0745
 7702W        W 9852  18.330   2.388  21.118 -0.3154 -0.0925 -0.0999
 7703W        W 9853   2.027   2.972  15.126 -0.1156  0.1150  0.1249
 7704W        W 9854  15.438   7.195  19.783  0.2842  0.1534 -0.1371
 7705W        W 9855  14.046   0.499   2.471 -0.0646  0.0859  0.1939
 7706W        W 9856  27.971   6.970   4.154  0.0306 -0.0450 -0.0750
 7707W        W 9857  20.511   5.398  10.943  0.0795  0.1540  0.1967
 7708W        W 9858  11.431   3.931  21.121  0.3465  0.3887  0.0663
 7709W        W 9859  16.979   7.686  19.040  0.1362 -0.1255  0.0760
 7710W        W 9860   3.131   0.730  22.445 -0.1366  0.1230  0.0085
 7711W        W 9861  14.812   5.205   9.624 -0.2314 -0.0716 -0.1101
 7712W        W 9862  31.182   0.683  10.572 -0.3508  0.1379 -0.4201
 7713W        W 9863  18.357   1.903  21.057  0.1579 -0.0024  0.0413
 7714W        W 9864   8.634   3.807  17.680  0.1037  0.0998  0.1910
 7715W        W 9865  14.274   5.968  24.255  0.2563 -0.0455  0.0718
 7716W        W 9866  10.065   7.423  23.526  0.0724 -0.2264 -0.0052
 7717W        W 9867   9.621   5.555   4.629 -0.0430 -0.1146 -0.2674
 7718W        W 9868  12.826   6.526  24.674 -0.0066 -0.1376 -0.0192
 7719W        W 9869   4.333   2.046   5.868  0.2419  0.3294  0.4376
 7720W        W 9870  22.477   3.291   2.310  0.1173 -0.2388  0.2577
 7721W        W 9871  23.203   6.964  24.309 -0.2038 -0.0123  0.0763
 7722W        W 9872  24.549   3.554  10.599 -0.0294  0.0700 -0.1254
 7723W        W 9873  10.896   2.311   7.121 -0.0684 -0.0448 -0.1421
 7724W        W 9874   9.483   0.697  19.837 -0.4882 -0.1132 -0.1324
 7725W        W 9875  12.340   7.332  19.508 -0.2242 -0.1969 -0.2184
 7726W        W 9876  16.701   6.254  20.310  0.1528  0.4169 -0.0693
 7727W        W 9877  20.154   3.672  10.209 -0.2837 -0.0134 -0.1887
 7728W        W 9878   2.270   1.977  24.941  0.0414 -0.1949 -0.0081
 7729W        W 9879  27.616   5.742  21.630  0.2127 -0.2754  0.0765
 7730W        W 9880  10.516   5.457  20.109 -0.1008  0.2924 -0.3796
 7731W        W 9881   2.980   2.892   7.647 -0.4617 -0.2199  0.1892
 7732W        W 9882  18.061   3.336  25.462 -0.2480 -0.0716  0.0621
 7733W        W 9883   2.297   2.895  23.873 -0.0097  0.2723  0.0408
 7734W        W 9884  26.042   1.242   8.088 -0.1291  0.0514 -0.0167
 7735W        W 9885   1.994   0.854  20.872 -0.3991  0.1403  0.1446
 7736W        W 9886  12.427   0.339   0.030  0.1220 -0.2882  0.0302
 7737W        W 9887   0.574   0.059  24.938 -0.0518  0.0494 -0.1446
 7738W        W 9888  18.183   6.941  20.047  0.0620  0.2471 -0.0107
 7739W        W 9889  24.330   2.846   8.291 -0.1911 -0.0027  0.0195
 7740W        W 9890   3.747   0.215  17.024  0.2182 -0.0150 -0.0040
 7741W        W 9891  12.276   0.544  19.543  0.3185 -0.3100 -0.1828
 7742W        W 9892  22.032   0.161   1.752  0.1174  0.1589  0.2590
 7743W        W 9893  30.356   4.612   5.715 -0.0491 -0.0605  0.2778
 7744W        W 9894  30.455   7.560   5.958 -0.0654  0.2567 -0.0854
 7745W        W 9895  16.787   3.505  21.176  0.1954  0.0449  0.0346
 7746W        W 9896   5.181   4.383  21.947 -0.0232  0.0285  0.1081
 7747W        W 9897  13.361   7.643   9.221 -0.1675 -0.1504  0.0680
 7748W        W 9898  28.182   6.648  24.356 -0.1770 -0.0542  0.4448
 7749W        W 9899   6.570   5.967  23.190  0.0311  0.1258  0.1000
 7750W        W 9900  28.053   4.841  20.233  0.0417  0.2428 -0.0830
 7751W        W 9901  19.869   2.869  16.284  0.0370 -0.0822  0.0172
 7752W        W 9902   8.441   7.338   1.169 -0.1335  0.0431  0.1055
 7753W        W 9903  26.035   7.316   3.722  0.2007  0.0912  0.2224
 7754W        W 9904  29.828   5.432  16.788 -0.0909 -0.1732  0.1245
 7755W        W 9905  10.442   2.831  22.127  0.0785  0.1114 -0.0333
 7756W        W 9906   9.105   4.434  19.122  0.1716 -0.2748  0.2027
 7757W        W 9907   3.683   3.766  23.134 -0.0350 -0.1723  0.1474
 7758W        W 9908  17.274   5.092  19.208  0.3739 -0.0373  0.0962
 7759W        W 9909  29.846   4.289  21.093  0.0270 -0.3285  0.1451
 7760W        W 9910  25.319   3.125   9.436 -0.3325  0.0262 -0.0176
 7761W        W 9911  26.280   0.380   7.674  0.1412 -0.2857 -0.1214
 7762W        W 9912   2.211   6.799  25.773 -0.0286  0.2397 -0.2685
 7763W        W 9913   1.300   3.264  25.867  0.1010  0.0579  0.1522
 7764W        W 9914  21.142   4.094  16.246 -0.1123 -0.0203  0.2567
 7765W        W 9915  11.356   7.582  22.717 -0.0271  0.0825  0.0307
 7766W        W 9916  26.223   4.262  16.596  0.2121  0.1413 -0.1926
 7767W        W 9917  15.267   3.008   1.279  0.2100  0.0657 -0.0058
 7768W        W 9918  25.702   7.613  10.106  0.1143  0.0422 -0.1203
 7769W        W 9919  15.924   5.907  22.173  0.0652 -0.0604  0.2929
 7770W        W 9920   7.291   3.842   5.740 -0.0241 -0.0245 -0.1479
 7771W        W 9921  30.288   4.673  22.520  0.1664 -0.2113 -0.1188
 7772W        W 9922  19.735   7.664  20.898 -0.0931  0.1541 -0.2888
 7773W        W 9923  17.709   1.670   8.656  0.0671 -0.1483 -0.2711
 7774W        W 9924  23.231   6.606  10.392 -0.2375  0.3415 -0.0181
 7775W        W 9925   7.307   4.083  21.321 -0.0601  0.0927 -0.1036
 7776W        W 9926  13.723   2.838  17.697  0.0730 -0.1158  0.1358
 7777W        W 9927  27.912   7.042   6.528  0.0070 -0.1270 -0.0752
 7778W        W 9928   6.513   6.878   2.817  0.0633 -0.1652 -0.0375
 7779W        W 9929   5.031   3.113  26.220  0.0170  0.0065 -0.1416
 7780W        W 9930  18.165   3.640   4.570 -0.0986 -0.0786  0.0943
 7781W        W 9931   5.631   2.028  25.937 -0.1655 -0.0574  0.1457
 7782W        W 9932  31.166   1.760  16.110  0.0050  0.0206  0.2777
 7783W        W 9933  24.572   5.151   4.393  0.0765 -0.0248  0.2101
 7784W        W 9934  17.418   4.356   1.834 -0.1404 -0.0247 -0.1157
 7785W        W 9935  28.542   6.264  19.424  0.2924  0.1440  0.2312
 7786W        W 9936   2.359   1.383  21.542  0.1880 -0.0767  0.1283
 7787W        W 9937  21.030   3.358  20.106 -0.0158  0.2922  0.0288
 7788W        W 9938  25.320   3.393  11.094  0.0580 -0.2419  0.0464
 7789W        W 9939  28.434   0.865   4.950 -0.0125  0.2427 -0.0009
 7790W        W 9940   5.970   0.870  21.450 -0.1095  0.1042  0.2692
 7791W        W 9941  29.601   5.317  18.440  0.0255 -0.0734 -0.1427
 7792W        W 9942   4.691   4.519  10.053 -0.3543 -0.1666  0.2246
 7793W        W 9943  21.210   4.487  18.125 -0.1930 -0.1586 -0.1584
 7794W        W 9944   8.988   6.431  10.475 -0.0226 -0.1514  0.1336
 7795W        W 9945  30.542   0.506   1.577 -0.3565  0.1625  0.0143
 7796W        W 9946   8.333   2.719   4.705 -0.2369  0.1394 -0.2841
 7797W        W 9947  11.390   7.416   9.624  0.2958  0.3181 -0.0319
 7798W        W 9948   4.243   0.080   9.540  0.0443  0.0019  0.0985
 7799W        W 9949  23.993   2.812  15.958  0.0340  0.2047  0.1644
 7800W        W 9950   6.802   0.172  21.764 -0.0689  0.0937  0.0473
 7801W        W 9951   9.716   6.094  18.035  0.2708  0.0176 -0.1011
 7802W        W 9952  11.367   5.129  23.622  0.0362 -0.2073 -0.1270
 7803W        W 9953  14.359   6.053   3.749  0.2162 -0.0573 -0.0422
 7804W        W 9954  30.598   0.123   7.970 -0.3247  0.4557 -0.0415
 7805W        W 9955  23.227   0.022   1.120 -0.1956 -0.6019  0.0301
 7806W        W 9956   6.613   6.271   6.663 -0.1650 -0.1444 -0.1409
 7807W        W 9957  24.127   0.244   7.522  0.0245  0.0232  0.4184
 7808W        W 9958   0.691   1.799   6.978  0.1466 -0.1714 -0.0063
 7809W        W 9959  17.267   7.058  11.530  0.0568  0.1212 -0.0337
 7810W        W 9960  23.269   5.294  17.185  0.1266 -0.0153 -0.1927
 7811W        W 9961   0.896   4.300  23.975 -0.3086 -0.3782  0.0905
 7812W        W 9962  17.142   1.160  10.715  0.0322 -0.3062 -0.0148
 7813W        W 9963   2.209   1.182  20.560  0.0683 -0.0601  0.3197
 7814W        W 9964  21.180   0.956   6.629  0.1258  0.1441  0.2791
 7815W        W 9965   4.853   1.327   4.249  0.1073 -0.2400  0.0931
 7816W        W 9966   1.788   1.029   0.266  0.1616  0.1242 -0.1231
 7817W        W 9967  15.151   6.052  21.112 -0.1118  0.1862 -0.1857
 7818W        W 9968   4.336   4.749   7.465  0.1652 -0.2123 -0.2174
 7819W        W 9969  30.953   2.774  22.210  0.0677 -0.2257 -0.0874
 7820W        W 9970  11.227   4.979   1.060 -0.4089 -0.0169 -0.2520
 7821W        W 9971   1.948   3.909  10.197  0.2867  0.1105 -0.1093
 7822W        W 9972   9.890   4.362  24.066 -0.0178 -0.1287 -0.0200
 7823W        W 9973  15.263   4.484   4.944 -0.0978  0.1078 -0.0626
 7824W        W 9974  18.207   2.860   8.425 -0.0903  0.2642 -0.0248
 7825W        W 9975   3.405   4.396  21.772 -0.0875  0.1002  0.0025
 7826W        W 9976   6.434   6.425  24.884 -0.0107 -0.4502 -0.0787
 7827W        W 9977   2.883   6.506   1.308 -0.1013 -0.0674  0.0607
 7828W        W 9978  29.678   4.763  19.032 -0.0968 -0.0187 -0.0453
 7829W        W 9979  24.344   4.433  16.150  0.1916 -0.0736 -0.3014
 7830W        W 9980   0.949   3.016   6.374 -0.0253  0.2145 -0.1798
 7831W        W 9981  14.984   0.564   0.929  0.3560 -0.1210 -0.1748
 7832W        W 9982  21.581   7.073   2.410 -0.0787 -0.1220 -0.0543
 7833W        W 9983  15.771   7.664  18.205  0.0258  0.2804  0.1192
 7834W        W 9984  22.274   5.772   3.746  0.0864  0.1752 -0.3093
 7835W        W 9985   2.854   4.164   3.221  0.3183  0.4147 -0.0070
 7836W        W 9986   8.317   0.256   7.511 -0.2623 -0.2383  0.0153
 7837W        W 9987  20.150   2.916   5.698 -0.3759 -0.1529  0.0789
 7838W        W 9988   0.063   5.547   4.055  0.1147 -0.0261 -0.0850
 7839W        W 9989  21.310   6.523  11.835 -0.3800  0.0914 -0.0446
 7840W        W 9990   6.536   7.054  23.909 -0.0880 -0.0294 -0.0424
 7841W        W 9991  11.965   4.666  15.956 -0.0608  0.0100  0.0118
 7842W        W 9992   7.390   6.317   5.281 -0.1262 -0.0520  0.0386
 7843W        W 9993   9.807   2.647  23.931  0.2738  0.1193  0.0960
 7844W        W 9994  15.969   6.985   9.922  0.0503 -0.1161 -0.1423
 7845W        W 9995   2.798   6.385  15.890  0.0869 -0.0475 -0.0047
 7846W        W 9996  20.259   2.100  24.313 -0.1566 -0.1705 -0.1250
 7847W        W 9997  12.389   0.802  16.517  0.1361 -0.4942  0.2699
 7848W        W 9998   8.373   3.067   2.484  0.2478 -0.1267  0.1349
 7849W        W 9999  21.065   3.259  21.000 -0.3114  0.1004 -0.0809
 7850W        W10000  12.387   5.891  17.074  0.2745 -0.2221 -0.0718
 7851W        W10001  26.177   0.523  17.173 -0.1254  0.0360  0.1011
 7852W        W10002  26.802   1.830  18.268  0.0937  0.0227 -0.1442
 7853W        W10003  21.305   1.906   1.700 -0.0669  0.1582  0.1982
 7854W        W10004  13.001   4.623  14.422 -0.1853  0.0523  0.2177
 7855W        W10005  25.808   1.969  17.603  0.2888 -0.2054  0.1033
 7856W        W10006   1.411   3.899  26.301  0.1074 -0.1786 -0.5482
 7857W        W10007  17.047   7.765   7.011  0.2543  0.1295 -0.1862
 7858W        W10008  22.449   1.388   4.835  0.2126  0.2902 -0.0273
 7859W        W10009   0.764   5.270  17.206  0.1324 -0.2506  0.1165
 7860W        W10010  22.058   0.267   7.980 -0.2231 -0.0002 -0.0599
 7861W        W10011   0.017   2.779   4.375 -0.2070  0.2289  0.1459
 7862W        W10012   0.503   1.433   0.945  0.0747 -0.1134 -0.2026
 7863W        W10013   5.035   1.424  18.425  0.2020 -0.0029 -0.0861
 7864W        W10014   5.516   3.733   0.456 -0.0691  0.0460  0.1038
 7865W        W10015  28.810   4.823  15.485 -0.0897 -0.0384  0.1875
 7866W        W10016  23.372   7.440  21.046  0.2525  0.1081  0.2331
 7867W        W10017  29.287   2.694   9.156  0.2614 -0.0818  0.1429
 7868W        W10018  28.001   1.611   2.105  0.0461 -0.0177 -0.1961
 7869W        W10019  10.481   3.887  14.795  0.1794 -0.0780 -0.0913
 7870W        W10020  21.526   6.132  23.473  0.1403 -0.1298 -0.0998
 7871W        W10021  29.745   6.234  24.394 -0.1003  0.0582 -0.1366
 7872W        W10022  11.718   7.461  25.386  0.0806  0.3883 -0.4653
 7873W        W10023  24.900   6.616  25.207 -0.0260  0.2936  0.1331
 7874W        W10024   5.212   6.043  19.033  0.0385 -0.0023  0.1823
 7875W        W10025   5.352   7.673  21.216 -0.3411  0.0985 -0.0076
 7876W        W10026  14.627   2.974   3.903  0.3289  0.0954 -0.1924
 7877W        W10027   0.960   6.709   4.772  0.0388  0.3288  0.0585
 7878W        W10028  29.644   0.159   4.653 -0.1321 -0.0072  0.0338
 7879W        W10029   7.039   2.774  23.375  0.0558  0.1291  0.1352
 7880W        W10030  25.135   2.165  20.064 -0.0841 -0.1906  0.1145
 7881W        W10031  20.022   5.041  16.954 -0.3755  0.0876  0.1076
 7882W        W10032  12.676   6.502  19.899 -0.0196  0.0975 -0.1638
 7883W        W10033   1.205   0.727  18.987 -0.2353 -0.2541  0.1076
 7884W        W10034  31.166   4.915  24.256 -0.0248 -0.1039 -0.2109
 7885W        W10035  13.921   1.492  17.427 -0.0580 -0.0254  0.0148
 7886W        W10036   8.068   3.266   7.214 -0.0291  0.1268 -0.0535
 7887W        W10037  23.150   1.298  19.883  0.0221  0.1181  0.5169
 7888W        W10038   5.134   2.755  23.763 -0.0244 -0.3424 -0.0804
 7889W        W10039   2.654   5.044   7.667  0.1069 -0.1291 -0.0095
 7890W        W10040  18.530   7.589  19.528 -0.3929  0.0466  0.2890
 7891W        W10041  21.750   0.615  24.360 -0.0852 -0.1529 -0.2168
 7892W        W10042  29.556   2.652  16.616  0.0153  0.1071  0.0629
 7893W        W10043  30.596   5.466   5.692 -0.1040 -0.2543  0.2734
 7894W        W10044   0.327   6.233  16.634 -0.2055  0.0833  0.1404
 7895W        W10045  30.824   3.420  15.870  0.0956 -0.0360 -0.1439
 7896W        W10046   0.043   5.485  18.298 -0.0925  0.1748 -0.0425
 7897W        W10047  10.812   4.369  19.216 -0.2472  0.3156 -0.3506
 7898W        W10048  14.637   0.604  19.304  0.1037  0.1402 -0.1135
 7899W        W10049  21.549   1.374   4.840  0.0228  0.1575  0.2483
 7900W        W10050  20.984   4.611  24.921  0.0602  0.1985 -0.2755
 7901W        W10051   9.848   5.717  24.026 -0.0120 -0.0294  0.0952
 7902W        W10052  11.939   3.451  20.049  0.0771  0.2154 -0.1853
 7903W        W10053   2.909   6.300  19.280  0.1167 -0.1988 -0.1478
 7904W        W10054   2.723   2.581   7.107 -0.0275 -0.1516  0.2061
 7905W        W10055  23.950   0.098  18.061 -0.1180 -0.0786  0.0550
 7906W        W10056   1.183   1.072  24.398 -0.2815  0.3082  0.1047
 7907W        W10057  24.656   0.483   5.437 -0.1807 -0.1050  0.1968
 7908W        W10058  13.913   1.021   8.514  0.1805  0.1411  0.0393
 7909W        W10059   4.162   6.088   9.237 -0.1333 -0.0505  0.0540
 7910W        W10060   9.854   0.028   2.706 -0.0103  0.1782  0.1803
 7911W        W10061  10.725   4.645  20.806  0.4732 -0.2538  0.0634
 7912W        W10062  30.399   1.631   5.334  0.0913 -0.0650 -0.2128
 7913W        W10063  12.794   4.762  20.140  0.0616 -0.4748 -0.1265
 7914W        W10064   1.988   3.251  21.244  0.0754 -0.2162 -0.1135
 7915W        W10065  27.867   5.080  10.474  0.4620  0.2388  0.1956
 7916W        W10066  10.810   7.350  26.103 -0.2104  0.1312 -0.4567
 7917W        W10067   1.560   5.853   0.323 -0.1293 -0.0870  0.1847
 7918W        W10068  15.462   4.340   9.728 -0.3278 -0.0866 -0.0396
 7919W        W10069  24.731   5.308   6.665 -0.1679 -0.2137  0.1156
 7920W        W10070  19.624   2.575   0.694  0.0786  0.0030  0.2296
 7921W        W10071  19.820   5.070   9.245  0.3072 -0.1107  0.0730
 7922W        W10072   9.994   4.090   2.164  0.1350 -0.0255 -0.2193
 7923W        W10073   3.442   1.365   1.961  0.1865  0.1192  0.3188
 7924W        W10074   4.749   0.097  20.329 -0.1361 -0.1554 -0.0154
 7925W        W10075  21.833   3.588  25.455 -0.1751 -0.2683 -0.1772
 7926W        W10076  22.620   1.708  10.187 -0.0325  0.0560  0.1416
 7927W        W10077  20.535   7.672   9.160  0.0907  0.0859 -0.0066
 7928W        W10078  24.783   6.250   6.408 -0.0209  0.3842 -0.0480
 7929W        W10079  17.189   4.313  24.456  0.0960  0.0142  0.1435
 7930W        W10080  29.238   6.850  17.924 -0.1214  0.4717  0.1595
 7931W        W10081  23.156   5.626   7.628 -0.0003  0.5122  0.2298
 7932W        W10082  20.832   5.587   7.759 -0.2806 -0.2134  0.0934
 7933W        W10083  13.011   1.558  20.666  0.1007  0.0995 -0.0588
 7934W        W10084  25.940   7.585  11.260  0.2183 -0.2403  0.1427
 7935W        W10085  29.088   4.565  24.588 -0.1451  0.0683  0.3710
 7936W        W10086   1.036   7.180  23.681 -0.0565  0.0134 -0.0754
 7937W        W10087  31.147   1.221   1.649 -0.2178  0.2008 -0.0456
 7938W        W10088   4.778   2.575   0.783  0.2623  0.3127 -0.0441
 7939W        W10089  15.036   5.286  20.387  0.0128 -0.0980  0.1674
 7940W        W10090   9.267   2.787  24.086  0.1448  0.1403  0.0553
 7941W        W10091  24.451   4.596  23.545 -0.0197  0.2139  0.2731
 7942W        W10092  17.719   0.026  17.392 -0.2537 -0.0362  0.0984
 7943W        W10093  29.913   7.477   5.020 -0.0180  0.0076  0.1218
 7944W        W10094   1.050   4.816  18.927  0.0150 -0.1550 -0.1986
 7945W        W10095  11.955   4.896  20.636 -0.2218  0.0158 -0.0134
 7946W        W10096  10.133   1.299  20.927 -0.0651 -0.0654 -0.2357
 7947W        W10097  17.374   0.649   4.387  0.2518 -0.1134  0.2331
 7948W        W10098  31.003   5.270  19.500  0.1278  0.2982  0.2999
 7949W        W10099  13.257   1.174   7.032  0.1514  0.0983  0.1008
 7950W        W10100   9.264   5.330   3.759  0.0096 -0.0728  0.0094
 7951W        W10101   0.602   3.346  17.867 -0.2690 -0.2622  0.0686
 7952W        W10102   3.281   4.076   4.917  0.2417 -0.0662 -0.1608
 7953W        W10103   7.409   2.825   9.190 -0.0009  0.0108  0.0705
 7954W        W10104  30.972   7.175   0.681 -0.0008  0.0599 -0.1695
 7955W        W10105  29.983   5.458   1.629  0.0246 -0.1447  0.1639
 7956W        W10106  11.173   7.399  24.113  0.0331 -0.0728  0.2288
 7957W        W10107  25.396   2.929   3.323 -0.4399  0.1551 -0.0418
 7958W        W10108  16.049   0.813   9.222 -0.2953  0.1377 -0.0149
 7959W        W10109   7.863   3.618   3.064 -0.4460  0.0099 -0.0166
 7960W        W10110  25.545   7.633  17.094 -0.0233 -0.1639 -0.0406
 7961W        W10111  14.290   0.321  20.049 -0.0556 -0.2250 -0.2271
 7962W        W10112   7.096   2.380   0.701 -0.0365 -0.2731  0.0251
 7963W        W10113   7.203   4.274  24.251  0.0051 -0.1985  0.1679
 7964W        W10114   0.743   5.205  15.582  0.3503 -0.0316  0.0303
 7965W        W10115   2.714   7.503   1.563 -0.2185  0.1021  0.2520
 7966W        W10116  19.925   4.774   4.319  0.0804  0.0405  0.2332
 7967W        W10117  12.439   1.366  18.680  0.1940  0.0185 -0.1212
 7968W        W10118   9.410   1.172   1.850  0.2572 -0.1663 -0.0872
 7969W        W10119   1.603   3.280  10.909  0.0319 -0.0931 -0.1017
 7970W        W10120   7.233   7.292  19.452  0.0412  0.1048  0.0170
 7971W        W10121  21.366   5.276   8.517 -0.2772  0.2326 -0.1551
 7972W        W10122  11.444   3.237   0.691 -0.1731 -0.1082  0.4453
 7973W        W10123  13.572   4.158  17.302  0.3945 -0.1500  0.0528
 7974W        W10124  10.833   0.671   2.347 -0.0472 -0.1792  0.0264
 7975W        W10125  24.651   6.145   2.274 -0.5489 -0.4376 -0.1986
 7976W        W10126   1.575   2.530   5.737 -0.3121  0.3058 -0.2005
 7977W        W10127  21.143   4.129   1.398  0.0977 -0.1895 -0.0392
 7978W        W10128   0.361   5.991   0.599  0.1060  0.5275 -0.1349
 7979W        W10129  14.824   4.464   5.859  0.0634  0.0161 -0.0844
 7980W        W10130   9.564   6.038  25.346 -0.1334 -0.1421 -0.3503
 7981W        W10131   6.471   6.071  22.127 -0.4672  0.3126  0.3215
 7982W        W10132  21.677   3.331   0.265 -0.3334  0.1387 -0.2207
 7983W        W10133  14.816   3.506  20.095 -0.0978  0.0466 -0.2468
 7984W        W10134   3.151   6.781   2.449 -0.0543  0.1333  0.2373
 7985W        W10135   1.853   2.197  18.957  0.2634  0.1234 -0.1973
 7986W        W10136  11.436   5.068  22.699 -0.2567 -0.2002 -0.1371
 7987W        W10137  30.187   2.291   2.214  0.1450  0.0786  0.1104
 7988W        W10138   6.464   2.485  11.120 -0.0867  0.2271  0.0425
 7989W        W10139  24.185   7.776  10.104  0.2415 -0.0453  0.0866
 7990W        W10140   8.485   3.666   9.233  0.2732  0.1022 -0.1991
 7991W        W10141  11.017   1.732  23.976 -0.0640  0.0284 -0.0728
 7992W        W10142   5.311   2.748   0.011  0.0336  0.0800  0.0488
 7993W        W10143  12.142   7.714  16.409  0.0924 -0.1004 -0.0301
 7994W        W10144  27.731   0.026  24.515  0.0200 -0.0632 -0.0287
 7995W        W10145  10.426   1.433  10.495  0.0572 -0.1604 -0.0278
 7996W        W10146  22.590   0.099  18.403  0.0007 -0.2860 -0.0295
 7997W        W10147  26.036   2.375  25.044  0.0788 -0.1562  0.1463
 7998W        W10148  14.462   2.150   6.382 -0.1446 -0.1125 -0.3100
 7999W        W10149  20.104   4.563  21.657  0.3554 -0.1203 -0.4234
 8000W        W10150   5.745   0.227  19.321 -0.0512  0.1058  0.0469
 8001W        W10151   1.694   4.084  17.523 -0.0866  0.3974 -0.0672
 8002W        W10152   6.502   5.594  17.561  0.2539  0.1155 -0.1669
 8003W        W10153  12.700   7.153   9.156 -0.2154  0.2649  0.3431
 8004W        W10154  14.946   3.304  23.047  0.1003 -0.1798  0.0193
 8005W        W10155  20.178   7.168  21.475 -0.0447 -0.0368 -0.1532
 8006W        W10156  13.028   7.006   8.266 -0.0953  0.2155 -0.0356
 8007W        W10157  21.672   5.915  15.721  0.1104 -0.1467  0.0494
 8008W        W10158   5.573   6.189   2.650  0.0591 -0.1465  0.0361
 8009W        W10159  24.913   4.842  17.620  0.2855 -0.0883  0.2081
 8010W        W10160  24.355   1.067   2.948  0.0482  0.1687  0.3014
 8011W        W10161  19.073   0.232  19.016 -0.1836 -0.0251  0.0944
 8012W        W10162  17.662   1.183   4.575  0.0133  0.0506  0.0621
 8013W        W10163  16.344   4.671  25.083  0.0228  0.1886  0.1578
 8014W        W10164  10.723   0.915  22.148 -0.1119  0.1090  0.2050
 8015W        W10165  18.574   0.600   3.038 -0.2412  0.1008 -0.1620
 8016W        W10166  28.527   0.048   5.378  0.1709 -0.0892  0.2206
 8017W        W10167  29.513   5.144   4.729 -0.1189 -0.0819 -0.0538
 8018W        W10168  22.343   3.985  17.314 -0.3246  0.0945  0.1589
 8019W        W10169   5.698   2.404   5.811  0.0864 -0.0581  0.1379
 8020W        W10170  29.478   4.856   8.929 -0.0716  0.1917 -0.0684
 8021W        W10171   3.739   3.856  10.286  0.1022 -0.1854 -0.2144
 8022W        W10172   7.873   5.058  10.913 -0.1570 -0.1968  0.0465
 8023W        W10173  19.043   4.226   6.213 -0.0366  0.2474  0.0927
 8024W        W10174   7.867   5.618  17.009 -0.0901 -0.0293 -0.1850
 8025W        W10175   1.185   4.774  20.897  0.0914 -0.0144  0.0355
 8026W        W10176  18.667   5.444  24.373 -0.1315  0.1893  0.0395
 8027W        W10177   5.060   2.606  24.204  0.0702 -0.1739 -0.0086
 8028W        W10178  16.075   4.643  17.000  0.0774 -0.0478  0.1278
 8029W        W10179  15.455   6.840   9.229 -0.2670 -0.0414 -0.0912
 8030W        W10180  19.782   6.410  24.806 -0.0137  0.1023  0.1011
 8031W        W10181  20.261   3.377  17.141 -0.2445 -0.0933 -0.1547
 8032W        W10182   3.330   5.839  22.992  0.2043 -0.2031 -0.0138
 8033W        W10183  21.226   1.514   9.079  0.0281  0.0136 -0.0248
 8034W        W10184   5.388   5.127   5.085  0.0509  0.2073  0.0907
 8035W        W10185  16.311   4.850  26.008 -0.1615  0.0395  0.1344
 8036W        W10186  27.718   5.422  24.765  0.0706 -0.0824 -0.1137
 8037W        W10187  17.073   0.598  16.934 -0.1588 -0.0490 -0.2271
 8038W        W10188   8.723   3.493  10.222  0.0863  0.2148  0.0880
 8039W        W10189   9.437   0.601   8.608  0.0638  0.0247 -0.2895
 8040W        W10190   8.402   4.998  17.960  0.0052  0.1865  0.0743
 8041W        W10191  28.295   4.449   8.222 -0.0793 -0.0387  0.3408
 8042W        W10192  19.053   5.719  20.648 -0.1304 -0.0532 -0.0822
 8043W        W10193  30.680   5.521   3.474  0.1318  0.1207 -0.0197
 8044W        W10194  23.138   4.852  10.390  0.1027  0.1010  0.0627
 8045W        W10195  25.560   2.017  21.584  0.3079 -0.0395 -0.1914
 8046W        W10196   4.705   2.685   2.487  0.1367  0.1217 -0.0115
 8047W        W10197  13.632   2.811  16.245  0.0529  0.0494 -0.3311
 8048W        W10198   5.135   5.998  16.267  0.4399 -0.2941 -0.1805
 8049W        W10199   5.975   6.600   4.948  0.2251 -0.1364  0.1030
 8050W        W10200  11.071   1.520  24.413  0.1295  0.1693  0.0581
 8051W        W10201  28.159   3.327  24.930  0.1823  0.2069  0.1165
 8052W        W10202  12.361   1.715   0.245 -0.0699  0.0038  0.1073
 8053W        W10203  11.421   7.271  15.293  0.0430  0.1485  0.3681
 8054W        W10204  13.792   6.907   0.859  0.0383 -0.2212  0.1207
 8055W        W10205  11.604   1.778   9.397  0.3626 -0.1984 -0.3835
 8056W        W10206   5.698   5.280  20.731  0.0149 -0.0721  0.2922
 8057W        W10207  23.711   6.214  23.307  0.0947 -0.1463 -0.1564
 8058W        W10208  25.634   2.096   4.939 -0.1817 -0.1034  0.1735
 8059W        W10209   6.282   7.491   5.936  0.1917 -0.3726  0.0659
 8060W        W10210  18.735   0.695  16.175  0.3222  0.1125 -0.0598
 8061W        W10211  29.505   0.606  25.495  0.0029 -0.0169  0.3089
 8062W        W10212   3.531   1.446   4.929 -0.1988 -0.0298 -0.1108
 8063W        W10213  29.707   6.653   8.704 -0.0168  0.1577  0.2867
 8064W        W10214  10.862   3.803   9.041  0.0041 -0.0719  0.0629
 8065W        W10215  23.523   3.546  10.343  0.0061 -0.1252 -0.0947
 8066W        W10216  11.835   4.998  25.948  0.0163  0.0172  0.1258
 8067W        W10217  14.457   1.413   4.879  0.1774  0.0949  0.2319
 8068W        W10218   8.541   7.409  18.659  0.0846  0.0057 -0.0598
 8069W        W10219   4.271   6.762  21.731  0.0279 -0.0391 -0.2554
 8070W        W10220   5.937   5.292  22.000  0.1151  0.1033 -0.2024
 8071W        W10221   1.852   7.357   8.275 -0.2236 -0.0681 -0.0236
 8072W        W10222  30.296   6.682  16.611 -0.2267  0.0425  0.1937
 8073W        W10223  17.072   3.544  22.376  0.0866  0.0149  0.0106
 8074W        W10224  31.189   3.734   3.428  0.5530 -0.0040 -0.4525
 8075W        W10225  18.951   0.311   5.769  0.0027 -0.3067 -0.1534
 8076W        W10226  22.853   4.406  19.638  0.0695 -0.0529 -0.0793
 8077W        W10227  14.964   5.195  18.007  0.1604  0.3001 -0.3122
 8078W        W10228   8.563   0.248  19.845 -0.1174 -0.2171 -0.0647
 8079W        W10229  12.891   2.091  25.885  0.0851  0.0732  0.0429
 8080W        W10230  18.524   2.989  15.818 -0.1745 -0.4394  0.0301
 8081W        W10231  21.438   7.707   9.325  0.0109  0.1420 -0.0956
 8082W        W10232  19.832   4.988  10.403  0.0270 -0.2032 -0.1080
 8083W        W10233  12.366   4.134  18.729 -0.3992 -0.2086  0.0974
 8084W        W10234   8.021   0.328  19.043  0.0855  0.1125 -0.3122
 8085W        W10235  12.411   4.470   3.423 -0.0074  0.0650 -0.1100
 8086W        W10236   6.775   4.324  21.230 -0.1296 -0.0013 -0.0446
 8087W        W10237  31.050   0.621  20.096  0.2101 -0.0160  0.1814
 8088W        W10238  21.133   3.291   2.355 -0.2575  0.0260  0.2215
 8089W        W10239  24.870   6.298  17.288 -0.0424  0.0334  0.0511
 8090W        W10240   2.297   7.568   1.881  0.2978 -0.1817  0.0883
 8091W        W10241   5.082   4.249  10.056  0.0689 -0.0609 -0.2265
 8092W        W10242   2.955   4.153   9.368  0.1571 -0.1614 -0.0945
 8093W        W10243  11.739   1.893  20.695  0.0172  0.1249 -0.0662
 8094W        W10244  16.713   5.806  18.830 -0.1349 -0.1505 -0.0026
 8095W        W10245  12.946   6.182   5.770  0.0501  0.0568  0.1097
 8096W        W10246  12.921   1.930  15.750  0.1832 -0.4378 -0.2651
 8097W        W10247  27.296   6.505   2.185 -0.1343  0.1258 -0.2361
 8098W        W10248  28.233   4.174   3.582  0.1965  0.1064 -0.0494
 8099W        W10249  23.104   3.388  10.743 -0.2581  0.1339  0.1215
 8100W        W10250  24.161   0.912   2.140  0.0325  0.3880  0.2645
 8101W        W10251  16.513   7.671  24.259 -0.3139 -0.1592  0.3077
 8102W        W10252   3.182   0.261  26.127  0.2136 -0.0226 -0.0094
 8103W        W10253   2.814   6.957   8.120  0.0577 -0.0189  0.1671
 8104W        W10254   8.054   7.093   8.495 -0.1631 -0.2044 -0.0260
 8105W        W10255   9.994   4.712  25.461 -0.1180 -0.0396 -0.0962
 8106W        W10256  19.655   7.351  17.726  0.1860 -0.2151 -0.0880
 8107W        W10257  12.999   0.201   8.931  0.2924  0.1071 -0.2510
 8108W        W10258  22.953   6.170  25.789 -0.1839  0.1555 -0.0090
 8109W        W10259  12.151   3.374   3.861  0.2946  0.2267 -0.0694
 8110W        W10260  28.751   6.111  19.949  0.0862 -0.0158 -0.2081
 8111W        W10261  18.566   3.784   6.273  0.2459  0.2130  0.1933
 8112W        W10262  12.349   5.658   7.083 -0.0338 -0.0397  0.1495
 8113W        W10263   7.436   1.943  17.118 -0.0215  0.0899 -0.1177
 8114W        W10264  19.901   0.974  25.764  0.0047  0.2395 -0.0376
 8115W        W10265  22.024   2.121  22.420  0.0529 -0.2451  0.0117
 8116W        W10266  16.736   1.319  20.307 -0.1280 -0.1696  0.1434
 8117W        W10267   5.420   0.679   4.491 -0.0693  0.3992 -0.1030
 8118W        W10268   3.648   3.442  10.753 -0.0490  0.2649  0.1634
 8119W        W10269   1.856   0.554   2.896 -0.0579  0.0922 -0.2471
 8120W        W10270  26.553   4.741  22.661  0.1414 -0.4371 -0.0159
 8121W        W10271  20.217   6.439  23.385 -0.1698  0.0460 -0.0515
 8122W        W10272   6.344   5.421   2.566  0.3866  0.0926  0.0236
 8123W        W10273   1.499   2.468  18.620  0.4535 -0.2509  0.2569
 8124W        W10274  16.585   1.169   7.387 -0.1020 -0.2613 -0.0731
 8125W        W10275  24.842   3.166   4.584 -0.0676  0.0426  0.0217
 8126W        W10276   0.640   6.181  18.450 -0.2973  0.0313  0.1254
 8127W        W10277   5.240   4.465  26.258  0.1462 -0.0749  0.3678
 8128W        W10278   5.186   1.372  15.864 -0.0271  0.0573  0.4339
 8129W        W10279  10.925   6.065  25.238  0.4157 -0.4106 -0.1893
 8130W        W10280  26.349   7.186   4.491  0.0185  0.0269  0.1525
 8131W        W10281  26.100   2.045   0.653 -0.1700  0.0344  0.2123
 8132W        W10282  24.452   4.598   8.258  0.1966  0.0792  0.1000
 8133W        W10283  19.351   3.008  17.436  0.4268  0.1496 -0.1925
 8134W        W10284  14.736   7.113  17.179 -0.0516  0.3057 -0.0953
 8135W        W10285   5.262   4.037   6.687  0.0922  0.2145  0.0703
 8136W        W10286  24.724   6.497   3.617 -0.0148 -0.1232 -0.0427
 8137W        W10287  17.237   1.012   1.925  0.2841  0.2053 -0.2943
 8138W        W10288   0.507   4.207  18.032 -0.1626 -0.1973  0.1635
 8139W        W10289   0.446   4.700  24.001 -0.0942  0.3361  0.2799
 8140W        W10290  29.881   3.784  21.173  0.0782 -0.0439  0.0134
 8141W        W10291  23.690   5.583   9.373  0.0834 -0.1401  0.1119
 8142W        W10292  12.265   2.515   5.451 -0.0574  0.1490 -0.0333
 8143W        W10293  11.056   3.926  22.922  0.3147  0.2640 -0.0977
 8144W        W10294  17.728   1.806   4.673  0.0368 -0.1054 -0.1438
 8145W        W10295  17.580   2.083  23.842 -0.1340  0.0944 -0.0236
 8146W        W10296  12.926   0.003  16.097  0.0997  0.0704 -0.2247
 8147W        W10297  23.204   3.533   7.250  0.1360  0.1675  0.1334
 8148W        W10298  24.332   6.952   9.563 -0.0275  0.1266  0.2803
 8149W        W10299  28.389   3.009  10.060  0.2062 -0.0929 -0.1317
 8150W        W10300  18.271   0.723  21.029 -0.1484 -0.0044  0.0227
 8151W        W10301  20.448   4.404  10.747 -0.1889 -0.1072  0.2497
 8152W        W10302  23.112   6.273  18.050 -0.3021  0.0648  0.4469
 8153W        W10303  12.755   2.628   6.657  0.1477 -0.2608 -0.3157
 8154W        W10304  14.528   6.924   2.579 -0.0941 -0.3690  0.0895
 8155W        W10305  10.321   4.956   5.452 -0.0505  0.4403 -0.1134
 8156W        W10306  13.363   6.865  17.419 -0.0075  0.0944  0.1710
 8157W        W10307   0.582   0.580  26.016 -0.0501 -0.1536  0.0228
 8158W        W10308  14.373   1.115  23.119  0.0157  0.2244 -0.3001
 8159W        W10309  21.237   6.852  22.372  0.2991 -0.1783  0.0606
 8160W        W10310   5.556   7.574  19.580 -0.0315 -0.0628 -0.2320
 8161W        W10311   0.963   6.012  17.776  0.1068  0.1458 -0.4156
 8162W        W10312  31.038   3.904  15.483  0.1891 -0.0524  0.2693
 8163W        W10313  11.521   2.802  10.275 -0.0470  0.1261 -0.0655
 8164W        W10314  20.937   2.034  17.580  0.1662  0.2786  0.0044
 8165W        W10315  22.887   0.567   4.414 -0.0434 -0.0541  0.0480
 8166W        W10316  26.255   3.075   8.863  0.2562  0.1449  0.2362
 8167W        W10317  30.864   1.516   4.460  0.0710 -0.2291 -0.0993
 8168W        W10318  23.958   6.211   6.725  0.0211 -0.1838  0.1228
 8169W        W10319  10.207   3.357  10.977 -0.0371 -0.1314  0.0488
 8170W        W10320  12.040   5.540  16.532  0.0017  0.1266 -0.1346
 8171W        W10321  13.430   1.234   5.425 -0.1205 -0.0555  0.2884
 8172W        W10322  18.463   0.013   4.546  0.0894 -0.0319 -0.1154
 8173W        W10323   7.404   0.413  25.316 -0.0538 -0.0895 -0.0055
 8174W        W10324   0.293   0.424  18.597 -0.2675  0.0267  0.2864
 8175W        W10325   5.717   3.400  19.430 -0.2372  0.2348  0.0320
 8176W        W10326  29.020   4.496  16.415 -0.0688 -0.1257 -0.2781
 8177W        W10327  10.561   0.036   0.686  0.0873  0.2066  0.0301
 8178W        W10328  18.089   0.231  19.339 -0.0839 -0.0429 -0.1300
 8179W        W10329  19.457   1.638   9.677 -0.0452  0.0115 -0.2324
 8180W        W10330  12.485   1.183   3.930  0.1231  0.1502 -0.0751
 8181W        W10331   3.339   1.525   6.360 -0.1768  0.0137 -0.2860
 8182W        W10332  20.437   2.220   8.234 -0.3293  0.1338  0.0346
 8183W        W10333  19.301   0.824  24.185 -0.3172  0.0268  0.0541
 8184W        W10334   0.049   3.465  19.073  0.2801  0.2021 -0.0676
 8185W        W10335  15.245   0.965  24.589  0.0363  0.0393 -0.0214
 8186W        W10336  30.621   0.715  20.310 -0.1133 -0.0075 -0.1483
 8187W        W10337  29.367   3.841   5.135 -0.0695 -0.2985  0.1431
 8188W        W10338  14.058   4.955   4.641  0.3092 -0.0778 -0.0355
 8189W        W10339  12.951   4.671  24.054  0.2027  0.0487 -0.5725
 8190W        W10340  30.454   4.949   8.166 -0.0086 -0.0324 -0.0032
 8191W        W10341  24.456   6.936  17.454 -0.0607  0.0998 -0.1727
 8192W        W10342  15.337   3.627   3.384 -0.0160 -0.2913 -0.2446
 8193W        W10343   2.386   4.985   4.534  0.3025 -0.1698 -0.2841
 8194W        W10344  17.146   4.604  20.516 -0.1188  0.0332  0.1076
 8195W        W10345  13.068   5.412  22.028  0.1016  0.1528 -0.0299
 8196W        W10346   6.382   0.933  21.843  0.0835  0.1176  0.0095
 8197W        W10347  10.333   6.742  18.687  0.1660  0.2222 -0.0093
 8198W        W10348   8.012   0.525   7.233 -0.0791 -0.0982  0.0727
 8199W        W10349  23.417   6.536  24.453  0.1206  0.3845 -0.1428
 8200W        W10350  21.662   6.587  20.209  0.1186  0.4709  0.0122
 8201W        W10351  19.323   4.713  16.481  0.0500 -0.1157 -0.1290
 8202W        W10352   9.394   0.371  10.397  0.1654 -0.0355 -0.3015
 8203W        W10353  15.844   1.684  10.111 -0.4556 -0.0243  0.2895
 8204W        W10354   5.320   7.383  25.467 -0.2461 -0.0812 -0.0732
 8205W        W10355   0.617   4.100   7.585  0.0892  0.1450 -0.0493
 8206W        W10356   9.085   5.740   4.732  0.0806  0.2608 -0.0046
 8207W        W10357   5.107   0.502   2.248  0.0295  0.0032  0.1253
 8208W        W10358   9.615   5.895  15.219 -0.1746  0.1289  0.0044
 8209W        W10359  19.168   6.135   8.506 -0.2228  0.0208 -0.1767
 8210W        W10360  25.678   5.308  25.119  0.1183 -0.1911 -0.3559
 8211W        W10361   5.429   3.348  10.118  0.0607  0.2192  0.3315
 8212W        W10362  17.718   7.470   1.678  0.1702  0.1928 -0.3072
 8213W        W10363  22.136   1.559   1.405 -0.0149 -0.1942 -0.1284
 8214W        W10364   2.365   0.854   0.088 -0.0256  0.2164 -0.0781
 8215W        W10365  30.903   4.538  23.448 -0.0332 -0.1354  0.1801
 8216W        W10366  12.063   3.303  16.606  0.0747 -0.0194  0.0898
 8217W        W10367  15.004   7.366  24.607 -0.1126  0.1128  0.1972
 8218W        W10368  12.484   2.635  23.673  0.2988 -0.1002 -0.0306
 8219W        W10369  19.645   4.365  16.672  0.2055 -0.2879  0.1280
 8220W        W10370  28.480   4.667  16.384  0.1635  0.1820  0.0527
 8221W        W10371  24.041   0.350   7.012 -0.1867 -0.1472  0.0347
 8222W        W10372  23.335   7.589  21.780  0.1543  0.0040 -0.4037
 8223W        W10373  24.855   0.797   8.537 -0.0336  0.1280  0.3395
 8224W        W10374  11.053   0.477  25.989  0.4523  0.4413 -0.1781
 8225W        W10375  18.408   7.670  20.602  0.1305  0.0216  0.1986
 8226W        W10376   5.527   1.634   6.651  0.0947  0.1854 -0.1091
 8227W        W10377   3.695   3.685   1.435 -0.0705  0.0405  0.0251
 8228W        W10378  27.742   7.607   3.451 -0.0466  0.1095 -0.2243
 8229W        W10379   7.440   2.973   2.764  0.0213 -0.0091  0.0545
 8230W        W10380   5.009   5.738  19.515  0.0501  0.1661  0.3058
 8231W        W10381  21.858   6.323   9.349 -0.2243 -0.1486  0.2323
 8232W        W10382  25.306   3.655  24.610 -0.2659 -0.3052  0.2827
 8233W        W10383  14.147   5.950  25.526  0.0027 -0.1780  0.0514
 8234W        W10384  18.170   0.261  17.593 -0.1288 -0.1348 -0.0493
 8235W        W10385  24.803   4.498   5.030 -0.0568  0.4292 -0.2405
 8236W        W10386  20.855   3.935  21.756 -0.1540  0.3781 -0.1389
 8237W        W10387  28.906   0.885  18.389  0.3706 -0.1648  0.0433
 8238W        W10388  23.503   5.565  17.570 -0.0660 -0.0749 -0.1016
 8239W        W10389   4.013   5.424   2.610  0.2284  0.2495 -0.1892
 8240W        W10390  20.031   4.114  22.318  0.0818  0.1323  0.0376
 8241W        W10391  19.359   2.844   4.181  0.3760  0.1652  0.1481
 8242W        W10392   4.422   1.246   1.766  0.1093 -0.1959 -0.2667
 8243W        W10393   8.944   2.725   8.079  0.0519 -0.2206 -0.0209
 8244W        W10394  28.388   7.445  22.950 -0.2304 -0.1861 -0.0977
 8245W        W10395   7.029   3.318  10.995  0.1773 -0.2519  0.0718
 8246W        W10396   3.719   2.006  15.860 -0.2080 -0.2545 -0.0252
 8247W        W10397  16.020   4.420  20.638  0.1547  0.2546  0.2583
 8248W        W10398  13.876   6.888   4.927  0.0064 -0.0657  0.0768
 8249W        W10399   0.904   1.082  22.815  0.2209  0.0810  0.2201
 8250W        W10400  24.883   0.662  10.900 -0.2073  0.3173 -0.2502
 8251W        W10401  14.157   0.735  18.428 -0.0803 -0.1443 -0.0474
 8252W        W10402  30.431   7.002  22.811 -0.1193 -0.0430  0.1982
 8253W        W10403  28.816   5.085  24.682 -0.0971 -0.0134 -0.1884
 8254W        W10404   8.979   2.861   5.710  0.2940 -0.3461 -0.2545
 8255W        W10405  12.632   4.263  19.218  0.1520 -0.2497  0.1432
 8256W        W10406  27.270   7.321  21.459  0.1439 -0.1463 -0.2029
 8257W        W10407   8.981   0.110   6.300  0.2905 -0.0243 -0.0061
 8258W        W10408  22.564   5.796   5.821  0.2181  0.3659  0.0633
 8259W        W10409   7.092   5.689   6.432  0.1577 -0.2075  0.2708
 8260W        W10410   9.261   1.523  19.389  0.1533 -0.1916 -0.1707
 8261W        W10411   0.324   2.837  25.228 -0.1255  0.0770  0.3690
 8262W        W10412   4.821   6.381  16.105 -0.2439 -0.0005 -0.0676
 8263W        W10413  10.098   4.364   6.966 -0.0367 -0.0340  0.1415
 8264W        W10414  29.993   5.078   5.070  0.1209 -0.1667  0.0864
 8265W        W10415  24.804   2.645   0.446 -0.1253  0.0809  0.0449
 8266W        W10416  29.944   5.343   6.479 -0.0779  0.1314  0.3150
 8267W        W10417  21.094   2.560  24.031 -0.1632 -0.0679 -0.0744
 8268W        W10418  23.134   3.322  18.421 -0.0638 -0.0309 -0.0815
 8269W        W10419   7.313   1.449  15.870  0.0337  0.0038  0.0268
 8270W        W10420   5.275   0.177   0.509  0.1884  0.3445  0.0132
 8271W        W10421   3.986   3.378  22.964  0.0077 -0.1831 -0.0061
 8272W        W10422  15.448   2.452   7.837 -0.0912 -0.2428 -0.1268
 8273W        W10423  29.600   7.036  11.133 -0.1950 -0.1122  0.4131
 8274W        W10424  29.548   0.786  17.574 -0.0615  0.0346 -0.0307
 8275W        W10425   6.694   6.422   7.956 -0.3462  0.4455  0.1470
 8276W        W10426   3.713   7.280   6.373 -0.2233 -0.0082 -0.2231
 8277W        W10427  22.101   1.874   0.406 -0.1545  0.2535  0.0699
 8278W        W10428  29.389   3.257  24.601  0.1411  0.1805 -0.1814
 8279W        W10429  23.518   2.146  25.673 -0.1707  0.0056 -0.0527
 8280W        W10430   1.489   2.576   4.022 -0.1013  0.0138  0.0153
 8281W        W10431   5.788   0.426   9.281 -0.1302  0.1347  0.3227
 8282W        W10432  26.389   3.109  10.193 -0.0992  0.1334 -0.4543
 8283W        W10433  15.303   2.674  17.647 -0.0751  0.1835 -0.0200
 8284W        W10434  20.819   4.199  26.306  0.1014  0.3407  0.2086
 8285W        W10435  22.882   2.576  20.877  0.1079  0.2290  0.0157
 8286W        W10436   0.088   2.698   5.562  0.0829 -0.0124  0.3385
 8287W        W10437  22.726   2.975   5.357 -0.1462  0.2519 -0.3344
 8288W        W10438   0.156   1.043   7.487 -0.1801  0.0464 -0.0075
 8289W        W10439  19.539   1.584  18.839 -0.1245  0.0925 -0.1448
 8290W        W10440   1.441   6.837  25.198  0.1868  0.0720 -0.1404
 8291W        W10441  13.543   1.269  21.218 -0.1074  0.3966 -0.2358
 8292W        W10442  23.352   3.063  19.260 -0.0896 -0.0947 -0.0003
 8293W        W10443   9.755   2.174  11.316 -0.0962 -0.2259  0.1346
 8294W        W10444  25.284   0.805  26.149 -0.0673  0.0314 -0.0114
 8295W        W10445  22.833   0.347  15.993  0.1651 -0.0210  0.1660
 8296W        W10446  12.073   2.230   6.074 -0.0975 -0.0653  0.1938
 8297W        W10447  28.140   6.932   5.606 -0.2553  0.2590 -0.1375
 8298W        W10448   4.501   3.079   3.258  0.0322 -0.0611  0.3781
 8299W        W10449  18.521   7.381   3.751 -0.0184  0.0430  0.2443
 8300W        W10450  11.155   3.318  16.546  0.1316 -0.0176 -0.1912
 8301W        W10451  16.622   1.505  10.624 -0.0698  0.0569  0.0376
 8302W        W10452   7.603   1.294  16.815  0.1326  0.2210  0.0405
 8303W        W10453  14.848   6.118   4.657 -0.1246  0.0722  0.2066
 8304W        W10454   0.182   0.314  17.124  0.1509 -0.0091  0.1038
 8305W        W10455  17.623   0.762  16.738 -0.2526  0.0595  0.1673
 8306W        W10456  12.030   4.314   0.313 -0.3398  0.4502  0.1251
 8307W        W10457   5.109   2.272   4.377  0.0705  0.2057 -0.0454
 8308W        W10458   6.525   0.738   6.465  0.1114  0.2316 -0.1376
 8309W        W10459  19.941   2.498  17.942 -0.0530  0.0952  0.1613
 8310W        W10460  17.979   5.446  18.703  0.1578  0.0487 -0.1631
 8311W        W10461   7.021   4.711  15.172 -0.0528  0.0303 -0.1530
 8312W        W10462  29.505   1.454  22.922 -0.1541 -0.0869  0.0291
 8313W        W10463   8.029   0.189   3.463  0.3724  0.1082 -0.0165
 8314W        W10464   0.234   1.857  18.087  0.2572  0.2511  0.0879
 8315W        W10465  23.862   0.500  21.803  0.1411 -0.3766  0.2026
 8316W        W10466   3.708   4.156   7.589  0.0885 -0.3441  0.0116
 8317W        W10467   8.502   5.069  20.276 -0.2503 -0.1581 -0.0511
 8318W        W10468  17.905   7.119  24.942 -0.0964  0.1769 -0.1276
 8319W        W10469  19.328   0.455   2.124  0.0488  0.1856 -0.2299
 8320W        W10470   4.870   0.545  24.751  0.0461  0.0269  0.2325
 8321W        W10471  21.181   3.268  20.546 -0.0732  0.1082  0.0802
 8322W        W10472   5.148   1.956  21.979 -0.0380 -0.1760 -0.0188
 8323W        W10473  29.289   2.227  25.753 -0.0261 -0.0114  0.1569
 8324W        W10474   3.840   7.262  15.581  0.1676 -0.0171 -0.0436
 8325W        W10475  19.296   0.681  16.082 -0.4965  0.0466  0.2906
 8326W        W10476   7.223   3.173   5.188 -0.0110 -0.0367 -0.1257
 8327W        W10477  27.643   2.009   7.961 -0.1081 -0.4422  0.1745
 8328W        W10478  22.090   6.684  16.976 -0.0399 -0.0107 -0.1179
 8329W        W10479  21.300   6.659  16.165  0.2779 -0.3188 -0.0029
 8330W        W10480  25.953   5.098   7.359 -0.4328  0.0781  0.2848
 8331W        W10481  17.856   5.115  23.086 -0.0323  0.2723  0.0341
 8332W        W10482  14.708   6.056  21.427 -0.1115 -0.2283 -0.0980
 8333W        W10483  24.286   0.770   1.578 -0.1292 -0.2585  0.0872
 8334W        W10484  23.572   2.990   3.063  0.4672  0.3366  0.3239
 8335W        W10485   1.929   1.357   9.437  0.0882  0.4015  0.2930
 8336W        W10486  15.818   2.775   8.750  0.1137  0.2289 -0.1452
 8337W        W10487  25.350   5.908  20.127  0.1105 -0.0727  0.0918
 8338W        W10488   1.195   2.983   7.973 -0.1866  0.1233  0.1638
 8339W        W10489   2.365   5.824  25.547  0.0666 -0.0156 -0.3496
 8340W        W10490  11.239   2.492   6.790  0.0893 -0.0410 -0.0630
 8341W        W10491  17.066   1.504   1.753 -0.0304 -0.0642 -0.4338
 8342W        W10492  20.176   6.261  21.357 -0.1171 -0.1899  0.3711
 8343W        W10493  16.506   6.775  25.892  0.0070  0.1304  0.1538
 8344W        W10494  25.721   5.744  16.263  0.4451 -0.0063 -0.1351
 8345W        W10495   1.854   6.415   3.983  0.0772  0.0937  0.0498
 8346W        W10496  26.147   0.032  17.558 -0.1033  0.0311 -0.0648
 8347W        W10497   8.296   6.023   5.147 -0.0045  0.0935 -0.1970
 8348W        W10498   0.898   1.817  10.282  0.1105  0.0236  0.1088
 8349W        W10499   8.048   2.446  10.363  0.1106 -0.0392  0.2209
 8350W        W10500   1.388   2.263  10.443 -0.1088 -0.1836  0.0501
 8351W        W10501  30.785   5.105   5.035  0.0040  0.1643  0.0602
 8352W        W10502  26.107   6.250  25.787  0.0951 -0.2469 -0.0458
 8353W        W10503   5.515   2.182   4.020  0.2378 -0.2118 -0.2983
 8354W        W10504   5.507   7.288  24.734  0.0050  0.1178 -0.1310
 8355W        W10505  23.554   4.964   5.370  0.1005  0.0816 -0.0154
 8356W        W10506   6.684   5.755   4.297  0.2432 -0.0700 -0.2674
 8357W        W10507   9.588   6.661   5.327  0.1029 -0.2779 -0.0179
 8358W        W10508   3.088   4.053  21.525  0.0248 -0.0906  0.3542
 8359W        W10509  26.831   0.550   8.917 -0.1411  0.1743 -0.0754
 8360W        W10510  18.296   2.771   4.265  0.0672 -0.0979  0.2366
 8361W        W10511  10.591   3.234  22.495  0.0037  0.1122 -0.0345
 8362W        W10512   4.047   1.388  18.200  0.0195 -0.0230  0.1943
 8363W        W10513   4.164   2.910   9.440 -0.0912  0.0931  0.0844
 8364W        W10514   0.943   1.139  23.361 -0.0494 -0.1256  0.0875
 8365W        W10515  16.484   0.634   1.619 -0.0494 -0.0793  0.1846
 8366W        W10516  28.670   4.279  18.268 -0.2051 -0.0969 -0.1909
 8367W        W10517  24.183   3.984   8.003 -0.0571  0.0575  0.2645
 8368W        W10518   0.508   1.456  24.567 -0.2348 -0.0948  0.1089
 8369W        W10519  19.624   2.820  21.668 -0.0408 -0.1228 -0.1928
 8370W        W10520  27.942   2.732   8.657 -0.1121  0.4102 -0.0447
 8371W        W10521   7.114   6.141  19.080  0.3997  0.0855 -0.2712
 8372W        W10522  15.222   2.664   2.565  0.3295 -0.1988 -0.0445
 8373W        W10523  15.086   5.769   9.640  0.2457 -0.0733  0.1790
 8374W        W10524  10.917   4.968   6.545  0.0058  0.2268  0.1496
 8375W        W10525   1.155   6.257   6.792 -0.3879  0.1705  0.1079
 8376W        W10526  10.060   4.585  19.489 -0.0912  0.3451 -0.3094
 8377W        W10527  28.860   6.132   5.601  0.0929  0.0272  0.3467
 8378W        W10528   8.355   6.755   6.171  0.1274 -0.2503  0.2658
 8379W        W10529   6.395   7.070  18.639  0.0091 -0.2020 -0.1025
 8380W        W10530   8.036   0.041  22.032  0.1787  0.0417 -0.0158
 8381W        W10531   5.270   2.310   9.466  0.2626  0.2299 -0.1264
 8382W        W10532   4.727   3.450  10.273  0.3722  0.0248 -0.0849
 8383W        W10533   3.109   5.909  16.559  0.0508 -0.2866 -0.0562
 8384W        W10534   4.249   5.388   3.336  0.0928  0.1538 -0.2182
 8385W        W10535  10.154   5.791   9.746 -0.0686 -0.3109 -0.1716
 8386W        W10536   1.801   2.290  10.730  0.3602  0.0630 -0.0210
 8387W        W10537  16.614   7.476  15.990 -0.2832  0.0191 -0.1636
 8388W        W10538  13.067   2.718   3.065  0.0859 -0.2691  0.2102
 8389W        W10539  19.959   5.194   5.080  0.0212  0.0572 -0.0317
 8390W        W10540  17.336   3.887  22.115 -0.0777 -0.0691  0.1609
 8391W        W10541   6.129   4.215   7.788 -0.0978 -0.2476  0.0621
 8392W        W10542  20.555   7.245  18.071 -0.2191  0.3380 -0.3763
 8393W        W10543   5.723   0.156   0.960 -0.2287 -0.0017  0.0386
 8394W        W10544  12.161   1.554  21.377  0.0508 -0.2915  0.0866
 8395W        W10545   0.411   6.739  17.575  0.0481  0.2182  0.2150
 8396W        W10546  10.598   7.414   0.226 -0.0144  0.2544 -0.0947
 8397W        W10547   1.049   4.143  18.185 -0.2841  0.1719 -0.1145
 8398W        W10548   7.026   3.533  17.532  0.1607  0.0126  0.2296
 8399W        W10549  27.415   7.665  23.664  0.2039  0.1529 -0.3349
 8400W        W10550   3.724   2.609   5.402 -0.1949 -0.0147 -0.0597
 8401W        W10551  12.608   4.826  16.172  0.1641  0.2243 -0.0193
 8402W        W10552   9.609   6.951  10.909 -0.5375 -0.2305 -0.1792
 8403W        W10553   6.385   5.288  18.005 -0.0567  0.4422  0.2321
 8404W        W10554  15.249   0.231  20.852  0.0330 -0.0340 -0.1516
 8405W        W10555  12.912   3.132   0.578  0.0895  0.1189  0.0238
 8406W        W10556  18.536   6.584   5.922 -0.0289 -0.0473 -0.1048
 8407W        W10557  18.824   7.524   9.336  0.0411 -0.2560 -0.0044
 8408W        W10558  11.522   0.695  20.029 -0.0526 -0.2592 -0.0730
 8409W        W10559  23.349   0.813   1.375 -0.0904 -0.0366 -0.1753
 8410W        W10560   9.539   6.708  17.530  0.2080  0.0709 -0.2561
 8411W        W10561  17.589   1.626  10.585  0.0662  0.1793 -0.0762
 8412W        W10562  30.181   5.130  10.062 -0.1386  0.1686 -0.0741
 8413W        W10563  23.483   0.073  19.404 -0.0601  0.0982 -0.0395
 8414W        W10564  26.968   7.621   3.302  0.0128  0.1400  0.3420
 8415W        W10565  19.764   5.846   0.774 -0.1394 -0.0533 -0.1089
 8416W        W10566  26.818   0.598  18.619  0.0790 -0.0292  0.0974
 8417W        W10567  12.201   1.847   8.121 -0.4141  0.1173 -0.2618
 8418W        W10568   4.420   0.148  24.276  0.0492 -0.2450 -0.2023
 8419W        W10569  22.019   4.690  15.504 -0.0660  0.1497 -0.2671
 8420W        W10570  17.670   3.821   2.576  0.2271 -0.1529  0.0404
 8421W        W10571  28.290   1.921  23.274  0.3005 -0.2566 -0.1710
 8422W        W10572  20.546   6.010  23.294  0.0926  0.1055  0.1458
 8423W        W10573   3.976   2.464  19.596 -0.1211  0.3149 -0.3072
 8424W        W10574  10.043   7.797   9.320 -0.0809  0.1041 -0.0060
 8425W        W10575   2.700   4.823   6.672 -0.0651 -0.0015 -0.0311
 8426W        W10576   6.982   5.182   7.557  0.0461 -0.2332  0.0784
 8427W        W10577  12.763   5.225   2.811 -0.1813 -0.1829 -0.1852
 8428W        W10578  18.420   4.758   5.194 -0.0632 -0.1608 -0.2845
 8429W        W10579   9.600   6.570   8.724  0.2032  0.3407 -0.0878
 8430W        W10580  31.138   3.997   3.873  0.0491  0.1577  0.0460
 8431W        W10581  30.320   6.670   4.522 -0.0527 -0.2978 -0.1695
 8432W        W10582   2.257   3.107  15.575  0.0682  0.2356  0.2806
 8433W        W10583  16.815   5.615   8.276 -0.2250 -0.1606 -0.1493
 8434W        W10584  18.173   6.813  10.240 -0.2563 -0.0064 -0.1178
 8435W        W10585  30.359   7.343   1.796 -0.1085 -0.1214  0.2747
 8436W        W10586  19.404   7.441  15.897  0.0088 -0.2044 -0.2232
 8437W        W10587  28.111   4.433  19.367 -0.1245  0.1600 -0.1536
 8438W        W10588  23.644   1.208  25.653  0.0789  0.0307 -0.4323
 8439W        W10589  23.358   7.246  23.863  0.1772  0.2991 -0.0740
 8440W        W10590   6.337   2.910   4.676 -0.1554  0.0280 -0.1352
 8441W        W10591  26.808   0.595   1.626  0.0518  0.2714 -0.1809
 8442W        W10592  21.074   4.818   8.724 -0.0531  0.1192  0.1306
 8443W        W10593  11.669   1.333   1.439 -0.0442 -0.1746  0.1580
 8444W        W10594  13.014   0.941   2.708  0.2073  0.1208  0.1416
 8445W        W10595  27.362   1.543   6.446 -0.3740  0.0267 -0.1626
 8446W        W10596  23.176   7.413  17.510  0.0728 -0.1914 -0.2811
 8447W        W10597   3.596   2.175  26.252  0.1407 -0.0826 -0.2547
 8448W        W10598   0.416   6.394   2.193 -0.1436  0.0606 -0.1253
 8449W        W10599   5.496   1.290   0.104  0.1846  0.4085 -0.3188
 8450W        W10600  23.912   2.074  17.394 -0.1610 -0.0398 -0.0689
 8451W        W10601   2.110   1.587  23.396  0.0546  0.1444 -0.1720
 8452W        W10602  23.577   6.790   7.223 -0.1269  0.1344 -0.4021
 8453W        W10603   2.523   7.668   4.774  0.1818  0.3703 -0.4716
 8454W        W10604  15.343   5.507   1.742 -0.0575  0.3077 -0.0953
 8455W        W10605  23.591   5.857  19.322  0.0202 -0.1247  0.1558
 8456W        W10606   0.157   2.757   0.761  0.0068  0.2145 -0.1566
 8457W        W10607  28.430   2.537  19.044 -0.1431  0.1222 -0.1752
 8458W        W10608   8.696   3.258  25.735  0.1281 -0.0105 -0.0909
 8459W        W10609  15.340   6.863  20.357 -0.5072 -0.1806  0.3834
 8460W        W10610  18.057   3.081  23.820 -0.1199 -0.0589 -0.1820
 8461W        W10611  21.090   1.812  24.647  0.2222  0.0239 -0.0381
 8462W        W10612  20.298   3.116   2.979 -0.1121  0.0587  0.1835
 8463W        W10613   8.425   1.529   5.277  0.2426 -0.2064  0.1670
 8464W        W10614  21.585   2.565   4.733  0.2109 -0.4059 -0.1754
 8465W        W10615   8.701   4.429   0.000  0.1458  0.0273 -0.1530
 8466W        W10616  28.932   6.089   3.600  0.2946  0.0655  0.2115
 8467W        W10617  21.942   6.536  23.366  0.0214 -0.0288  0.0737
 8468W        W10618  23.425   1.532   6.960  0.0456  0.3340  0.0988
 8469W        W10619  12.438   6.631  18.231 -0.0396 -0.0558 -0.1458
 8470W        W10620   4.200   6.112   7.517 -0.0278 -0.0827 -0.1337
 8471W        W10621  27.302   3.953   7.132  0.1017  0.1539 -0.3945
 8472W        W10622  19.696   5.420   1.078 -0.0307  0.1234 -0.1581
 8473W        W10623  27.293   5.656   3.661 -0.0454  0.0280 -0.0709
 8474W        W10624  21.774   5.598  18.555 -0.0089 -0.0691 -0.1198
 8475W        W10625  14.325   2.132  25.361 -0.3507  0.2988  0.0351
 8476W        W10626  15.309   0.166  16.677  0.5265  0.0203  0.2727
 8477W        W10627  26.997   3.845   9.433 -0.0577 -0.1219 -0.2087
 8478W        W10628  23.748   1.810   0.137  0.2164  0.1408 -0.0158
 8479W        W10629  15.491   2.653  24.204 -0.1690 -0.0258  0.0404
 8480W        W10630  29.428   2.678   2.339  0.1502 -0.1434  0.1817
 8481W        W10631   6.479   2.881   8.423  0.0492  0.3117  0.2212
 8482W        W10632   6.288   4.126   4.859  0.1434  0.0651  0.0194
 8483W        W10633   5.219   0.776   1.831 -0.0673  0.0803 -0.0974
 8484W        W10634  10.914   5.559   9.110  0.0519 -0.0333  0.3244
 8485W        W10635  23.428   3.686   6.564 -0.1056 -0.0030 -0.0159
 8486W        W10636  22.204   1.491  19.842 -0.0602  0.1253 -0.0979
 8487W        W10637  16.050   0.346   6.192  0.2115  0.0900 -0.2540
 8488W        W10638  12.268   6.897   4.134  0.3099  0.1647 -0.1486
 8489W        W10639  27.284   5.149  18.823 -0.0365 -0.1286 -0.0555
 8490W        W10640  21.702   3.823  22.755 -0.3688  0.1740 -0.2867
 8491W        W10641   6.070   2.987  16.369  0.2709  0.1552  0.1492
 8492W        W10642  30.486   1.015   3.831 -0.1825 -0.2269  0.0959
 8493W        W10643   3.127   4.459   4.283 -0.0552  0.0090 -0.3450
 8494W        W10644  13.818   3.350  22.915  0.0655  0.0621  0.2239
 8495W        W10645  24.163   0.925  19.169 -0.1817 -0.1221 -0.0534
 8496W        W10646  30.117   5.790   6.857 -0.2718 -0.2153  0.2220
 8497W        W10647   5.597   4.024  21.736  0.0518  0.1851 -0.3141
 8498W        W10648  24.902   3.980   0.188 -0.0724 -0.0702 -0.0578
 8499W        W10649   9.634   6.508  22.398  0.1013  0.0499 -0.0776
 8500W        W10650   9.431   0.275   2.361 -0.0732 -0.1975 -0.0799
 8501W        W10651  16.569   5.936   4.335 -0.0739  0.1220  0.3584
 8502W        W10652  10.798   7.033  10.090  0.1923  0.0362  0.1835
 8503W        W10653   0.728   7.399   9.965 -0.1451  0.0764  0.1045
 8504W        W10654   3.913   3.972  18.347  0.0833  0.0206  0.3596
 8505W        W10655   8.280   4.089   0.863 -0.0993  0.1094 -0.1871
 8506W        W10656   3.414   6.451   1.220  0.3575 -0.0956  0.1600
 8507W        W10657   8.812   4.346   4.600  0.1761 -0.1933  0.0031
 8508W        W10658   2.649   1.768   3.260 -0.2888 -0.0353 -0.0143
 8509W        W10659  28.818   1.414  10.040  0.0844 -0.1023 -0.0028
 8510W        W10660  17.901   7.773  26.139 -0.0314 -0.1095  0.1478
 8511W        W10661  27.894   0.171  20.785 -0.0624 -0.0122 -0.0971
 8512W        W10662  28.132   2.925   1.035 -0.1069  0.1573 -0.4001
 8513W        W10663  23.676   2.277  19.728  0.0400  0.1495  0.0658
 8514W        W10664   1.228   6.168   0.510 -0.0924  0.4508  0.1430
 8515W        W10665   0.973   5.616   2.977 -0.4186 -0.2583  0.0794
 8516W        W10666   7.330   6.817  19.473 -0.0838  0.0671  0.2257
 8517W        W10667  10.691   5.900  22.554 -0.4403  0.0599 -0.1891
 8518W        W10668   0.439   4.153   4.032 -0.2482  0.2770  0.1009
 8519W        W10669  16.493   6.111  23.541  0.0326  0.1736 -0.0678
 8520W        W10670   8.467   7.542  17.395 -0.0489  0.2757 -0.0087
 8521W        W10671  24.394   2.490   9.662 -0.1515 -0.0584 -0.1909
 8522W        W10672  31.130   2.245   1.736 -0.1419 -0.1062  0.2707
 8523W        W10673  22.811   4.325  25.469 -0.0322  0.0928  0.3276
 8524W        W10674  17.492   0.021   8.746  0.4803  0.1452  0.1418
 8525W        W10675  14.050   0.451   0.561  0.0823 -0.1859  0.1533
 8526W        W10676   6.359   6.954  20.476  0.2504 -0.1080  0.1554
 8527W        W10677   1.717   5.444   9.063 -0.1608 -0.1335 -0.0834
 8528W        W10678   0.852   6.498   9.867  0.0325  0.0307 -0.0324
 8529W        W10679  29.782   2.565   1.861  0.2971  0.1519 -0.1204
 8530W        W10680  25.719   1.675   7.737 -0.3449 -0.1834 -0.0700
 8531W        W10681   4.876   5.004   1.564 -0.2494  0.0468  0.0677
 8532W        W10682   9.665   2.003   5.138  0.0675 -0.2024 -0.0886
 8533W        W10683  12.760   0.020   9.790  0.1390  0.3192 -0.1190
 8534W        W10684   6.801   2.833  17.924 -0.0811 -0.2138 -0.0019
 8535W        W10685  17.972   3.835   5.036  0.0538 -0.2773  0.1899
 8536W        W10686  20.877   3.598   2.647 -0.1787  0.0179 -0.0901
 8537W        W10687  16.451   2.382  19.420 -0.1840 -0.2534  0.1410
 8538W        W10688  19.937   0.276  21.678  0.2444 -0.0666 -0.1511
 8539W        W10689   3.694   2.972  24.060  0.1235  0.0334  0.0479
 8540W        W10690  26.972   6.406   4.440  0.0462 -0.0408  0.1958
 8541W        W10691  19.655   4.843   7.255  0.2151 -0.4558  0.0897
 8542W        W10692   3.196   4.591   9.593 -0.0313 -0.0352 -0.0854
 8543W        W10693   4.125   5.954  19.970  0.1293  0.3188  0.1632
 8544W        W10694  26.658   2.954  15.808 -0.0662 -0.3134  0.0064
 8545W        W10695   8.706   3.076  21.652 -0.1767  0.2157 -0.0655
 8546W        W10696  15.241   3.787   8.014  0.1332 -0.0614  0.1120
 8547W        W10697   9.940   1.042   3.586 -0.0831 -0.0087  0.4001
 8548W        W10698  19.420   4.621   3.494  0.0354 -0.0059  0.2052
 8549W        W10699   7.127   0.618   3.985 -0.0342  0.1335  0.0597
 8550W        W10700  19.481   1.118  23.133 -0.0928 -0.1367  0.0924
 8551W        W10701  31.073   2.867  15.346 -0.0548  0.2668  0.2719
 8552W        W10702   8.227   5.506  21.034  0.1491 -0.1211 -0.1200
 8553W        W10703  11.118   6.671  21.422  0.1734  0.1252  0.0805
 8554W        W10704  30.037   3.272  18.439  0.1735 -0.3405  0.0481
 8555W        W10705   4.407   3.087  20.184  0.4510 -0.3414  0.2046
 8556W        W10706   2.134   1.851   8.778 -0.0382 -0.1139  0.0550
 8557W        W10707  16.521   6.505   0.327 -0.0769  0.1264  0.1239
 8558W        W10708  21.960   3.372  22.398 -0.1088 -0.0557  0.1577
 8559W        W10709  23.483   0.750  24.742 -0.0836 -0.0663 -0.2456
 8560W        W10710   5.690   7.091  19.142 -0.2239  0.0341 -0.5004
 8561W        W10711  15.175   6.689   5.369  0.1692 -0.1411 -0.0120
 8562W        W10712  18.749   1.261  16.785  0.1065 -0.0419  0.2358
 8563W        W10713  24.768   1.958  23.990 -0.0519 -0.1102 -0.0104
 8564W        W10714   9.450   3.530  17.207 -0.2304 -0.2136  0.2220
 8565W        W10715  27.284   4.325   0.660  0.2480  0.4799  0.0736
 8566W        W10716   0.714   5.552   1.499  0.1502  0.0018 -0.2855
 8567W        W10717  27.432   4.203  23.796  0.0485  0.1921 -0.0887
 8568W        W10718   2.551   7.400  24.502 -0.1498 -0.0984  0.1901
 8569W        W10719  16.886   0.534  20.673  0.0875 -0.0232  0.3199
 8570W        W10720  30.841   2.018   3.674 -0.0036  0.0420  0.0983
 8571W        W10721  24.919   1.900  22.241  0.1800  0.4229  0.0108
 8572W        W10722   8.136   5.711  25.597  0.4122  0.0031 -0.1442
 8573W        W10723  30.600   6.791   0.900 -0.0594  0.1640  0.1910
 8574W        W10724  17.322   0.317  23.824 -0.2318 -0.1655  0.2038
 8575W        W10725  21.305   4.031  23.580 -0.0725 -0.2733  0.1393
 8576W        W10726  11.004   5.734  16.386 -0.0323 -0.0646 -0.1137
 8577W        W10727   6.008   0.898   6.601  0.1262 -0.0089 -0.0439
 8578W        W10728  18.075   4.399  17.309 -0.5054 -0.0106 -0.0615
 8579W        W10729   0.522   4.340   5.270 -0.0924 -0.0493 -0.1074
 8580W        W10730  16.371   0.927   8.134 -0.2250 -0.0067  0.1290
 8581W        W10731  11.378   7.117  24.490 -0.0562 -0.2858  0.1257
 8582W        W10732  24.867   0.688  23.868  0.2778 -0.2221  0.1558
 8583W        W10733  25.023   3.597  16.759  0.0514 -0.0605  0.1824
 8584W        W10734  25.881   5.623  20.986  0.0586 -0.1381 -0.0914
 8585W        W10735  12.327   4.806   7.845 -0.1385  0.2710  0.4258
 8586W        W10736   6.822   3.299  16.230  0.1692 -0.0120  0.1425
 8587W        W10737  19.936   6.791   1.148  0.0117 -0.0682  0.4332
 8588W        W10738  11.470   2.208   1.750 -0.1304  0.1746 -0.2266
 8589W        W10739  25.408   5.166   9.764 -0.0883 -0.0405 -0.0423
 8590W        W10740  13.212   2.438  24.446 -0.2399  0.0058  0.5485
 8591W        W10741   6.800   2.460  22.103 -0.1988 -0.0630 -0.1074
 8592W        W10742   9.116   4.763   9.967  0.2490  0.1344  0.1816
 8593W        W10743  23.466   6.568   5.674 -0.0654  0.0097 -0.3035
 8594W        W10744  24.995   2.048   6.673 -0.1454 -0.0377 -0.0398
 8595W        W10745  23.059   1.854   2.395 -0.1098 -0.1216 -0.1060
 8596W        W10746  17.768   0.711  16.277  0.2508 -0.0585 -0.2576
 8597W        W10747  11.001   3.240  24.314  0.1364  0.1152 -0.4340
 8598W        W10748   3.469   7.496  21.171  0.3770  0.0883  0.1352
 8599W        W10749  10.461   3.507  20.348  0.0536 -0.0020 -0.0000
 8600W        W10750  12.751   0.813   9.591  0.1585  0.2920  0.0324
 8601W        W10751  20.483   1.077  24.132  0.0786 -0.0055 -0.3045
 8602W        W10752  26.121   1.394  15.816 -0.1726 -0.2556 -0.0330
 8603W        W10753   3.596   6.006  20.420 -0.1429  0.1236 -0.1326
 8604W        W10754  29.968   3.373   7.685 -0.1865  0.0119 -0.0278
 8605W        W10755  10.067   4.775   5.974 -0.1280 -0.1913 -0.2077
 8606W        W10756  12.381   7.730   8.193 -0.0196 -0.3268 -0.0809
 8607W        W10757   2.456   3.504  21.197  0.2194 -0.0644 -0.4311
 8608W        W10758  25.903   2.021  19.993 -0.0276  0.1995 -0.0602
 8609W        W10759   4.366   3.212  17.960  0.0565  0.4348 -0.3467
 8610W        W10760  19.384   4.983   9.905  0.0653 -0.0270 -0.1119
 8611W        W10761  12.022   4.259   5.190  0.3574  0.1711 -0.0739
 8612W        W10762   8.652   2.385  10.585 -0.1067  0.4312  0.1821
 8613W        W10763   8.372   2.952  19.038 -0.0503 -0.1806  0.2440
 8614W        W10764  31.007   1.461  15.076  0.3664  0.0537 -0.2582
 8615W        W10765  25.914   2.202  26.280  0.0284  0.1761 -0.0817
 8616W        W10766  19.442   6.127  11.084  0.0844  0.2757  0.1255
 8617W        W10767  20.249   7.189  25.437 -0.1176  0.0299  0.1626
 8618W        W10768  16.596   7.780  25.609 -0.0611  0.2470 -0.3731
 8619W        W10769   4.712   5.483  19.216  0.1947 -0.0248  0.5777
 8620W        W10770   0.463   1.792   4.744  0.0833 -0.1351  0.2771
 8621W        W10771  10.600   7.277  20.874 -0.0159 -0.0292 -0.1718
 8622W        W10772  29.169   7.319  18.622  0.2667 -0.1035  0.1663
 8623W        W10773  13.373   1.080  23.221  0.0329 -0.1180 -0.0611
 8624W        W10774  12.630   7.102  19.878 -0.0249  0.2230  0.2516
 8625W        W10775  27.414   4.452   2.045  0.0158 -0.3508 -0.1462
 8626W        W10776  29.549   3.568   6.776 -0.1215  0.0928 -0.1278
 8627W        W10777  16.298   4.558  21.033 -0.5212 -0.0577 -0.1321
 8628W        W10778   1.779   3.718  16.620 -0.1924  0.1240 -0.0596
 8629W        W10779   2.874   6.240   8.721  0.1153 -0.0450 -0.3673
 8630W        W10780  17.962   6.067   4.800 -0.1827 -0.1221 -0.3982
 8631W        W10781  14.249   0.476  22.509  0.2503  0.0885 -0.4058
 8632W        W10782  21.080   0.723   2.577  0.0026 -0.3034 -0.2208
 8633W        W10783   2.817   3.076  21.514  0.0450 -0.1504  0.2638
 8634W        W10784   5.682   0.608   4.068  0.0843 -0.0931 -0.1114
 8635W        W10785  13.198   0.833  18.682  0.1080  0.1639  0.3194
 8636W        W10786  12.399   2.382   6.916  0.0134 -0.0505 -0.4382
 8637W        W10787  12.715   4.934   6.547  0.0738  0.0080 -0.0081
 8638W        W10788  16.033   1.991  25.007 -0.2158  0.2806 -0.1504
 8639W        W10789  11.986   0.091  10.818 -0.0713  0.4208  0.1139
 8640W        W10790  12.973   1.428  18.639  0.1172 -0.1896  0.0071
 8641W        W10791  24.975   0.973  17.439  0.2825 -0.1661 -0.1213
 8642W        W10792   2.768   3.872   0.217  0.0501  0.0209  0.0465
 8643W        W10793  19.768   7.574  24.609 -0.1712  0.1223  0.0368
 8644W        W10794  17.697   3.122   8.804 -0.1256 -0.2326  0.0033
 8645W        W10795  22.716   6.013   3.511  0.0883 -0.0685  0.1176
 8646W        W10796  25.451   0.371  22.486 -0.1006 -0.0730  0.1087
 8647W        W10797  14.329   1.522  10.437 -0.2769 -0.1004  0.3956
 8648W        W10798   9.461   5.632  23.795  0.0593 -0.0894 -0.2182
 8649W        W10799  15.971   7.424   1.954 -0.2341 -0.4125 -0.1176
 8650W        W10800  21.442   6.532   9.087  0.2659 -0.0335 -0.0292
 8651W        W10801  10.549   2.563  20.823 -0.2776  0.0312 -0.3721
 8652W        W10802  27.754   2.007  24.048 -0.1284 -0.3046  0.1705
 8653W        W10803  19.507   5.050   4.129  0.0007  0.3036  0.0983
 8654W        W10804  27.999   3.165   3.823 -0.0329  0.1354  0.0988
 8655W        W10805   7.160   4.670   5.192 -0.0872  0.0852 -0.0196
 8656W        W10806   2.445   0.840  17.560 -0.3893  0.2079  0.4101
 8657W        W10807  10.075   2.715  25.543 -0.1781 -0.0332 -0.0382
 8658W        W10808  28.092   1.213   6.712 -0.3043 -0.0189 -0.1852
 8659W        W10809  10.684   3.989  21.509  0.1163  0.0816  0.0562
 8660W        W10810   7.131   4.537   1.473  0.0575  0.1615  0.0939
 8661W        W10811  16.770   0.163  23.161 -0.4333  0.0473 -0.0857
 8662W        W10812  10.770   2.191  15.288 -0.3186  0.1689 -0.1278
 8663W        W10813  13.062   0.043  25.748 -0.1247  0.1466 -0.1017
 8664W        W10814   0.552   1.074   6.009 -0.1852  0.1834  0.0638
 8665W        W10815  27.847   2.585  22.787 -0.0618 -0.0991  0.1735
 8666W        W10816  23.523   4.430  26.210  0.0269  0.0553  0.0923
 8667W        W10817   4.112   2.048   7.483  0.2063  0.0750 -0.1246
 8668W        W10818  21.705   1.973   3.976 -0.3286  0.2576  0.0252
 8669W        W10819   5.203   5.425  10.768 -0.0401  0.1217  0.1373
 8670W        W10820  25.272   3.447   8.770 -0.1618  0.3053  0.0681
 8671W        W10821  28.228   5.140  21.569 -0.1323 -0.0211  0.1456
 8672W        W10822  21.204   6.159  10.596  0.0197  0.3332  0.2180
 8673W        W10823  26.873   5.800   8.342 -0.0271  0.1788  0.2084
 8674W        W10824  11.623   6.481  26.078  0.2556 -0.0843 -0.0006
 8675W        W10825   9.316   5.111  16.729  0.0703 -0.0430 -0.1348
 8676W        W10826  22.452   2.696   8.188 -0.0107  0.1276  0.0127
 8677W        W10827   3.321   5.536   9.338  0.0659 -0.0280  0.1729
 8678W        W10828  16.705   0.303  23.644 -0.2203  0.1730  0.0013
 8679W        W10829  12.204   3.414  15.676  0.0550 -0.2011 -0.0857
 8680W        W10830  23.986   1.158   1.696 -0.1919  0.0806  0.1515
 8681W        W10831  12.217   5.533  20.110  0.0487  0.2410 -0.1329
 8682W        W10832  26.401   0.588  16.760  0.0713 -0.0651  0.3024
 8683W        W10833  22.782   2.095   5.372 -0.1407  0.2256  0.3233
 8684W        W10834   9.522   5.561   3.343 -0.0869 -0.1507 -0.1879
 8685W        W10835  26.921   7.322  23.551 -0.1021  0.1863  0.1442
 8686W        W10836  14.294   6.333   6.520 -0.0424 -0.0906  0.1759
 8687W        W10837  14.777   1.581   0.789 -0.2176 -0.0566 -0.1305
 8688W        W10838  10.394   7.354   5.573 -0.0863  0.1276  0.0013
 8689W        W10839  25.598   0.387  23.029 -0.0778 -0.0742 -0.1624
 8690W        W10840  30.703   4.220  18.781 -0.1574  0.1718  0.0262
 8691W        W10841  26.709   5.786   2.156  0.0096  0.0317 -0.2078
 8692W        W10842  22.629   6.674  21.123 -0.0145  0.0035 -0.1682
 8693W        W10843   0.617   0.744   1.286 -0.2693  0.0272  0.1265
 8694W        W10844  12.818   2.783  16.103 -0.1023 -0.3704  0.0455
 8695W        W10845  17.056   6.076   5.226 -0.0293  0.0319 -0.0060
 8696W        W10846  16.354   6.576  22.154  0.1545 -0.1064 -0.1996
 8697W        W10847  18.862   2.673  21.763  0.2676  0.0478  0.1982
 8698W        W10848  20.147   5.176  16.504 -0.0661 -0.2770 -0.2202
 8699W        W10849  10.593   6.352  19.792 -0.0954  0.1027 -0.1270
 8700W        W10850  27.318   7.099   2.974  0.4183  0.1302 -0.1525
 8701W        W10851   9.952   3.334   9.477  0.1395 -0.1177  0.2137
 8702W        W10852   5.260   3.680   3.058 -0.0676  0.0827 -0.0837
 8703W        W10853   3.200   2.099   6.455  0.0856 -0.1520  0.0614
 8704W        W10854   2.528   0.708  18.822 -0.2427 -0.0142 -0.0853
 8705W        W10855   6.477   4.249  10.183 -0.1134  0.2713  0.0345
 8706W        W10856   5.289   5.778  18.541  0.0039 -0.0130 -0.0734
 8707W        W10857   1.794   0.706   1.946 -0.0050  0.1003  0.0865
 8708W        W10858   2.962   7.636   3.636  0.3702 -0.1614  0.0000
 8709W        W10859  18.259   0.282   9.488 -0.4636 -0.1850  0.2465
 8710W        W10860  20.561   1.082  22.667 -0.0452 -0.2649  0.1144
 8711W        W10861  21.679   6.941   4.100  0.2019  0.1168  0.0854
 8712W        W10862   7.267   7.111   9.193  0.1217 -0.1484  0.2035
 8713W        W10863  27.316   7.287   2.462  0.1090 -0.0189 -0.1016
 8714W        W10864  10.988   1.797  19.330 -0.1911 -0.2515 -0.1250
 8715W        W10865   4.223   3.179  19.117 -0.0828  0.2819 -0.0857
 8716W        W10866  24.354   7.359  10.654 -0.0874  0.1636 -0.0558
 8717W        W10867  13.760   5.490  16.943 -0.3102 -0.3206 -0.0390
 8718W        W10868  22.565   4.864   2.707  0.2236  0.0222 -0.0656
 8719W        W10869   9.888   3.233   1.879 -0.1463 -0.1045 -0.0761
 8720W        W10870  10.523   1.036  16.643 -0.3333 -0.0606 -0.2567
 8721W        W10871  18.700   3.798  23.373  0.0122 -0.0125 -0.0003
 8722W        W10872  20.134   5.382   3.213 -0.0605 -0.0421  0.3894
 8723W        W10873  29.240   3.340   2.294 -0.0005 -0.0059  0.2483
 8724W        W10874  24.309   6.564   1.198  0.1879 -0.0239  0.5536
 8725W        W10875  23.460   0.972  18.217  0.1848  0.2693  0.0680
 8726W        W10876   3.015   1.580   2.084 -0.3270  0.2640  0.1392
 8727W        W10877  27.941   2.773   4.654  0.0771  0.0715  0.0334
 8728W        W10878   8.193   1.344  26.128  0.0161  0.2745  0.0558
 8729W        W10879  11.191   2.258  16.577  0.1729 -0.2549  0.0671
 8730W        W10880  24.249   0.644  21.426  0.0264  0.3220  0.2798
 8731W        W10881  24.088   5.265  24.211 -0.0197 -0.1015 -0.0777
 8732W        W10882  23.386   1.686  24.989  0.1722  0.2436  0.0767
 8733W        W10883  20.999   0.359  21.325  0.1013 -0.1636  0.2103
 8734W        W10884  26.097   5.912   2.317  0.2083 -0.0877  0.3177
 8735W        W10885  15.592   1.389   3.226 -0.2410  0.1200 -0.0203
 8736W        W10886   3.211   1.731  11.113  0.0828  0.3742 -0.0469
 8737W        W10887  27.017   4.000  19.844 -0.2894 -0.0706 -0.0071
 8738W        W10888   6.958   5.945   2.112  0.1477  0.1707  0.0518
 8739W        W10889  14.486   5.178  18.112 -0.2768  0.0431  0.0999
 8740W        W10890  27.923   1.002   4.876  0.0533  0.0749 -0.0410
 8741W        W10891  19.719   1.169  16.646 -0.3659 -0.2429 -0.0385
 8742W        W10892  26.612   2.764   2.186 -0.0383 -0.0184  0.2985
 8743W        W10893  25.232   7.797  23.167 -0.0250 -0.0371  0.4832
 8744W        W10894  14.496   4.657  10.528 -0.1493 -0.0515  0.1611
 8745W        W10895   4.997   7.326  10.426 -0.2029  0.0836  0.3181
 8746W        W10896  26.346   6.247   6.692  0.1449 -0.1813 -0.2438
 8747W        W10897  30.376   3.465   1.786 -0.1083  0.2018 -0.0394
 8748W        W10898  10.881   7.268  19.747  0.1781  0.1052  0.0537
 8749W        W10899  10.948   7.522  21.763 -0.0926 -0.3170  0.0557
 8750W        W10900  19.671   5.405   0.499  0.1320 -0.1228 -0.0399
 8751W        W10901   0.558   6.471  20.397  0.0855 -0.1144  0.2702
 8752W        W10902   4.574   7.232   0.920 -0.0992 -0.0791  0.3091
 8753W        W10903   8.599   6.705   4.610  0.0368  0.0311 -0.3837
 8754W        W10904  19.136   7.666   8.186 -0.0717 -0.1201  0.1136
 8755W        W10905   0.555   0.015  19.324  0.2227  0.0929  0.0897
 8756W        W10906   9.651   6.134   5.527 -0.1929 -0.1548 -0.2452
 8757W        W10907  17.645   3.244  15.519  0.0670 -0.0132  0.1852
 8758W        W10908  13.876   2.928  21.763 -0.0033 -0.1543 -0.0922
 8759W        W10909  15.871   5.500   8.991  0.0096  0.0321  0.0171
 8760W        W10910  18.206   7.602  17.445 -0.2395 -0.1045  0.0082
 8761W        W10911  28.700   0.678   2.974 -0.1547  0.3459  0.1334
 8762W        W10912  16.380   0.314   7.671  0.2254  0.1465 -0.0991
 8763W        W10913   6.609   0.959   2.060 -0.2704 -0.2351 -0.3045
 8764W        W10914  27.079   3.823   3.470 -0.1623 -0.2841 -0.0605
 8765W        W10915  30.182   4.739  19.896 -0.3311 -0.1912 -0.3192
 8766W        W10916   6.990   7.507  24.341 -0.2080 -0.3617  0.2662
 8767W        W10917   2.718   6.916  15.944 -0.0136  0.1282  0.1555
 8768W        W10918  28.296   2.428   3.954  0.2958 -0.1909 -0.1115
 8769W        W10919   5.059   3.308  25.536 -0.0355  0.0522  0.1098
 8770W        W10920  19.032   1.809  17.961  0.0449  0.1158 -0.1839
 8771W        W10921  22.736   6.057   5.378  0.0105  0.4136  0.0777
 8772W        W10922  27.648   6.396  15.591 -0.0680 -0.2849 -0.1497
 8773W        W10923  19.864   4.873  25.838 -0.0446 -0.0738 -0.0268
 8774W        W10924  15.219   3.298  16.438 -0.1839  0.4960 -0.3017
 8775W        W10925  18.769   2.786  22.512 -0.0544 -0.2286 -0.0717
 8776W        W10926   1.639   3.690  14.927 -0.2727  0.0288 -0.1715
 8777W        W10927  13.123   2.539   4.711 -0.0382 -0.2644  0.1255
 8778W        W10928   8.131   0.669   5.335  0.1914  0.0420  0.0089
 8779W        W10929  22.855   3.015  17.200 -0.0302 -0.2526  0.1728
 8780W        W10930  16.376   4.753  21.578 -0.2654 -0.0646 -0.0095
 8781W        W10931   5.986   1.712   2.129  0.0237  0.3654 -0.3345
 8782W        W10932  21.083   7.206   4.421  0.0514 -0.1853 -0.3531
 8783W        W10933  29.624   0.552   1.946  0.2070  0.0555  0.1706
 8784W        W10934   6.137   5.696   5.452 -0.4033 -0.0223  0.2493
 8785W        W10935   4.805   5.495   4.190 -0.0346 -0.1308 -0.0574
 8786W        W10936  14.276   7.419   3.234 -0.0247 -0.1741  0.1602
 8787W        W10937  15.963   2.909   5.899 -0.1454 -0.0801  0.2310
 8788W        W10938  16.472   6.840   9.838 -0.1703  0.1250 -0.1240
 8789W        W10939   9.881   3.913  24.956 -0.2555 -0.1358  0.1235
 8790W        W10940  18.623   6.279   7.093  0.3241  0.0467  0.0027
 8791W        W10941   7.894   2.740  16.677  0.0496 -0.3839  0.0006
 8792W        W10942  16.336   4.327  20.194  0.2750  0.1374 -0.0768
 8793W        W10943   3.043   1.185  10.999  0.1802 -0.0182  0.1412
 8794W        W10944  22.301   7.031   8.346 -0.3772  0.3051 -0.1040
 8795W        W10945   1.291   5.725  24.563  0.1772 -0.1865 -0.1276
 8796W        W10946   8.531   0.931  18.134  0.0583 -0.1448 -0.3090
 8797W        W10947  21.165   7.471  21.787 -0.0792 -0.0297  0.0669
 8798W        W10948   1.438   1.715  15.520  0.1272  0.2357 -0.1865
 8799W        W10949  27.654   5.856  17.734 -0.3281  0.0251 -0.3310
 8800W        W10950  20.399   7.582  22.263  0.2987 -0.2335 -0.0867
 8801W        W10951  22.920   0.280  21.824  0.1640  0.1103 -0.4476
 8802W        W10952  23.643   3.479  24.684  0.2648  0.2737  0.0791
 8803W        W10953  13.333   2.593  10.812  0.0636 -0.1504 -0.0982
 8804W        W10954  18.975   6.957   6.209 -0.2715 -0.0294 -0.1601
 8805W        W10955  20.907   6.672   0.354  0.5287  0.2287  0.0452
 8806W        W10956  21.293   7.793  23.417  0.1608 -0.1016 -0.0147
 8807W        W10957   3.299   7.568  18.521  0.1059  0.1785  0.0873
 8808W        W10958  15.554   5.128  18.068  0.1760 -0.1107  0.0991
 8809W        W10959   9.347   2.985  21.372 -0.2080 -0.0089 -0.0646
 8810W        W10960   2.501   5.806   1.760 -0.2163  0.0703 -0.1247
 8811W        W10961  25.588   6.104  24.912 -0.2110 -0.0975 -0.2495
 8812W        W10962  30.257   3.554   3.320 -0.2535  0.1508 -0.1528
 8813W        W10963   2.788   3.552   5.854  0.3695 -0.0754 -0.0513
 8814W        W10964  27.538   6.598  22.064 -0.1354  0.0551  0.1480
 8815W        W10965  27.978   1.098   4.179  0.2735 -0.2227 -0.3411
 8816W        W10966  28.914   0.988  22.130 -0.0723 -0.0929 -0.0581
 8817W        W10967  12.487   2.887   1.413  0.0290  0.0457 -0.1291
 8818W        W10968  28.528   4.011  20.243  0.2038  0.0945 -0.1905
 8819W        W10969   8.613   6.616   7.061  0.0671  0.2013 -0.0197
 8820W        W10970  30.447   2.053  17.985 -0.0611 -0.2853  0.3320
 8821W        W10971  13.575   7.314  25.348 -0.1736 -0.3801  0.0463
 8822W        W10972  19.646   6.763  17.459 -0.4108 -0.0269  0.0457
 8823W        W10973  13.227   0.974   4.578 -0.1032 -0.1058 -0.0667
 8824W        W10974  30.696   3.639   9.979  0.0459  0.0057  0.1638
 8825W        W10975  18.192   2.782   6.111  0.3255  0.1323 -0.1290
 8826W        W10976  16.488   3.673   8.426 -0.0451  0.0186  0.2388
 8827W        W10977  30.550   6.029   4.274 -0.0685 -0.3074 -0.0313
 8828W        W10978  16.836   0.947  11.112  0.0822  0.1277  0.3440
 8829W        W10979  10.603   5.761  19.709  0.1543  0.1385  0.0714
 8830W        W10980  26.928   6.436  19.678  0.1716  0.0676 -0.1564
 8831W        W10981  29.758   6.314  16.558  0.0694  0.2509  0.2662
 8832W        W10982  17.768   1.885   1.543 -0.1911 -0.0451 -0.2737
 8833W        W10983  11.449   7.628  15.680  0.1352 -0.0092 -0.3354
 8834W        W10984  22.024   1.500  24.341  0.4325  0.1439 -0.3265
 8835W        W10985   4.204   1.614   1.571  0.1737  0.0377 -0.0650
 8836W        W10986  13.681   4.095  19.908 -0.0517  0.1047 -0.1273
 8837W        W10987  23.320   5.120   0.287 -0.2751 -0.1202  0.1479
 8838W        W10988  24.201   0.579  17.938  0.2673 -0.1825  0.0808
 8839W        W10989  25.013   6.506  18.175  0.1659  0.1712  0.0478
 8840W        W10990  27.283   2.693  25.320 -0.0241  0.0265 -0.0982
 8841W        W10991  26.845   7.148   3.145 -0.1153  0.2788 -0.0009
 8842W        W10992  24.679   5.060   8.248 -0.1287 -0.0041  0.0329
 8843W        W10993   8.011   6.867  25.865 -0.1648  0.0216  0.0242
 8844W        W10994  12.600   3.947   6.442  0.0444 -0.1022 -0.0447
 8845W        W10995  22.842   7.037   6.327 -0.1848  0.0211 -0.1612
 8846W        W10996   1.490   1.981  25.493  0.1988 -0.1071  0.1404
 8847W        W10997  21.447   5.180  11.094  0.0894 -0.0095  0.3190
 8848W        W10998  29.789   7.177   2.446 -0.3723 -0.0690 -0.0366
 8849W        W10999   6.975   3.245  18.664  0.3659 -0.1121 -0.1347
 8850W        W11000   0.132   2.888   7.426  0.0692  0.0179 -0.1145
 8851W        W11001  26.340   7.168   8.589  0.0122  0.1924  0.0317
 8852W        W11002   8.338   4.023  16.369 -0.0606  0.0155  0.1072
 8853W        W11003  16.163   3.264  17.743 -0.2179  0.0858 -0.0810
 8854W        W11004   9.807   3.100  15.552 -0.0865 -0.1997  0.2502
 8855W        W11005  26.929   2.183  23.464 -0.2611  0.2362 -0.2738
 8856W        W11006   3.640   4.723   1.498 -0.2500 -0.2388  0.0015
 8857W        W11007  26.186   2.585  22.622  0.0001 -0.0935 -0.2204
 8858W        W11008   6.408   7.457  19.849  0.3652 -0.0359 -0.2553
 8859W        W11009  13.809   1.051  22.003  0.1230 -0.0234  0.0580
 8860W        W11010  26.912   1.769   6.582  0.1664  0.0874 -0.1814
 8861W        W11011  30.639   0.953   4.876  0.1974 -0.0112 -0.0826
 8862W        W11012   6.517   3.895   8.002  0.1100  0.2246 -0.0482
 8863W        W11013   6.969   0.978   8.127  0.1722  0.1138  0.0214
 8864W        W11014  21.105   7.549   4.916 -0.0345  0.0692  0.0575
 8865W        W11015  12.100   6.537  16.996  0.1196 -0.2194  0.0004
 8866W        W11016  22.148   0.956  16.127 -0.3493 -0.1064 -0.4636
 8867W        W11017  30.826   0.169   8.747 -0.0589 -0.2121  0.2250
 8868W        W11018  25.191   2.310   4.512 -0.2223 -0.1715  0.3190
 8869W        W11019  11.922   1.193  15.309 -0.0370 -0.1422  0.0277
 8870W        W11020   3.110   6.091   8.125  0.0911  0.1229 -0.1343
 8871W        W11021  16.345   2.811   8.484  0.1279 -0.1004  0.1325
 8872W        W11022   2.564   4.034  11.260 -0.0391 -0.3097 -0.0252
 8873W        W11023  23.039   1.019  17.299 -0.0926 -0.0118  0.0152
 8874W        W11024  13.206   6.478   1.591 -0.0548  0.3443  0.1313
 8875W        W11025  29.867   1.782  24.383  0.0969  0.4928 -0.2038
 8876W        W11026  23.508   3.293  15.276  0.1226  0.0207 -0.0791
 8877W        W11027  27.186   7.053  15.838  0.0336  0.0091 -0.1749
 8878W        W11028  21.191   7.237   8.432 -0.0580  0.3905  0.1333
 8879W        W11029  31.200   0.016   0.087  0.2499  0.2897 -0.2869
 8880W        W11030  12.304   2.866  16.432  0.3711  0.2195 -0.0438
 8881W        W11031   3.436   4.249   6.143  0.1422 -0.0661 -0.3688
 8882W        W11032  15.353   3.509  23.255  0.0058  0.1672  0.1509
 8883W        W11033   2.742   3.604  25.492  0.0359  0.0825  0.3368
 8884W        W11034  14.906   5.143   0.325 -0.0646 -0.0622 -0.0858
 8885W        W11035  17.111   1.361  24.911 -0.1399  0.1262  0.0621
 8886W        W11036   7.128   4.401  23.108 -0.0497  0.0479  0.0554
 8887W        W11037  29.449   2.312   4.831  0.2460 -0.2181 -0.1729
 8888W        W11038   5.500   4.513   9.826 -0.1705 -0.1458  0.0127
 8889W        W11039   8.921   1.618   3.881 -0.1498 -0.4053  0.2039
 8890W        W11040  22.782   0.122  20.991 -0.1834  0.2339  0.2234
 8891W        W11041  12.638   6.103  16.257  0.0075 -0.2608  0.0939
 8892W        W11042  26.143   7.495  15.427 -0.4082  0.0739  0.1547
 8893W        W11043  12.564   4.007   9.609 -0.1542  0.0076 -0.2278
 8894W        W11044  16.749   0.145   6.018  0.0317  0.0220  0.1421
 8895W        W11045  24.934   6.000   5.984  0.0701 -0.1383  0.1856
 8896W        W11046  16.162   0.254  25.457 -0.0767  0.0845 -0.1652
 8897W        W11047  26.254   7.572   4.850 -0.1772  0.1314 -0.0861
 8898W        W11048  10.194   1.150   7.734 -0.2596 -0.2055  0.1431
 8899W        W11049  11.348   4.412  21.914 -0.0965 -0.0119  0.1086
 8900W        W11050  20.330   5.351   5.683  0.2389  0.1492  0.2949
 8901W        W11051   4.344   1.156   5.358 -0.4549  0.0706 -0.2177
 8902W        W11052  30.719   6.562  23.677 -0.0645 -0.0146  0.1150
 8903W        W11053   3.412   4.286  10.267 -0.1078 -0.2705  0.0961
 8904W        W11054  26.022   0.738   8.056  0.0332 -0.0510  0.1360
 8905W        W11055  30.630   7.398  15.735 -0.0012 -0.1345 -0.0945
 8906W        W11056  22.294   5.083   5.300  0.2375  0.0447  0.0331
 8907W        W11057  17.670   6.518  14.629  0.2591 -0.1695 -0.0835
 8908W        W11058  20.166   1.974  25.689  0.0731  0.0049  0.0909
 8909W        W11059  14.471   5.247   1.774  0.3013  0.0707  0.0131
 8910W        W11060   8.830   0.426  22.979 -0.1043  0.2754 -0.0704
 8911W        W11061   7.393   1.596   5.953  0.0833 -0.0994 -0.1602
 8912W        W11062   3.613   4.943   0.021 -0.1281 -0.0105  0.2622
 8913W        W11063  24.874   6.740   5.408  0.0130 -0.0098  0.0909
 8914W        W11064   7.494   5.852   6.803  0.1477 -0.0934 -0.2162
 8915W        W11065  14.096   2.032   2.482  0.0137 -0.0835  0.2965
 8916W        W11066  19.437   3.936  16.894 -0.3900 -0.0155  0.0597
 8917W        W11067  16.182   5.705  15.271  0.0769  0.0879  0.1053
 8918W        W11068  24.382   2.296   2.372 -0.1014 -0.1618  0.0514
 8919W        W11069  29.057   4.180  17.246  0.1527  0.1822 -0.1167
 8920W        W11070  15.061   6.179   0.328 -0.0151  0.2589  0.1790
 8921W        W11071   6.316   2.487   1.685 -0.0593 -0.3355 -0.2365
 8922W        W11072  18.702   1.170   5.398 -0.2695 -0.0011  0.3188
 8923W        W11073  13.196   3.823  20.983 -0.0186 -0.1275  0.0694
 8924W        W11074  13.805   0.256   6.364  0.0020 -0.0436  0.2522
 8925W        W11075  15.695   4.075   8.032  0.1481 -0.3146 -0.0806
 8926W        W11076   6.902   6.760   9.699 -0.1543  0.1310  0.4724
 8927W        W11077  22.507   5.555  11.294  0.0859  0.1971  0.1034
 8928W        W11078   8.127   3.946  15.883 -0.0370 -0.3354 -0.2027
 8929W        W11079   3.682   3.125   4.667  0.0589  0.2930 -0.2375
 8930W        W11080   1.131   3.552   2.700  0.0122  0.0874  0.5903
 8931W        W11081  20.169   6.045  24.082 -0.0088 -0.1395  0.0642
 8932W        W11082  17.099   0.518   7.245  0.3584 -0.0045 -0.0919
 8933W        W11083   6.734   1.947  16.809  0.1528 -0.0313  0.0651
 8934W        W11084   5.916   1.201   9.268 -0.1061  0.2992 -0.0240
 8935W        W11085   6.887   7.420   1.671  0.2306 -0.2167  0.2670
 8936W        W11086  28.169   0.683  25.029 -0.1482 -0.3065 -0.0807
 8937W        W11087   1.744   7.658  26.048  0.1628  0.1137 -0.0280
 8938W        W11088  24.808   2.213   8.399  0.1915  0.2457 -0.0174
 8939W        W11089  14.419   1.086  10.701  0.1080 -0.1920 -0.1940
 8940W        W11090   2.400   6.920  22.523 -0.1451  0.0459  0.1190
 8941W        W11091  31.194   3.826  11.408 -0.3150  0.3696  0.0274
 8942W        W11092  28.756   1.883   9.413 -0.1852 -0.0660 -0.0202
 8943W        W11093   2.119   0.763   8.830  0.2080  0.1133  0.0437
 8944W        W11094  24.398   3.899   3.187  0.2415 -0.2330  0.4310
 8945W        W11095  24.818   0.761   7.678  0.0292 -0.0738 -0.1610
 8946W        W11096  30.568   0.829  18.443 -0.1671  0.0507  0.2291
 8947W        W11097  21.984   5.979   9.757  0.1401  0.0154  0.0592
 8948W        W11098   4.077   4.271  24.618  0.0950 -0.0803  0.0631
 8949W        W11099  25.885   6.372   4.425  0.1090 -0.2274  0.0329
 8950W        W11100  30.387   3.470   1.252 -0.1240 -0.1160 -0.0422
 8951W        W11101  22.017   4.524   4.020 -0.0353  0.0876 -0.0585
 8952W        W11102  17.339   1.953   8.221 -0.2144  0.2271 -0.2186
 8953W        W11103   0.195   1.490  15.408  0.1246  0.3658 -0.1081
 8954W        W11104   7.071   1.881  24.737 -0.2453  0.0011  0.2141
 8955W        W11105  23.536   0.808   8.712  0.3003 -0.1990  0.1419
 8956W        W11106   8.186   5.400  10.713  0.0323  0.1324 -0.0187
 8957W        W11107  25.561   6.891  21.520 -0.0126 -0.2154 -0.0377
 8958W        W11108  16.938   1.774  21.143 -0.1955  0.1162  0.1768
 8959W        W11109  12.660   4.264   9.131  0.2086  0.0216  0.3348
 8960W        W11110  13.158   4.631  18.827  0.1077 -0.0781  0.2048
 8961W        W11111   0.417   7.031   7.837  0.0856 -0.0145  0.0294
 8962W        W11112  21.314   0.309   9.772  0.1285  0.2068 -0.0275
 8963W        W11113  28.345   7.279  17.946  0.0120 -0.1472 -0.0682
 8964W        W11114  15.358   0.182  15.508  0.1376  0.0247 -0.0599
 8965W        W11115  29.578   1.949  17.716  0.1958 -0.2362 -0.0752
 8966W        W11116  10.277   2.516   5.526 -0.1104 -0.2212  0.0643
 8967W        W11117  22.732   0.607   2.162 -0.0018  0.3194  0.0118
 8968W        W11118   4.065   5.249   5.235 -0.0530  0.0839  0.1411
 8969W        W11119  25.660   2.420  18.541  0.2015 -0.0019 -0.2402
 8970W        W11120   9.286   3.747  25.721 -0.2769 -0.0319  0.0851
 8971W        W11121   1.970   1.085   5.220  0.0110 -0.0823  0.0193
 8972W        W11122  29.567   2.186  14.441  0.2782  0.0135  0.2620
 8973W        W11123  25.649   2.132   9.146  0.2487  0.3652 -0.1492
 8974W        W11124  29.432   4.058  10.577  0.3307 -0.0469 -0.3613
 8975W        W11125  31.161   0.087  10.619  0.2068  0.1199  0.2893
 8976W        W11126  16.005   3.261  19.848  0.0685 -0.0358  0.1657
 8977W        W11127   2.927   6.635  16.370  0.0483  0.2012  0.0952
 8978W        W11128   4.787   0.805  25.599  0.2435 -0.0415 -0.0830
 8979W        W11129  20.897   4.559   1.069 -0.0660  0.0709  0.0435
 8980W        W11130   5.227   1.476   3.927 -0.1563 -0.0482 -0.0712
 8981W        W11131  10.375   2.430  10.562  0.1944 -0.0595 -0.0932
 8982W        W11132  28.178   6.241   2.227  0.0755 -0.1775 -0.0308
 8983W        W11133  13.268   4.894   3.615 -0.0995 -0.1180 -0.1508
 8984W        W11134  19.169   0.172   4.167  0.0613  0.0188 -0.1306
 8985W        W11135  18.091   1.950   2.061 -0.2929 -0.0349  0.0916
 8986W        W11136   1.336   5.689  18.442 -0.2306 -0.2965 -0.2354
 8987W        W11137  27.407   5.916   1.719  0.0055 -0.0550  0.4298
 8988W        W11138  21.114   1.457  20.542 -0.1961 -0.0391 -0.0664
 8989W        W11139  21.205   3.450  19.543  0.2844  0.0507 -0.0141
 8990W        W11140  26.091   2.063   7.283 -0.1675 -0.0652 -0.1809
 8991W        W11141  16.208   6.503   3.599 -0.2316  0.0739  0.0663
 8992W        W11142  20.454   4.684   6.167  0.2146 -0.1895 -0.2994
 8993W        W11143  19.631   4.629   2.402  0.1236 -0.1353 -0.2076
 8994W        W11144  17.773   7.224  18.825 -0.5401 -0.0348 -0.2246
 8995W        W11145   6.864   4.071   0.872 -0.0828  0.0873 -0.3813
 8996W        W11146  18.882   2.186  23.559 -0.0583  0.3495 -0.3316
 8997W        W11147  18.576   0.722   7.278 -0.0647 -0.1084 -0.3371
 8998W        W11148  27.247   1.556   2.925 -0.0750 -0.2040  0.0776
 8999W        W11149  20.667   6.066   8.607  0.0030 -0.2200  0.0931
 9000W        W11150  28.966   4.528   3.511 -0.3951  0.2086 -0.0890
 9001W        W11151   8.813   5.886   3.911 -0.0569  0.1884  0.0449
 9002W        W11152  29.562   3.235   1.860  0.0487 -0.3421 -0.1543
 9003W        W11153  11.267   6.516  19.825 -0.0426  0.0101 -0.2187
 9004W        W11154   7.139   4.378  21.700  0.1558 -0.4463  0.4857
 9005W        W11155  24.757   0.753   6.469  0.1545 -0.0040 -0.0097
 9006W        W11156   3.783   4.214  16.579 -0.1918  0.2700  0.4162
 9007W        W11157  19.592   7.767   4.213  0.6114 -0.1990  0.1304
 9008W        W11158   0.666   4.416  23.542  0.0959  0.4412  0.1076
 9009W        W11159   1.249   3.721  21.938  0.0249  0.1437 -0.0078
 9010W        W11160  25.855   6.033   9.445  0.1290 -0.4577 -0.0218
 9011W        W11161  19.078   5.171   6.618  0.0178 -0.0002  0.0448
 9012W        W11162  23.260   0.216   5.336 -0.1572 -0.1749 -0.0633
 9013W        W11163  24.854   1.942  20.949  0.0768 -0.2816 -0.0158
 9014W        W11164  20.596   7.620  23.195  0.2759 -0.1434 -0.2596
 9015W        W11165   5.465   2.997  25.407 -0.1233  0.1325 -0.3542
 9016W        W11166  21.790   2.085   9.548 -0.1662  0.0610 -0.2556
 9017W        W11167   2.702   3.918  18.120  0.0678  0.0295  0.2685
 9018W        W11168  21.023   4.107  17.785  0.1210  0.0774 -0.0931
 9019W        W11169   8.566   4.605  19.190 -0.0016 -0.0940 -0.0011
 9020W        W11170  12.550   7.019   5.225 -0.0723  0.0844 -0.1081
 9021W        W11171  27.479   4.044   1.438  0.1382  0.0152 -0.0751
 9022W        W11172  30.078   0.355  21.551  0.1375  0.2030 -0.0947
 9023W        W11173  23.931   3.351   9.190 -0.1117  0.0439 -0.0471
 9024W        W11174   3.770   2.548  20.475  0.1480  0.1588 -0.1049
 9025W        W11175  18.453   3.299  20.461 -0.2500 -0.1307 -0.0991
 9026W        W11176   0.255   3.947   0.575 -0.0361  0.0950 -0.2342
 9027W        W11177  13.058   7.327   9.527  0.0278  0.0037  0.1592
 9028W        W11178  19.444   5.422  25.716  0.2454 -0.3467 -0.1668
 9029W        W11179   6.836   0.127   1.620 -0.0716  0.3216  0.1729
 9030W        W11180  29.213   1.559   8.119  0.0280  0.0194 -0.1375
 9031W        W11181   8.501   3.324   6.934  0.3075 -0.3051 -0.1142
 9032W        W11182  11.829   6.471   2.584  0.0993  0.1550  0.0865
 9033W        W11183  15.607   7.449  17.703  0.0075 -0.1900 -0.0665
 9034W        W11184   5.614   3.445  17.224  0.1195  0.0524 -0.1920
 9035W        W11185  15.887   2.072   5.386  0.0585  0.3592  0.0005
 9036W        W11186  11.886   0.023   1.634  0.1769  0.0549  0.1184
 9037W        W11187   5.281   7.040  20.604 -0.1953 -0.2827  0.1127
 9038W        W11188   1.907   2.344   3.595 -0.1845 -0.3690 -0.0454
 9039W        W11189  11.605   4.221  15.351 -0.3663 -0.0159 -0.0161
 9040W        W11190  17.154   3.844   2.609 -0.0142 -0.2355  0.0498
 9041W        W11191  23.391   4.802   4.945  0.1073 -0.0109 -0.0300
 9042W        W11192   1.325   0.078   4.165 -0.0556 -0.1928 -0.1368
 9043W        W11193  29.459   4.843  25.253  0.1007 -0.2802  0.1159
 9044W        W11194  22.914   1.030  23.798  0.1268  0.1223  0.0433
 9045W        W11195   4.837   5.715   8.115  0.0643 -0.2736 -0.1044
 9046W        W11196  24.760   6.017   1.777 -0.2462  0.0106 -0.0716
 9047W        W11197  10.520   0.953   5.763  0.1024  0.0341 -0.1393
 9048W        W11198  22.866   6.691   5.966 -0.1032  0.4147 -0.2407
 9049W        W11199   7.656   1.076   0.949 -0.0392 -0.2741 -0.3048
 9050W        W11200   3.658   3.419  19.330  0.2376  0.1686  0.4387
 9051W        W11201  16.262   0.587   4.800  0.2073 -0.2179 -0.0281
 9052W        W11202   5.784   2.957   4.553 -0.1534 -0.0401 -0.2036
 9053W        W11203  17.895   4.686   0.260  0.2356 -0.1358 -0.2151
 9054W        W11204   1.284   3.957   1.977 -0.1043 -0.3643  0.0170
 9055W        W11205  14.025   5.625  18.032  0.2251  0.1108 -0.0467
 9056W        W11206  19.931   6.080  18.860  0.4812 -0.4443  0.0646
 9057W        W11207  10.337   3.665  22.451  0.1191 -0.0485  0.3275
 9058W        W11208  24.845   0.175   1.111  0.0594 -0.0341 -0.2818
 9059W        W11209  29.160   7.617  22.049  0.1444  0.3159 -0.0262
 9060W        W11210   4.738   4.732   9.139  0.1850  0.1879  0.1715
 9061W        W11211  24.611   6.254  24.772 -0.2419 -0.0170 -0.0883
 9062W        W11212  29.561   7.459  21.697  0.1784  0.1619  0.2437
 9063W        W11213   2.034   4.925  15.112 -0.1631 -0.0115  0.1134
 9064W        W11214  10.016   3.879   6.731 -0.0317 -0.1446 -0.0514
 9065W        W11215  30.350   7.652   6.851  0.0284 -0.0695  0.1793
 9066W        W11216  13.460   7.201  17.092 -0.0824  0.1217  0.0180
 9067W        W11217   6.681   2.108  16.078  0.0616  0.1347  0.0180
 9068W        W11218  23.010   2.822  26.213 -0.1791  0.0638  0.0029
 9069W        W11219   0.397   4.148  22.715 -0.1313 -0.0140 -0.0892
 9070W        W11220  31.092   4.509   3.926 -0.1007  0.1657  0.1914
 9071W        W11221  17.522   2.902   9.705 -0.2245 -0.2813 -0.2064
 9072W        W11222  22.050   0.837   8.001  0.1008 -0.0319  0.3334
 9073W        W11223  26.515   6.597  18.187  0.3561  0.0519 -0.1547
 9074W        W11224  29.339   3.214   8.097 -0.0431 -0.0474 -0.0961
 9075W        W11225  14.617   3.207  25.864 -0.0114 -0.1859  0.3675
 9076W        W11226  14.146   6.274   0.291  0.1832  0.1173 -0.1419
 9077W        W11227   1.339   2.293   0.644  0.2711 -0.1367 -0.0615
 9078W        W11228  11.540   3.903   3.455 -0.2679  0.0595 -0.0480
 9079W        W11229  25.921   2.450  15.790  0.0092  0.1499 -0.0494
 9080W        W11230  29.624   5.857   3.132 -0.3108  0.0142 -0.0308
 9081W        W11231  28.981   1.979  26.068  0.0621 -0.0962 -0.1437
 9082W        W11232   5.668   0.389   7.394 -0.0940  0.2632 -0.2023
 9083W        W11233  19.237   3.202  15.732 -0.0831  0.0139 -0.0829
 9084W        W11234  23.774   1.586   4.373 -0.0543 -0.0722  0.1666
 9085W        W11235  17.754   1.447   6.624 -0.1994 -0.0172 -0.0305
 9086W        W11236  10.347   5.995   6.182 -0.0866  0.0928 -0.1629
 9087W        W11237   3.422   7.677   0.500 -0.0165  0.1395 -0.1038
 9088W        W11238  25.484   6.915  20.209 -0.2018  0.0752  0.1048
 9089W        W11239  28.925   6.508  19.620 -0.1746 -0.0994 -0.2822
 9090W        W11240  24.026   1.649   1.621  0.0146  0.0360  0.0661
 9091W        W11241  15.683   1.928   0.285 -0.2935  0.0082  0.1492
 9092W        W11242   2.400   3.300  10.628 -0.0084 -0.0213  0.2576
 9093W        W11243  17.748   2.516  24.975 -0.1892 -0.0636 -0.0277
 9094W        W11244  10.722   0.040  22.784  0.1584 -0.1466  0.1010
 9095W        W11245  13.947   7.396  10.287 -0.2153 -0.0460 -0.2471
 9096W        W11246  11.917   3.395   1.648 -0.0968  0.2467 -0.2551
 9097W        W11247  20.834   2.377   7.850  0.0969  0.0457  0.0949
 9098W        W11248   0.413   2.165   5.048  0.2487  0.4765 -0.0520
 9099W        W11249   5.006   4.970  24.471  0.0106 -0.0086 -0.2700
 9100W        W11250  20.287   4.256  18.150  0.1126 -0.0356  0.0249
 9101W        W11251   4.802   6.508  15.583  0.1093  0.2935  0.0889
 9102W        W11252  11.924   1.865  10.927  0.1176  0.3803  0.3812
 9103W        W11253   4.017   3.103   7.117 -0.1035  0.2056  0.2142
 9104W        W11254   4.779   6.667  23.582  0.1328 -0.0274  0.0126
 9105W        W11255   8.255   4.450   8.339  0.1172  0.1177 -0.1854
 9106W        W11256  21.187   4.374  25.894  0.1213 -0.3546 -0.1113
 9107W        W11257  28.936   3.918  19.320 -0.1013  0.0122  0.0395
 9108W        W11258   2.556   3.100   3.234  0.2992  0.0415  0.0355
 9109W        W11259   0.868   7.113   2.590 -0.0930  0.0648 -0.1773
 9110W        W11260   7.645   0.152   4.688  0.1109  0.0225 -0.0565
 9111W        W11261  14.513   4.200  22.657 -0.2518  0.3595 -0.0015
 9112W        W11262  18.041   1.414  22.841  0.0320  0.4276  0.3848
 9113W        W11263  13.132   1.949   4.105  0.1133 -0.2520  0.2447
 9114W        W11264  18.696   5.304  22.033 -0.2582 -0.0559  0.2529
 9115W        W11265  24.243   3.804  25.984 -0.3184 -0.0559  0.0464
 9116W        W11266  11.742   1.253   0.931  0.0135  0.1061 -0.1877
 9117W        W11267  25.447   0.174  16.065  0.1151  0.1464 -0.0131
 9118W        W11268  11.240   7.361  20.761  0.1087  0.2208  0.0160
 9119W        W11269  20.674   6.326  16.806  0.0086 -0.3640 -0.3579
 9120W        W11270   1.130   7.356   1.515  0.0444  0.0224 -0.2673
 9121W        W11271  20.898   3.408   4.405 -0.2021 -0.0396 -0.1339
 9122W        W11272  13.679   6.207  22.023  0.0189 -0.0492 -0.1074
 9123W        W11273   5.635   3.300   8.843 -0.2549 -0.0254  0.2655
 9124W        W11274   4.553   1.809  24.561 -0.1146  0.0386 -0.3874
 9125W        W11275   5.980   7.514  20.762 -0.0708 -0.3344 -0.0265
 9126W        W11276  19.687   1.643   7.222  0.0787  0.1266  0.2144
 9127W        W11277   8.344   7.469  20.395 -0.0893 -0.0235  0.0147
 9128W        W11278  21.272   4.485   9.061 -0.0566 -0.1703 -0.0358
 9129W        W11279  19.329   5.215   9.433  0.3759  0.1010  0.0280
 9130W        W11280  26.325   4.913   8.557 -0.0890  0.0450  0.0479
 9131W        W11281  25.566   2.058   8.034  0.3963 -0.2165 -0.0007
 9132W        W11282  27.388   7.211  16.813  0.0513  0.0786 -0.0194
 9133W        W11283   9.207   6.089  22.710 -0.0558  0.0813  0.1016
 9134W        W11284   6.530   2.738  20.821  0.0159  0.0327  0.1049
 9135W        W11285  20.017   6.460   0.223  0.2300  0.0165  0.0656
 9136W        W11286   5.933   7.425   1.687 -0.1335  0.0998 -0.0948
 9137W        W11287  19.098   0.190   0.934  0.1261 -0.1117  0.0478
 9138W        W11288   4.737   7.625   4.452  0.2383 -0.0523  0.3395
 9139W        W11289   1.390   7.069  23.952 -0.3517 -0.1512  0.2596
 9140W        W11290   8.990   0.681  18.045  0.1979  0.3372  0.0217
 9141W        W11291   0.618   3.965  17.201 -0.2988 -0.2402 -0.1048
 9142W        W11292   6.105   1.295   2.986 -0.2117  0.3204  0.3092
 9143W        W11293   0.082   6.835  10.760 -0.1477  0.0957  0.0273
 9144W        W11294  26.268   2.534  24.097  0.1382 -0.1058 -0.0965
 9145W        W11295  28.663   3.860   2.905  0.1899 -0.0643  0.0566
 9146W        W11296   0.267   1.386  22.340  0.1687 -0.0923 -0.0438
 9147W        W11297  10.986   4.361  17.524 -0.1229 -0.0743 -0.0405
 9148W        W11298  10.237   3.275  17.008 -0.0518  0.0469  0.1053
 9149W        W11299  29.252   6.188  18.832 -0.1918  0.1899 -0.0465
 9150W        W11300   1.175   5.392   5.149  0.0672  0.0551 -0.0864
 9151W        W11301  19.991   5.520  23.863 -0.2711  0.1655 -0.0515
 9152W        W11302   5.791   0.128   1.742  0.2494 -0.2965 -0.1795
 9153W        W11303  19.047   7.378   6.845 -0.0475  0.2017 -0.1625
 9154W        W11304   4.745   3.570  18.439  0.2491 -0.3200  0.1303
 9155W        W11305  28.706   5.165   5.813  0.1144  0.1142  0.0251
 9156W        W11306  22.280   3.610   9.109  0.1567  0.0268 -0.0143
 9157W        W11307  26.190   1.755   9.338  0.1051 -0.2138 -0.1058
 9158W        W11308   8.957   2.421   9.191 -0.0587  0.2638  0.0953
 9159W        W11309  26.838   5.517   5.519 -0.2511  0.0210 -0.4230
 9160W        W11310  15.828   0.719  16.854 -0.1545 -0.3963  0.0417
 9161W        W11311  11.761   4.782   9.944 -0.1496  0.1263  0.2498
 9162W        W11312  26.943   5.148   3.747  0.3424 -0.3489 -0.0296
 9163W        W11313  16.576   1.882  20.310 -0.1100  0.1451  0.1914
 9164W        W11314  14.781   5.478  16.648 -0.1077  0.3155 -0.1604
 9165W        W11315  28.222   2.145   3.577  0.1463 -0.2362  0.3635
 9166W        W11316   5.741   1.917   4.983 -0.1415 -0.0481  0.0629
 9167W        W11317  17.911   3.201   3.094 -0.0570 -0.0585  0.0234
 9168W        W11318  26.691   0.579  21.843  0.3199  0.4406 -0.2006
 9169W        W11319  13.842   4.948   9.220 -0.3080  0.1420  0.3279
 9170W        W11320  24.386   1.623  23.028  0.0150  0.1713 -0.2801
 9171W        W11321   1.725   3.087   2.153 -0.0575 -0.2304 -0.2905
 9172W        W11322   8.598   1.099  19.998  0.2591  0.3338  0.0959
 9173W        W11323   9.360   7.503   3.382 -0.0966  0.0553  0.0293
 9174W        W11324  30.751   6.384  18.630  0.1379 -0.0387 -0.0450
 9175W        W11325  21.980   6.373   7.403  0.4214 -0.5110 -0.1516
 9176W        W11326  13.746   4.614  15.492 -0.1829 -0.0465 -0.0824
 9177W        W11327  16.273   0.034   5.616  0.0813 -0.1254  0.0564
 9178W        W11328  14.127   4.561   6.882  0.3336 -0.2549  0.2116
 9179W        W11329   9.035   3.237   8.824 -0.0365 -0.0620  0.2562
 9180W        W11330  12.459   1.890   1.267 -0.1617  0.4694 -0.0244
 9181W        W11331  21.718   4.775   1.066 -0.0798  0.0162 -0.1291
 9182W        W11332  10.869   4.347  10.419  0.1212  0.0895  0.1992
 9183W        W11333   0.775   2.278   7.656  0.0902  0.0441  0.0922
 9184W        W11334  15.111   4.097   2.092 -0.1372  0.0597 -0.0278
 9185W        W11335   8.409   7.006  23.123  0.2007  0.0083 -0.0463
 9186W        W11336  21.765   6.045  22.947 -0.0289 -0.1535  0.2128
 9187W        W11337  17.868   3.713  10.522 -0.0388 -0.0802  0.0152
 9188W        W11338  13.633   3.668   8.386 -0.2610  0.0913  0.1797
 9189W        W11339  13.461   6.890  22.869  0.0668  0.2169 -0.1279
 9190W        W11340  20.671   2.459   0.702  0.0673 -0.0072 -0.2576
 9191W        W11341  17.886   4.704  20.978  0.1175 -0.4463  0.1864
 9192W        W11342   4.679   3.747   3.996  0.1694  0.0351  0.0877
 9193W        W11343   0.304   1.563  16.405 -0.0553 -0.0051  0.4656
 9194W        W11344  14.726   6.555  19.222  0.0614  0.2825 -0.0757
 9195W        W11345  20.022   2.415  10.111 -0.0040 -0.1876  0.1331
 9196W        W11346   7.721   3.566   9.692 -0.2047  0.0502  0.0363
 9197W        W11347  23.089   1.163  15.607  0.0661 -0.0807  0.2094
 9198W        W11348  16.105   0.147   1.928 -0.4265 -0.1888 -0.1276
 9199W        W11349  30.107   7.117  20.004 -0.1248  0.1210  0.1619
 9200W        W11350  22.378   3.690  16.412  0.0353  0.1651 -0.0152
 9201W        W11351  26.778   7.454   8.759 -0.0385 -0.0550 -0.0181
 9202W        W11352   4.737   4.506   5.885 -0.4869  0.1960 -0.3151
 9203W        W11353  13.493   6.417  19.121 -0.0336 -0.1051 -0.1972
 9204W        W11354   1.751   3.850  18.634 -0.2449  0.0281  0.0044
 9205W        W11355  30.837   0.934   0.895 -0.0847  0.2175 -0.3073
 9206W        W11356  21.630   4.001   9.932  0.3028  0.1284 -0.0124
 9207W        W11357  23.905   1.413   6.764  0.3330 -0.0624  0.1351
 9208W        W11358  29.085   5.828   1.152 -0.0836  0.0696  0.0933
 9209W        W11359  20.054   1.549   9.682 -0.0714  0.1113  0.1122
 9210W        W11360   6.078   5.335  19.244 -0.0526  0.2578  0.0545
 9211W        W11361   6.595   4.746   2.077 -0.3722  0.0860 -0.0157
 9212W        W11362  12.997   3.468  18.736  0.1084  0.0617  0.0360
 9213W        W11363  17.372   0.029  17.714 -0.0709  0.0664 -0.1328
 9214W        W11364  18.377   5.035  25.117  0.0302 -0.0363 -0.2163
 9215W        W11365  26.844   2.842   2.622  0.1288  0.1497  0.0146
 9216W        W11366  11.603   3.452  24.323  0.1336 -0.0740  0.1792
 9217W        W11367   3.648   2.095  18.501 -0.2757 -0.1638 -0.2561
 9218W        W11368  22.332   7.044  10.410 -0.1009  0.1889 -0.2288
 9219W        W11369   8.280   4.643  21.517  0.1295 -0.0042  0.0369
 9220W        W11370  13.080   2.754   0.081  0.2219 -0.0752 -0.1292
 9221W        W11371   8.631   3.643   2.413 -0.1094 -0.1689  0.0378
 9222W        W11372  29.856   0.063  14.721 -0.0012  0.2529  0.0702
 9223W        W11373  14.493   2.360  22.594 -0.1482 -0.1643  0.2763
 9224W        W11374  20.962   1.316  19.320  0.5072 -0.1440  0.0439
 9225W        W11375  31.176   2.269   4.398 -0.1591  0.0075 -0.3416
 9226W        W11376  19.120   5.181  16.776  0.0796 -0.0795 -0.0537
 9227W        W11377   6.518   2.057   6.467  0.0263 -0.3290  0.0463
 9228W        W11378  27.453   3.741  22.089 -0.1539 -0.3306 -0.1913
 9229W        W11379  20.048   3.944  19.914  0.0252  0.0971  0.0572
 9230W        W11380  19.459   3.606  11.815  0.1856  0.0293  0.1107
 9231W        W11381  12.777   4.316   1.570  0.1011  0.2224 -0.1267
 9232W        W11382   6.049   3.361   3.235  0.1102  0.4912  0.1158
 9233W        W11383   0.491   3.481  24.103 -0.2714  0.2898 -0.0151
 9234W        W11384  12.049   5.390  20.597  0.1558 -0.1501  0.5071
 9235W        W11385  12.254   5.235  22.401 -0.0241 -0.1486 -0.1130
 9236W        W11386   8.200   4.156  16.890 -0.2123 -0.1529  0.0098
 9237W        W11387   7.504   2.729  26.124 -0.0611 -0.2051  0.2048
 9238W        W11388  16.180   6.947  26.411 -0.0807 -0.1916  0.2042
 9239W        W11389  15.891   6.993  19.657 -0.1074  0.0204 -0.0892
 9240W        W11390   3.956   3.291  22.170  0.0466  0.1705  0.1199
 9241W        W11391  20.055   6.331  25.293 -0.3565 -0.0708 -0.1627
 9242W        W11392  17.170   6.536  19.998  0.5580  0.0708 -0.0907
 9243W        W11393   0.728   0.419  21.556  0.0030 -0.2117 -0.1119
 9244W        W11394  17.148   6.750   3.982 -0.3606  0.1284 -0.1728
 9245W        W11395  17.314   4.529  22.973  0.2605 -0.0363  0.0008
 9246W        W11396  18.822   7.073  18.843 -0.1441 -0.0598  0.0872
 9247W        W11397   1.004   1.117   3.195  0.2023 -0.2416 -0.2015
 9248W        W11398   5.825   4.476   1.697 -0.2260  0.2248  0.1619
 9249W        W11399   9.812   3.476  21.824  0.1005  0.3656  0.0286
 9250W        W11400  28.281   1.387   1.110  0.0424  0.0655 -0.3382
 9251W        W11401  31.071   1.564  16.568 -0.0699 -0.1220 -0.0397
 9252W        W11402   0.624   2.811   3.733 -0.1441 -0.1122  0.2472
 9253W        W11403  17.588   1.914   7.340  0.0302  0.0227  0.2431
 9254W        W11404   2.225   1.804  16.510  0.0882  0.1535  0.2449
 9255W        W11405  21.367   1.067  11.214 -0.1824 -0.0906  0.1984
 9256W        W11406  21.765   7.339  24.170  0.1217 -0.1026 -0.0820
 9257W        W11407   6.433   0.193   1.057  0.1579 -0.3901 -0.0567
 9258W        W11408   8.376   6.236   2.648  0.0816 -0.1610 -0.1198
 9259W        W11409   9.641   2.391  26.357 -0.0874  0.1598 -0.2512
 9260W        W11410  12.717   0.519  21.168 -0.0149 -0.2530  0.2216
 9261W        W11411  24.570   1.188  23.658 -0.1031  0.1488 -0.0199
 9262W        W11412  19.795   6.955   9.389  0.0148 -0.3508 -0.1843
 9263W        W11413  26.035   0.355  19.231  0.0744 -0.1074  0.2721
 9264W        W11414  21.953   6.670   5.994  0.2780  0.3845 -0.2587
 9265W        W11415  21.422   4.438  20.270 -0.0680 -0.0533  0.0265
 9266W        W11416  12.086   2.279  11.732 -0.0480 -0.1665 -0.0636
 9267W        W11417   6.755   1.660  10.484  0.1180  0.2788  0.2260
 9268W        W11418   2.966   2.810   8.142 -0.1121 -0.0014  0.3055
 9269W        W11419  16.627   2.625  19.758 -0.0413 -0.2778  0.1170
 9270W        W11420  16.204   2.494  18.909 -0.2706 -0.0720  0.0527
 9271W        W11421   8.282   2.102  17.453 -0.2954 -0.2513 -0.1171
 9272W        W11422  16.498   0.666  24.599  0.0113 -0.0745  0.3349
 9273W        W11423  18.202   7.275  17.015  0.3660 -0.2128  0.0489
 9274W        W11424   7.079   6.585  22.546 -0.1826  0.0443 -0.2488
 9275W        W11425  15.135   2.721  20.674 -0.1325 -0.1607 -0.1022
 9276W        W11426  11.728   4.141  25.461 -0.1284 -0.1899 -0.2614
 9277W        W11427   3.969   2.286  11.311  0.3739 -0.1054  0.0769
 9278W        W11428  30.533   2.258   0.499  0.4407  0.0880  0.0654
 9279W        W11429   7.825   6.530   3.136 -0.2668  0.1694 -0.2522
 9280W        W11430  19.062   2.278  19.683  0.1916  0.1603  0.3112
 9281W        W11431  21.108   0.446   6.723  0.0943  0.1940  0.0503
 9282W        W11432   5.242   1.803   7.898  0.1164 -0.0962 -0.2462
 9283W        W11433  14.013   5.396   7.938 -0.1324  0.3043 -0.0395
 9284W        W11434  16.534   4.811  16.595 -0.0608  0.0018 -0.0379
 9285W        W11435  20.496   3.794  22.476  0.2993 -0.0391  0.0868
 9286W        W11436  22.884   4.693   1.974  0.2356  0.0143  0.2295
 9287W        W11437  15.997   6.695  19.185  0.0669  0.1623  0.0077
 9288W        W11438  25.011   3.741  20.877  0.4215 -0.0049  0.0813
 9289W        W11439   5.773   5.622  21.106  0.1517 -0.3387 -0.0577
 9290W        W11440   8.331   6.353   9.553 -0.2009 -0.0544 -0.1193
 9291W        W11441   6.139   0.138  16.272 -0.1561  0.4440  0.2771
 9292W        W11442  18.878   2.634   5.374 -0.0531  0.2400  0.1152
 9293W        W11443   7.254   0.336   8.409 -0.1522 -0.3403 -0.2067
 9294W        W11444  17.604   0.621   5.847 -0.3992  0.1867 -0.0400
 9295W        W11445  30.321   2.905   5.605 -0.0995 -0.1107  0.2043
 9296W        W11446   8.434   3.911  26.248  0.0390  0.0223 -0.2247
 9297W        W11447  23.469   0.877  20.846 -0.2539  0.2935  0.1106
 9298W        W11448  12.333   4.845  25.664  0.0684 -0.0594  0.1115
 9299W        W11449  12.430   5.772  25.263 -0.0072 -0.1181  0.1571
 9300W        W11450  15.697   4.016   2.511  0.0961 -0.3211 -0.2597
 9301W        W11451  16.872   3.487   2.064 -0.1045  0.3807 -0.0020
 9302W        W11452  19.214   3.562  22.368  0.1671 -0.1107  0.0009
 9303W        W11453  27.943   2.425   7.831  0.0039  0.2200 -0.2128
 9304W        W11454  14.493   0.988   9.088  0.0946 -0.0811 -0.0167
 9305W        W11455  14.728   3.018   0.467  0.1461 -0.0200 -0.1099
 9306W        W11456   5.410   4.362   0.868  0.1303 -0.0370 -0.2164
 9307W        W11457   5.719   3.652  22.122  0.0187  0.1286  0.0546
 9308W        W11458  20.116   3.526   3.726  0.1534 -0.0448  0.1195
 9309W        W11459   7.375   7.407  10.241  0.1809  0.1642  0.1582
 9310W        W11460  22.042   6.743  20.823 -0.0124 -0.1633 -0.0034
 9311W        W11461   4.034   3.041   2.964  0.2508 -0.0717  0.1032
 9312W        W11462   9.443   0.013   5.866 -0.2065  0.1659  0.3086
 9313W        W11463  26.552   3.970  25.853 -0.2243  0.2818  0.0037
 9314W        W11464   1.281   6.666  16.940 -0.1246 -0.1273  0.3475
 9315W        W11465  17.351   1.025  17.096 -0.0987 -0.0563  0.0995
 9316W        W11466  23.990   7.620   7.017 -0.2923 -0.0076  0.2347
 9317W        W11467   0.256   0.175  21.438  0.2251 -0.1404  0.0157
 9318W        W11468  13.951   7.718  16.247 -0.1226  0.2519  0.0494
 9319W        W11469  15.403   5.872  25.557  0.3031  0.3197 -0.0854
 9320W        W11470  16.146   5.576   7.022 -0.2660  0.1148 -0.3364
 9321W        W11471  15.674   2.430  18.974  0.1692 -0.2136 -0.0677
 9322W        W11472  19.804   7.344   3.161  0.2044  0.0955  0.2470
 9323W        W11473  25.450   0.673  17.435  0.2843  0.2582 -0.0418
 9324W        W11474  11.231   1.045   1.249 -0.0585 -0.0807 -0.2621
 9325W        W11475   2.707   1.658  21.240 -0.2307  0.0879 -0.3168
 9326W        W11476  20.602   0.887  19.325 -0.0640  0.1765  0.0178
 9327W        W11477   0.904   0.704  17.456 -0.1865  0.1596 -0.1922
 9328W        W11478  16.404   7.586   1.624 -0.1638  0.1300 -0.0937
 9329W        W11479  16.471   0.055   3.088 -0.0366  0.5055  0.2284
 9330W        W11480   4.302   3.266  11.427 -0.0047 -0.0140  0.0318
 9331W        W11481   3.514   2.019   8.150 -0.0659 -0.2747 -0.1367
 9332W        W11482   5.754   7.250  23.618  0.0797 -0.1884  0.0627
 9333W        W11483   5.754   0.615   1.814  0.1044  0.0105  0.2038
 9334W        W11484  27.992   2.250  25.775  0.1684  0.0084  0.0634
 9335W        W11485   0.777   0.012  23.653  0.1067 -0.1490 -0.1215
 9336W        W11486   9.907   0.911  17.183 -0.2415 -0.2422 -0.1131
 9337W        W11487   2.944   5.695   2.500 -0.1379 -0.0666 -0.1188
 9338W        W11488   4.620   0.711  17.962 -0.1412  0.0381 -0.1492
 9339W        W11489  18.304   2.769  17.442 -0.2956  0.2134  0.3621
 9340W        W11490   9.283   6.580   3.306  0.1341  0.1379 -0.0894
 9341W        W11491  17.730   7.697   3.293  0.1034 -0.0566 -0.2117
 9342W        W11492  16.526   4.293   9.584  0.0794  0.1097  0.0007
 9343W        W11493  25.215   3.985  15.941 -0.0441 -0.3133  0.1720
 9344W        W11494  27.595   3.403  20.360 -0.1114 -0.0091  0.0244
 9345W        W11495  24.360   7.468  20.601 -0.1176  0.0715  0.0549
 9346W        W11496   7.882   6.198   0.900 -0.2552 -0.0328 -0.0800
 9347W        W11497  24.606   1.362  20.189 -0.0230 -0.0232 -0.2870
 9348W        W11498  18.939   7.636  10.521  0.0600  0.2032 -0.1403
 9349W        W11499  30.554   0.037  17.241  0.2373 -0.0945 -0.0658
 9350W        W11500  29.910   3.692   7.252  0.2240  0.0702  0.0167
 9351W        W11501  10.086   5.789   1.390 -0.2276 -0.0456  0.0329
 9352W        W11502  16.809   7.328   8.698 -0.1510 -0.1008 -0.1058
 9353W        W11503  20.614   4.225  25.836  0.1052  0.0316 -0.3659
 9354W        W11504   1.729   2.776  25.183  0.0255 -0.1753 -0.0546
 9355W        W11505  15.452   0.496   0.948  0.0714 -0.1610  0.4056
 9356W        W11506  10.801   7.027  17.523  0.2011  0.1013  0.3038
 9357W        W11507   1.019   5.851   6.026 -0.0115  0.1884  0.1323
 9358W        W11508  12.907   2.731   0.909  0.0710 -0.2369 -0.2508
 9359W        W11509   3.776   4.880   9.028  0.0874 -0.3037  0.0294
 9360W        W11510  23.779   5.013   0.408  0.2040 -0.1745 -0.1675
 9361W        W11511  28.329   4.087   1.276 -0.0423  0.3394 -0.1534
 9362W        W11512  21.398   2.339  17.590  0.2583 -0.1586  0.1065
 9363W        W11513   4.831   6.852  25.209  0.0712  0.0912 -0.0403
 9364W        W11514  29.845   3.380  15.966  0.1778  0.3471  0.1938
 9365W        W11515  29.570   3.545  18.396  0.0653 -0.1289  0.2074
 9366W        W11516  26.543   2.940  25.236 -0.0410  0.0601  0.1720
 9367W        W11517  30.025   7.033  23.901 -0.0845  0.5511 -0.1020
 9368W        W11518  24.850   7.571   2.486  0.2418  0.0882 -0.0592
 9369W        W11519  18.549   4.753   1.440 -0.1648 -0.0478  0.0344
 9370W        W11520  16.919   3.306  25.430 -0.0335  0.1128 -0.2884
 9371W        W11521   1.507   5.094  20.254  0.0657  0.4000  0.0291
 9372W        W11522  30.724   3.603   9.423  0.1605 -0.0134 -0.3194
 9373W        W11523  21.482   6.063  26.001 -0.1807  0.0851  0.0685
 9374W        W11524  18.340   1.751   1.668 -0.1423 -0.0201 -0.1834
 9375W        W11525  24.216   0.307   1.296 -0.0470 -0.3056  0.1455
 9376W        W11526  16.596   7.114   7.760  0.0101  0.2407  0.0512
 9377W        W11527  27.933   6.750   4.566 -0.2345 -0.0192  0.1098
 9378W        W11528  23.955   1.284  22.416 -0.1352  0.1748  0.3228
 9379W        W11529   2.821   5.626  17.934 -0.0379 -0.0321 -0.0057
 9380W        W11530  22.076   1.189   1.759  0.1806  0.0059  0.2280
 9381W        W11531  14.856   3.836   3.595 -0.0248  0.0077  0.1053
 9382W        W11532  21.837   0.929  10.263  0.1566 -0.0353  0.0324
 9383W        W11533  21.999   4.117  17.767 -0.0073 -0.0237  0.0770
 9384W        W11534  18.417   5.924  19.227 -0.1064  0.1809  0.0476
 9385W        W11535  11.930   1.466  17.070 -0.1078  0.1812 -0.0169
 9386W        W11536  26.761   0.472   2.391  0.1726  0.1362  0.1000
 9387W        W11537   5.375   4.404  18.520  0.1806  0.0291 -0.0540
 9388W        W11538  30.555   6.264  10.926 -0.1957  0.0441 -0.0983
 9389W        W11539  23.688   7.360  24.884  0.0351 -0.0404 -0.0521
 9390W        W11540  11.100   4.322  24.659  0.0574 -0.0242 -0.0949
 9391W        W11541  22.979   3.793  16.480 -0.2520 -0.1351 -0.1892
 9392W        W11542  20.224   0.464  16.312 -0.2020 -0.1362 -0.0926
 9393W        W11543  11.533   0.577   7.038 -0.3307  0.2846 -0.1279
 9394W        W11544   1.507   6.366   5.749 -0.0341  0.0656  0.2880
 9395W        W11545   4.504   5.482   6.077 -0.1567 -0.2679 -0.1058
 9396W        W11546   1.430   7.055  22.961 -0.1382  0.0172 -0.1709
 9397W        W11547  13.299   4.214  16.293 -0.1233 -0.3008 -0.2417
 9398W        W11548  27.514   4.986   4.966 -0.1088  0.5257 -0.1548
 9399W        W11549   9.260   2.250  20.025 -0.1614 -0.1273  0.0385
 9400W        W11550  13.516   1.589   3.854 -0.1103 -0.1529  0.1912
 9401W        W11551  26.023   5.769   7.989  0.2312 -0.1901  0.1873
 9402W        W11552   6.757   1.365   4.803 -0.0597  0.1818  0.3295
 9403W        W11553   7.884   4.608  19.977  0.0182 -0.2089 -0.1967
 9404W        W11554   3.246   3.214   7.947  0.2524 -0.1926  0.3049
 9405W        W11555  17.179   1.605  17.178 -0.2446  0.0430  0.0436
 9406W        W11556  23.896   5.298   7.981  0.4239  0.0191  0.1650
 9407W        W11557  16.107   6.283  23.912 -0.1008 -0.0691  0.0805
 9408W        W11558  17.137   2.021  23.564 -0.0143 -0.0042  0.0793
 9409W        W11559  13.469   6.824   9.504  0.0217 -0.0672 -0.3739
 9410W        W11560   9.271   0.915   9.764  0.2046  0.1204 -0.0489
 9411W        W11561  18.795   6.033   1.593  0.2034 -0.2734 -0.2752
 9412W        W11562  25.621   1.826  19.245  0.0981  0.3841  0.6206
 9413W        W11563  23.612   5.373   7.576 -0.0274 -0.0550 -0.0037
 9414W        W11564   3.046   7.497  24.380  0.0173  0.0496 -0.0371
 9415W        W11565  26.710   1.430  17.167 -0.0703  0.1247 -0.1423
 9416W        W11566  11.338   6.441  24.927 -0.2393  0.0439  0.1860
 9417W        W11567  21.584   5.419   7.171 -0.0292  0.1084  0.0513
 9418W        W11568   8.165   1.451   6.885 -0.2431  0.1779 -0.0507
 9419W        W11569  29.867   2.874   0.494  0.0185  0.5160  0.0455
 9420W        W11570  22.267   4.194   2.365  0.1764 -0.1663  0.1373
 9421W        W11571  25.126   1.196  19.054 -0.1707 -0.0584  0.1014
 9422W        W11572   6.368   1.845  20.902  0.0564  0.0549 -0.2131
 9423W        W11573  31.098   0.092  23.719 -0.0476  0.1403 -0.0609
 9424W        W11574  15.658   5.274   5.765 -0.1381  0.0231  0.2417
 9425W        W11575   9.308   2.050   7.122 -0.0088 -0.3867  0.1229
 9426W        W11576  22.617   4.436   1.608  0.1512 -0.2000 -0.0358
 9427W        W11577  20.518   1.285  11.129  0.2068 -0.2867  0.3543
 9428W        W11578  13.589   5.417   7.608  0.2568  0.1554  0.1931
 9429W        W11579  26.270   0.399   8.658  0.0116  0.3349 -0.0740
 9430W        W11580  13.095   1.970   7.508 -0.1736  0.0430 -0.0501
 9431W        W11581  25.772   0.176   4.461  0.4794 -0.0541 -0.0791
 9432W        W11582   4.569   6.325  18.845  0.0486 -0.0441  0.0682
 9433W        W11583  13.945   7.171   5.366  0.1388  0.1329  0.0332
 9434W        W11584   5.749   6.015  24.015 -0.1936  0.1607  0.0091
 9435W        W11585  25.889   4.889   8.662  0.0017  0.0147 -0.0934
 9436W        W11586  30.328   6.336  19.467 -0.2094  0.2000  0.1551
 9437W        W11587  18.136   7.138  24.460  0.1111 -0.0012 -0.0410
 9438W        W11588   0.468   6.918  15.821 -0.1372  0.0178 -0.3329
 9439W        W11589  28.431   0.153  21.223 -0.0701  0.0506 -0.0502
 9440W        W11590  23.934   2.255   9.946 -0.1290  0.0064  0.1248
 9441W        W11591  29.952   1.951   0.582  0.2364  0.2985 -0.1979
 9442W        W11592  18.269   3.502  21.932  0.2142  0.1222 -0.0866
 9443W        W11593   6.526   2.585  22.526 -0.1246 -0.1329  0.3451
 9444W        W11594  23.841   0.962   4.436 -0.0042 -0.1399 -0.3517
 9445W        W11595   6.241   0.137  25.142  0.2916  0.1740 -0.2558
 9446W        W11596  30.695   6.344  16.374  0.0743 -0.0389  0.1691
 9447W        W11597  22.547   2.741  22.417 -0.1243  0.0166 -0.1245
 9448W        W11598  24.881   3.886   7.787  0.2286 -0.1740 -0.0801
 9449W        W11599  25.173   3.641  19.426 -0.3868 -0.1032 -0.0537
 9450W        W11600  28.825   0.579   8.607 -0.0336 -0.0507  0.0136
 9451W        W11601  12.404   0.429   6.963  0.0715  0.1633  0.0101
 9452W        W11602   3.448   0.241  18.315  0.3146 -0.0448  0.2452
 9453W        W11603   3.803   6.015  16.628 -0.1948 -0.0379  0.2276
 9454W        W11604  21.506   0.290   0.424  0.2140 -0.0305  0.2056
 9455W        W11605   6.490   1.273   6.232  0.0625  0.0978 -0.1167
 9456W        W11606  27.840   3.011  16.297  0.1068 -0.1894 -0.1764
 9457W        W11607  28.312   1.147   2.939 -0.1959  0.0282 -0.3696
 9458W        W11608  23.840   2.382  23.803  0.1121  0.1897 -0.1918
 9459W        W11609   5.360   3.574  17.842 -0.0149  0.0541 -0.1279
 9460W        W11610  16.138   7.524  26.365  0.1495 -0.1642  0.0101
 9461W        W11611  18.482   4.038   2.839  0.2495 -0.0868 -0.1959
 9462W        W11612  18.339   2.688  22.981  0.2369 -0.1597 -0.1245
 9463W        W11613  29.554   3.190   1.029 -0.0540  0.0051 -0.1406
 9464W        W11614   0.433   5.555  22.383 -0.0328  0.1086 -0.1065
 9465W        W11615  20.942   5.778  10.280  0.0907 -0.1739  0.0646
 9466W        W11616  23.883   1.758   0.695 -0.0914 -0.0176  0.0478
 9467W        W11617  14.153   2.678   9.141  0.0732  0.0735  0.0853
 9468W        W11618  12.591   1.379  23.096  0.0881 -0.0322 -0.0790
 9469W        W11619  14.859   0.424  21.158 -0.1347  0.0966  0.1367
 9470W        W11620   1.150   0.095   4.772 -0.2689 -0.0719 -0.0352
 9471W        W11621   9.434   2.655  15.548  0.1416  0.0090  0.0735
 9472W        W11622  14.170   3.549   8.205 -0.2436  0.1347 -0.0904
 9473W        W11623   0.419   2.838  22.726 -0.0332 -0.0329 -0.1207
 9474W        W11624   1.586   1.175  19.660 -0.0455 -0.1545  0.2348
 9475W        W11625  20.403   5.264  23.685 -0.0914  0.2238  0.0455
 9476W        W11626  28.009   3.140  15.675 -0.3507  0.3285  0.1019
 9477W        W11627  14.216   3.746  14.375 -0.0732 -0.1952 -0.0344
 9478W        W11628   4.076   1.516  16.546  0.0623  0.1749 -0.0418
 9479W        W11629  20.345   7.690   4.958  0.4679  0.0648 -0.0045
 9480W        W11630  25.198   5.079   1.796 -0.0042 -0.0296 -0.2895
 9481W        W11631  17.424   7.624  24.019  0.0560 -0.1467  0.0970
 9482W        W11632   6.926   4.323   7.360  0.3617 -0.0561  0.0316
 9483W        W11633   4.453   5.790   4.520 -0.0427 -0.1083  0.2279
 9484W        W11634  22.503   1.001   6.339 -0.1546  0.3305  0.0084
 9485W        W11635  31.063   1.047  26.037  0.0254 -0.2276 -0.0014
 9486W        W11636  16.753   5.950  22.289 -0.2680  0.2013  0.1192
 9487W        W11637   2.483   7.124   2.036  0.0336  0.1457  0.0089
 9488W        W11638  28.689   7.624  22.331 -0.1994  0.0603  0.1706
 9489W        W11639   4.670   6.880   1.740  0.1294 -0.0512  0.1011
 9490W        W11640  10.249   5.764  25.240 -0.2797 -0.4743 -0.2851
 9491W        W11641  17.462   0.201  16.135 -0.3681 -0.2338 -0.2740
 9492W        W11642   8.286   1.012  22.551 -0.0783 -0.0595 -0.0594
 9493W        W11643  14.725   6.659   7.483 -0.1300  0.2295  0.2193
 9494W        W11644  17.709   7.004  15.296 -0.1485 -0.0686 -0.0168
 9495W        W11645   5.968   6.189  18.103  0.2542  0.1350  0.0726
 9496W        W11646  25.606   5.888   3.260 -0.1154 -0.0298 -0.0990
 9497W        W11647  23.871   0.361  15.723  0.2126 -0.1891 -0.3237
 9498W        W11648   1.265   6.663  19.377  0.1663  0.1680  0.1831
 9499W        W11649  17.492   5.840  20.184  0.6625 -0.1298 -0.2025
 9500W        W11650   4.016   6.666  17.996 -0.1341 -0.1013 -0.0207
 9501W        W11651   7.150   6.203  21.014 -0.0284  0.0172  0.1937
 9502W        W11652  24.393   4.526  10.736 -0.2218  0.1724 -0.0939
 9503W        W11653   4.389   6.273  17.868  0.0349 -0.2540 -0.2746
 9504W        W11654  10.139   2.310  18.111  0.3435  0.1223  0.2210
 9505W        W11655   3.246   1.945  10.650  0.0996  0.1685  0.2538
 9506W        W11656  19.953   2.728   7.821  0.0916  0.1380  0.3095
 9507W        W11657  23.894   5.896  21.987 -0.0392 -0.1655  0.4775
 9508W        W11658  13.635   6.166   1.648  0.1613  0.3351 -0.2166
 9509W        W11659  29.587   1.350  20.296 -0.2075 -0.1934 -0.1678
 9510W        W11660  16.880   2.939  16.163 -0.2973 -0.0843 -0.1615
 9511W        W11661  15.986   4.351  15.972  0.1220  0.1764  0.1208
 9512W        W11662   5.947   0.492  24.838 -0.0317 -0.1881 -0.3479
 9513W        W11663  21.221   2.087  25.102 -0.0420  0.0660 -0.0676
 9514W        W11664  17.925   5.685  21.328  0.0106 -0.1544 -0.2340
 9515W        W11665  11.851   5.966   2.990 -0.1144 -0.1542 -0.1811
 9516W        W11666   2.028   2.930  20.552 -0.1692 -0.1442 -0.0460
 9517W        W11667  21.685   1.171  25.177 -0.2742 -0.2907 -0.1835
 9518W        W11668  25.897   6.570  24.838 -0.0974  0.0695  0.1004
 9519W        W11669  17.361   3.367  22.003 -0.1641  0.0186 -0.0585
 9520W        W11670   5.758   7.735  23.468  0.2057 -0.1107  0.1980
 9521W        W11671   6.506   7.553   7.404  0.2463  0.0915  0.3144
 9522W        W11672   1.348   5.319   2.709 -0.0989 -0.5132 -0.2821
 9523W        W11673  24.940   0.877   9.803 -0.0409 -0.0813  0.1079
 9524W        W11674   0.989   2.096  25.808 -0.0687  0.4879 -0.0892
 9525W        W11675   5.177   3.750  10.247 -0.4571 -0.1644 -0.0599
 9526W        W11676   1.660   3.534   6.432 -0.0740  0.3657  0.3683
 9527W        W11677  26.861   4.978  19.749  0.3583 -0.1053 -0.0666
 9528W        W11678  25.801   6.978   2.607 -0.0534  0.3165 -0.0567
 9529W        W11679  19.423   4.566   6.262 -0.1180  0.0152  0.0533
 9530W        W11680   3.918   5.341  17.398  0.0022 -0.0271  0.0182
 9531W        W11681   9.050   5.713   0.267 -0.1516  0.0845 -0.0635
 9532W        W11682   1.106   2.045  16.663  0.0305 -0.0496  0.1496
 9533W        W11683  26.076   0.809   7.531  0.0776 -0.3114  0.0472
 9534W        W11684   7.825   4.573   5.804  0.3337  0.0563  0.1538
 9535W        W11685  14.533   1.427   7.837 -0.0073 -0.0079 -0.0129
 9536W        W11686   1.760   1.647  25.814 -0.0596 -0.0231  0.0913
 9537W        W11687   9.692   6.164  24.291  0.0762  0.0096 -0.2326
 9538W        W11688   6.819   6.624  20.598  0.1949  0.2580 -0.0225
 9539W        W11689   2.968   6.531  19.810  0.0172  0.0113 -0.1054
 9540W        W11690   0.502   3.964   8.296  0.1306  0.1176 -0.0260
 9541W        W11691  10.432   7.416   0.973  0.0287 -0.0529  0.0071
 9542W        W11692  15.407   4.705  24.910  0.0953  0.0482 -0.0257
 9543W        W11693  26.209   4.205   4.869 -0.2055  0.1891  0.1333
 9544W        W11694  30.766   6.241   1.318  0.5143  0.2023  0.2869
 9545W        W11695  28.407   4.643  23.913  0.3060 -0.3862 -0.3609
 9546W        W11696  16.236   1.713  24.047  0.1634  0.1080 -0.0292
 9547W        W11697  21.695   2.311  21.990 -0.0548  0.0568 -0.1567
 9548W        W11698   5.799   2.463  19.576  0.1741 -0.2723  0.1634
 9549W        W11699  24.304   0.878  10.229  0.2044  0.4054  0.1755
 9550W        W11700  12.346   6.862  25.740  0.1728  0.2980 -0.1733
 9551W        W11701   2.160   1.419  10.760  0.1232  0.0949  0.0065
 9552W        W11702  23.578   2.139  15.035  0.3296  0.2305 -0.1449
 9553W        W11703  28.113   7.057  11.303  0.3319  0.0846 -0.1049
 9554W        W11704   7.144   0.923  22.238 -0.1645  0.0542 -0.0350
 9555W        W11705   8.505   0.495  15.693  0.0846  0.0679 -0.0707
 9556W        W11706  29.325   2.383   2.747 -0.1207  0.2131  0.0070
 9557W        W11707  23.509   5.562   5.724 -0.3576  0.1350  0.1610
 9558W        W11708  23.670   3.860   5.231  0.0788  0.1969 -0.4020
 9559W        W11709  12.390   7.011  10.974  0.0468  0.0389  0.1400
 9560W        W11710  17.974   6.096  26.337 -0.0620 -0.1050  0.1108
 9561W        W11711  21.645   1.791  22.976 -0.0142  0.1197 -0.1392
 9562W        W11712  21.451   6.363   8.604 -0.1754  0.0812  0.0113
 9563W        W11713   2.124   0.247   1.879  0.0137 -0.0539 -0.1705
 9564W        W11714  28.474   5.544  18.366 -0.0382 -0.0346 -0.1439
 9565W        W11715  22.060   4.091  16.189  0.2130  0.0212 -0.0828
 9566W        W11716  19.213   1.571   3.962  0.0217 -0.2114  0.5621
 9567W        W11717   4.685   1.131  19.719 -0.0546  0.2077 -0.0877
 9568W        W11718  26.480   5.058   5.584  0.5657 -0.1482  0.0032
 9569W        W11719  17.981   7.768  25.621  0.0690  0.0566  0.0527
 9570W        W11720   1.007   0.625  15.993  0.1288 -0.3164  0.1381
 9571W        W11721  17.583   1.131  10.865  0.1511  0.1621 -0.0050
 9572W        W11722  21.659   7.190  22.312 -0.0486  0.3994  0.0662
 9573W        W11723  12.913   0.213  22.856 -0.0967  0.3179 -0.1139
 9574W        W11724  10.138   5.504   2.282 -0.2112 -0.1627 -0.3209
 9575W        W11725  29.719   4.508  26.099  0.0725 -0.2115 -0.4050
 9576W        W11726  13.819   4.211   6.928  0.0995 -0.0222  0.1753
 9577W        W11727  30.022   4.141   6.444 -0.0698 -0.1438  0.2427
 9578W        W11728  11.460   2.194   1.248  0.1972  0.2542  0.2376
 9579W        W11729  23.700   3.341  19.022 -0.0993  0.0682  0.1176
 9580W        W11730  14.349   0.403   6.495  0.2390  0.1556 -0.1038
 9581W        W11731   1.322   4.837  17.857 -0.1110  0.1058  0.0858
 9582W        W11732   7.880   2.916   0.648 -0.1220  0.1064  0.1730
 9583W        W11733  15.362   5.945  23.451  0.0314  0.2216 -0.0884
 9584W        W11734   7.997   4.450  16.560 -0.0409  0.2528 -0.3376
 9585W        W11735  24.470   3.822  24.173  0.2120  0.2057  0.0324
 9586W        W11736   7.943   4.550   2.646  0.1896  0.1633  0.0351
 9587W        W11737  28.614   2.493  20.030 -0.0094 -0.2478  0.2318
 9588W        W11738   8.741   5.919  11.266 -0.0405  0.0010 -0.1437
 9589W        W11739   7.093   1.510   2.203  0.0808 -0.1841  0.1472
 9590W        W11740  13.866   7.562   5.770 -0.0494 -0.1923  0.1511
 9591W        W11741  29.516   1.062   3.573 -0.4173 -0.1263 -0.0061
 9592W        W11742  31.031   1.196  17.548  0.1984  0.2631  0.0099
 9593W        W11743  16.109   6.295   4.022  0.1366  0.1317  0.1496
 9594W        W11744  26.184   2.960   8.157 -0.0760  0.2225  0.2039
 9595W        W11745  30.895   5.332   1.933 -0.2582 -0.2579  0.1833
 9596W        W11746   8.761   7.285  15.446 -0.1128  0.0849 -0.1319
 9597W        W11747   1.428   1.588  19.970  0.2534  0.1470  0.5136
 9598W        W11748   9.878   1.235   4.021 -0.2700  0.3802 -0.1269
 9599W        W11749  29.641   1.874  20.633  0.0334 -0.1811 -0.0374
 9600W        W11750  11.396   0.860  17.179  0.2198 -0.0104 -0.1436
 9601W        W11751   9.129   4.027   4.274 -0.1906  0.1696  0.0573
 9602W        W11752  27.594   2.195  19.465  0.6459 -0.0312 -0.2471
 9603W        W11753  29.227   0.401   4.099 -0.2911  0.0402  0.1149
 9604W        W11754   5.512   6.307  18.698 -0.3267 -0.0131 -0.3382
 9605W        W11755  13.955   2.479  24.276  0.2000  0.2499 -0.1360
 9606W        W11756  29.645   1.561   8.498 -0.0429 -0.6252 -0.0078
 9607W        W11757  22.751   1.950  15.276 -0.1212  0.0159  0.0096
 9608W        W11758  25.699   5.418  22.314  0.0160  0.1642  0.0087
 9609W        W11759  27.558   0.003   5.175 -0.0878 -0.1315  0.2645
 9610W        W11760  14.106   3.685   2.596  0.1499  0.0806 -0.2006
 9611W        W11761   3.556   6.453   6.185 -0.0681  0.0439  0.0399
 9612W        W11762  24.882   4.480   6.804 -0.0480  0.0396 -0.0342
 9613W        W11763  11.229   5.535  23.900  0.0688  0.0638  0.2719
 9614W        W11764  18.822   4.368  16.347 -0.0570 -0.0373 -0.0361
 9615W        W11765  19.269   4.252   6.726 -0.0550 -0.1670  0.0253
 9616W        W11766  22.513   7.034   2.622 -0.0868 -0.0082  0.2315
 9617W        W11767  14.783   6.536  24.395 -0.0443  0.1744 -0.0964
 9618W        W11768  29.938   4.464  16.724  0.0336 -0.0810  0.0152
 9619W        W11769  27.912   3.121  20.703  0.0772 -0.3072  0.3101
 9620W        W11770  22.466   0.806  20.549 -0.0576  0.0657 -0.1866
 9621W        W11771  14.804   0.746  16.985 -0.3810  0.1317 -0.1246
 9622W        W11772  28.338   1.869  22.569  0.2554  0.1322 -0.2231
 9623W        W11773  30.677   2.384  19.396 -0.3273 -0.3386 -0.2284
 9624W        W11774  30.155   1.901  17.589 -0.2234  0.2429 -0.0383
 9625W        W11775  19.408   1.262   0.287  0.0646 -0.1939  0.1481
 9626W        W11776  11.882   6.499   6.772 -0.3006 -0.2836  0.1983
 9627W        W11777  21.852   1.052  25.706 -0.1456  0.1233  0.4326
 9628W        W11778  13.089   1.379  10.085 -0.2546 -0.1116 -0.0937
 9629W        W11779   1.873   6.992   6.731  0.0948 -0.0583  0.1204
 9630W        W11780  29.597   5.976   7.785 -0.2067 -0.0790 -0.1428
 9631W        W11781  14.113   2.190  19.917 -0.1475 -0.0360 -0.1978
 9632W        W11782  19.919   2.290  16.162 -0.0093 -0.2618  0.1371
 9633W        W11783  13.982   3.374   1.294  0.0880  0.0451  0.2982
 9634W        W11784  29.471   1.640   4.326  0.0598 -0.2210 -0.0621
 9635W        W11785  10.331   5.414  17.510  0.0986 -0.0789 -0.0169
 9636W        W11786  13.838   0.135  19.241  0.1002  0.0032  0.0992
 9637W        W11787  27.056   5.934  10.324 -0.0647  0.2458  0.0644
 9638W        W11788  11.321   6.488  21.017  0.2160 -0.0475 -0.1626
 9639W        W11789   8.176   0.692  18.456  0.0469 -0.2004  0.1155
 9640W        W11790  28.281   1.102  21.441 -0.2524  0.0663 -0.0199
 9641W        W11791  29.604   1.876   6.205 -0.1201 -0.0337 -0.0548
 9642W        W11792  22.462   6.854   9.605 -0.2874 -0.0997 -0.2325
 9643W        W11793   5.880   0.532   2.599 -0.3033  0.1693  0.0077
 9644W        W11794  13.571   7.461  20.087 -0.2219 -0.0132 -0.2043
 9645W        W11795   0.073   0.572   6.783  0.0294 -0.1287 -0.0908
 9646W        W11796  29.739   1.549   1.462 -0.2318  0.0852  0.4333
 9647W        W11797  16.745   1.327  21.142  0.1638  0.1253  0.1819
 9648W        W11798   2.258   0.902   2.690  0.1946 -0.0316  0.0152
 9649W        W11799   6.314   4.750   1.181 -0.0493  0.0472 -0.2109
 9650W        W11800  12.328   3.766  21.502  0.0692 -0.1427  0.0454
 9651W        W11801   9.711   5.252   2.527 -0.1541  0.0910  0.0830
 9652W        W11802   3.176   7.444   7.213 -0.1449 -0.1063  0.0790
 9653W        W11803  30.649   3.538  23.079  0.0498 -0.0320  0.2276
 9654W        W11804  17.868   0.734   4.381 -0.0206 -0.0082  0.3707
 9655W        W11805   4.681   3.995   5.759 -0.1585 -0.0112  0.1437
 9656W        W11806  23.258   5.631  21.452  0.2083  0.0323  0.2349
 9657W        W11807   8.216   4.653  17.109  0.2944  0.2589 -0.0016
 9658W        W11808  25.964   2.940  17.996  0.0556  0.2399 -0.0743
 9659W        W11809   3.813   6.518  23.661 -0.2164 -0.1435  0.0005
 9660W        W11810   4.944   2.914   7.216  0.1406 -0.0917 -0.3934
 9661W        W11811   5.780   7.045  24.254 -0.0135  0.0198 -0.0716
 9662W        W11812  28.420   6.858  18.418  0.0038  0.1627 -0.0647
 9663W        W11813  19.834   0.564  19.466  0.0104 -0.4228  0.1976
 9664W        W11814  20.472   3.587   6.416 -0.0762  0.2493 -0.1412
 9665W        W11815  19.227   4.801   4.946 -0.0809  0.0750 -0.1139
 9666W        W11816   3.712   4.239   1.474  0.0980 -0.1995 -0.3121
 9667W        W11817   1.102   4.115  25.038  0.0304 -0.3054  0.1412
 9668W        W11818  18.860   0.064  17.048  0.5942 -0.1796 -0.0929
 9669W        W11819   3.939   0.688   0.651  0.5261  0.0670 -0.0203
 9670W        W11820   5.023   5.360  20.258 -0.0178  0.3544  0.0200
 9671W        W11821  10.499   1.260   6.749 -0.0599 -0.1583 -0.1110
 9672W        W11822  28.436   1.955  18.205 -0.0999  0.1097 -0.0218
 9673W        W11823  19.557   2.504  19.485 -0.0515  0.0901 -0.1007
 9674W        W11824  23.211   7.181  22.573 -0.3616  0.1848  0.1293
 9675W        W11825  23.968   2.400   5.425  0.0361  0.0717 -0.2098
 9676W        W11826  21.553   2.649  10.542 -0.3447 -0.1020  0.0765
 9677W        W11827  22.608   1.172  21.788  0.2303  0.2959  0.3764
 9678W        W11828   2.065   7.691  10.634  0.2472  0.0841 -0.4004
 9679W        W11829   3.842   7.707   1.216  0.2065  0.5210  0.2260
 9680W        W11830  20.009   1.570  21.920  0.1004 -0.0573  0.0613
 9681W        W11831  26.611   2.447  23.720 -0.0899 -0.1258 -0.1947
 9682W        W11832   2.970   2.394   3.838 -0.0559 -0.1425 -0.0706
 9683W        W11833   9.447   1.807  21.430  0.0209  0.2176  0.0451
 9684W        W11834  30.690   1.012   1.415  0.0081 -0.1465  0.0722
 9685W        W11835  20.462   7.444  19.403 -0.0044 -0.1160 -0.0669
 9686W        W11836  17.824   4.362   8.265 -0.0961  0.0778 -0.1191
 9687W        W11837  30.795   4.496  19.184 -0.0840 -0.2606  0.3257
 9688W        W11838  18.622   3.912   9.221  0.2619  0.1118  0.2185
 9689W        W11839  13.852   1.977   3.780  0.0446 -0.2063 -0.1555
 9690W        W11840   6.740   4.554  25.988 -0.1876 -0.0097 -0.2981
 9691W        W11841   3.321   4.203  19.225  0.3799  0.2294  0.2174
 9692W        W11842   7.670   5.338  18.942 -0.1981  0.1352 -0.0786
 9693W        W11843   7.177   4.738  11.298 -0.1612 -0.3820  0.0440
 9694W        W11844  12.409   3.637   6.034  0.2488 -0.0307 -0.0170
 9695W        W11845  21.123   5.721   5.158 -0.3013 -0.2945 -0.0023
 9696W        W11846  12.819   5.952   4.626 -0.0730 -0.2857  0.4196
 9697W        W11847   7.767   4.188  23.574 -0.0095 -0.0483 -0.0004
 9698W        W11848   1.706   1.802   7.958 -0.1828  0.0022 -0.0103
 9699W        W11849  27.547   1.490   8.104  0.0901  0.0535  0.1086
 9700W        W11850  15.495   7.760   6.842 -0.1330 -0.2287  0.2477
 9701W        W11851   4.469   2.355  19.698 -0.1975  0.2530  0.2353
 9702W        W11852  18.602   1.465  17.235  0.1093 -0.0207  0.3724
 9703W        W11853   0.570   4.606   6.004 -0.1483 -0.1398 -0.0088
 9704W        W11854  30.649   3.924  16.410 -0.0584 -0.2097  0.0373
 9705W        W11855  14.509   6.674  10.816 -0.2914 -0.0064  0.1645
 9706W        W11856   4.525   3.816  26.388  0.1264  0.0739  0.0381
 9707W        W11857  21.672   6.559  11.434  0.1153 -0.0860 -0.1598
 9708W        W11858  16.874   4.447  22.636  0.1968 -0.2535 -0.1247
 9709W        W11859  18.642   4.754   8.665 -0.0619 -0.1171  0.3461
 9710W        W11860  20.777   4.621   9.221 -0.3554  0.0904  0.3607
 9711W        W11861  18.225   0.837   7.876  0.1717 -0.0286 -0.1068
 9712W        W11862  17.419   3.702  18.724  0.1415 -0.1006 -0.0084
 9713W        W11863   6.274   6.577  16.542 -0.0735  0.1335 -0.0871
 9714W        W11864   7.287   5.567  23.108  0.0261 -0.0038 -0.0651
 9715W        W11865  21.465   3.506   8.565  0.1561 -0.0285  0.1240
 9716W        W11866  30.602   1.326  19.019 -0.1280  0.0977 -0.3577
 9717W        W11867  11.889   5.838   7.200 -0.0181 -0.4829 -0.1644
 9718W        W11868   6.738   2.619  11.533  0.0606  0.2106 -0.0488
 9719W        W11869  11.097   6.910   2.938  0.1569 -0.2099 -0.0040
 9720W        W11870  14.977   6.260  18.799  0.0142  0.0351 -0.1781
 9721W        W11871   7.939   6.300   9.145  0.2227  0.0185 -0.2860
 9722W        W11872  24.517   1.483   8.902  0.1910 -0.1842 -0.0970
 9723W        W11873  10.424   4.538   3.749  0.0665  0.3187  0.0610
 9724W        W11874   6.750   4.026  24.309 -0.0904 -0.2590 -0.4264
 9725W        W11875  27.734   7.384  15.323  0.0284  0.1466 -0.1000
 9726W        W11876   8.516   2.765  15.169 -0.1950  0.3647  0.1270
 9727W        W11877  11.789   2.557   2.154 -0.0018 -0.3409 -0.2027
 9728W        W11878   1.110   0.911  20.906 -0.0768 -0.0741  0.3574
 9729W        W11879  18.639   2.205   2.521 -0.0302 -0.1995  0.1442
 9730W        W11880   8.765   1.106   9.872  0.2277  0.0524 -0.1030
 9731W        W11881  15.234   0.866   0.606  0.3494 -0.1140  0.0799
 9732W        W11882  18.428   5.869   0.216  0.0690  0.3622  0.2849
 9733W        W11883  18.408   1.020  17.105 -0.0501 -0.0812  0.0186
 9734W        W11884  13.888   6.993  23.158  0.3992 -0.1192 -0.1150
 9735W        W11885  24.678   1.636  24.805 -0.1857 -0.1913 -0.2817
 9736W        W11886  13.487   4.450   8.110 -0.1575  0.1245  0.2154
 9737W        W11887   6.882   0.334   5.796 -0.0303 -0.1003  0.0491
 9738W        W11888  15.489   5.657  22.009  0.2422  0.2811  0.0803
 9739W        W11889  26.171   4.149  23.797  0.1183  0.2089 -0.0591
 9740W        W11890  20.274   4.660  17.798 -0.1950  0.1082 -0.4436
 9741W        W11891   8.761   7.781  19.414 -0.1729  0.0303 -0.0077
 9742W        W11892  24.765   2.353   7.607 -0.1804  0.0397 -0.1272
 9743W        W11893  21.997   0.344   0.742  0.0770 -0.0562  0.1822
 9744W        W11894   5.697   1.291  15.833 -0.0633 -0.1904 -0.4212
 9745W        W11895  25.182   6.296   1.639  0.1903  0.0654  0.2761
 9746W        W11896  16.361   1.226  18.599 -0.0578 -0.1048 -0.2221
 9747W        W11897   1.609   3.249  20.360  0.1993  0.1181 -0.1198
 9748W        W11898  16.429   3.890  21.912  0.1659  0.0659 -0.2726
 9749W        W11899  30.307   0.652  10.739  0.1594 -0.0943 -0.0096
 9750W        W11900  18.503   3.587   5.506  0.1865 -0.1275 -0.1461
 9751W        W11901  29.278   3.422   7.146  0.1756  0.2255 -0.2512
 9752W        W11902  12.202   5.919   8.485 -0.1431  0.1695  0.1447
 9753W        W11903  11.358   0.905  20.891  0.1731  0.0895 -0.0573
 9754W        W11904   6.849   2.968  25.879  0.0687  0.0016 -0.0570
 9755W        W11905   2.984   2.404  21.950  0.1737  0.0559  0.1022
 9756W        W11906  13.394   4.088  23.199  0.2506 -0.0076 -0.3198
 9757W        W11907  26.384   4.205   0.359 -0.0400  0.2975  0.1208
 9758W        W11908   9.801   1.943  20.222 -0.1905  0.1420 -0.0634
 9759W        W11909  13.180   5.784   6.033 -0.0774 -0.1312  0.0282
 9760W        W11910   8.881   6.375   8.313 -0.0085  0.1935 -0.1084
 9761W        W11911   5.791   7.204  25.516  0.1243 -0.0091  0.0314
 9762W        W11912  19.841   3.961   7.170  0.2156 -0.1578 -0.0711
 9763W        W11913  25.032   0.494   1.824 -0.1360  0.0441 -0.2280
 9764W        W11914   1.260   1.832  20.824 -0.0494  0.1571 -0.1524
 9765W        W11915   1.970   6.718  25.129 -0.0866  0.2326 -0.2126
 9766W        W11916  31.110   3.877  10.896 -0.2798  0.4489 -0.0571
 9767W        W11917  13.406   0.359   3.153  0.0273  0.4115 -0.1093
 9768W        W11918  12.058   6.170  25.273  0.1955 -0.1339 -0.1639
 9769W        W11919   8.615   4.556   9.804  0.1245  0.2653 -0.0705
 9770W        W11920  13.862   6.827  16.288 -0.5980  0.0331 -0.1594
 9771W        W11921  15.809   1.565  16.660 -0.0665 -0.1271 -0.0905
 9772W        W11922  12.645   2.993  21.644 -0.1099 -0.1030  0.0198
 9773W        W11923  25.754   3.620  18.967 -0.2151 -0.0805  0.0542
 9774W        W11924  19.839   7.782   7.523  0.0061 -0.0098 -0.0025
 9775W        W11925   1.165   0.518   4.436 -0.3721  0.0989  0.1181
 9776W        W11926  22.612   1.947   7.514  0.1276 -0.1312  0.0998
 9777W        W11927  24.981   5.875   3.206  0.1052  0.2709  0.0845
 9778W        W11928  30.727   6.692  19.331 -0.1584  0.2431 -0.1552
 9779W        W11929   7.269   2.731  21.274  0.0236 -0.0235 -0.0412
 9780W        W11930   1.970   4.294   6.892  0.1668  0.0387  0.2586
 9781W        W11931   5.172   0.309  19.624  0.3366 -0.0988 -0.2591
 9782W        W11932  26.880   4.579  24.885 -0.0315 -0.0675 -0.1522
 9783W        W11933   1.238   4.502   8.099 -0.0051 -0.0312 -0.2181
 9784W        W11934   7.345   3.209  22.932  0.0220  0.0728 -0.1941
 9785W        W11935   8.861   2.728   8.841  0.0361  0.2353 -0.1290
 9786W        W11936   6.976   2.566   9.331  0.1684 -0.0305 -0.1022
 9787W        W11937   1.607   2.666   6.792 -0.1167 -0.0445 -0.1400
 9788W        W11938  17.885   4.143  24.819 -0.0245  0.0352  0.1457
 9789W        W11939   6.403   1.587   7.605 -0.2109 -0.0090  0.0052
 9790W        W11940   9.072   5.304   7.094  0.1446  0.0136  0.0347
 9791W        W11941  25.806   0.731  23.496 -0.0207 -0.1777 -0.1999
 9792W        W11942  17.688   3.248  18.608  0.0363  0.2238 -0.1604
 9793W        W11943  19.685   4.111  24.596 -0.2130 -0.3341 -0.1246
 9794W        W11944  21.590   1.570   0.609 -0.1156 -0.1335 -0.0414
 9795W        W11945   2.495   3.569   2.024 -0.1977 -0.0083  0.1138
 9796W        W11946  23.754   2.441   3.021  0.0309 -0.0619 -0.1486
 9797W        W11947   6.509   7.222  22.977 -0.2352  0.3678 -0.0412
 9798W        W11948  14.058   5.776   0.236 -0.3395 -0.3261  0.2174
 9799W        W11949   0.848   3.655   2.274  0.1253  0.0068 -0.1852
 9800W        W11950  26.712   1.592  19.659  0.0915 -0.0143  0.2120
 9801W        W11951  16.334   2.873   2.378 -0.4665  0.0083  0.0832
 9802W        W11952  26.751   1.609  23.922 -0.0147  0.1227 -0.1621
 9803W        W11953  15.679   0.452   0.520  0.0621 -0.3873 -0.1099
 9804W        W11954  23.958   5.669  16.400  0.0222 -0.0054  0.2182
 9805W        W11955  23.183   3.717  21.870 -0.2399  0.0453 -0.1803
 9806W        W11956  14.547   4.192  17.801 -0.0526 -0.3248  0.1898
 9807W        W11957  10.493   5.039   1.592  0.0918  0.1981  0.0001
 9808W        W11958  14.723   2.171   8.910  0.1242 -0.2549  0.2714
 9809W        W11959   9.522   3.252  17.732 -0.0231  0.1855  0.0766
 9810W        W11960  11.470   4.238  20.484 -0.1211  0.3802 -0.1242
 9811W        W11961  23.106   2.305   8.919  0.1525  0.0793  0.3341
 9812W        W11962  14.088   5.420  21.098  0.0311  0.4355  0.0562
 9813W        W11963  15.537   6.161  24.566 -0.2997  0.1054  0.0239
 9814W        W11964  24.065   0.757  25.502 -0.5077 -0.3391  0.0010
 9815W        W11965   0.015   1.136  20.617  0.3187  0.1177  0.0873
 9816W        W11966  31.116   2.252  19.191  0.1455 -0.2131 -0.0360
 9817W        W11967   1.374   1.167   6.188 -0.0087 -0.1228 -0.1872
 9818W        W11968  25.030   0.903   0.944  0.2576  0.0374 -0.1317
 9819W        W11969  24.432   2.925  26.036 -0.2664  0.0431 -0.0194
 9820W        W11970  12.453   1.595  19.969 -0.2333  0.2408  0.1140
 9821W        W11971  20.352   1.614  20.092  0.0530  0.0142 -0.0832
 9822W        W11972  22.048   2.682   0.985  0.0895  0.0712  0.1927
 9823W        W11973  21.943   2.567   1.950 -0.2657  0.0296  0.0773
 9824W        W11974  15.363   5.907  22.941  0.0268 -0.0706  0.3793
 9825W        W11975  23.861   0.503   0.371 -0.0443 -0.1961  0.0176
 9826W        W11976  19.009   2.553  26.228 -0.0517  0.0746  0.0635
 9827W        W11977   6.390   2.630   5.103 -0.0209  0.1140  0.0154
 9828W        W11978  12.107   3.746   8.392 -0.0059 -0.1332  0.1335
 9829W        W11979  12.772   3.568  24.410  0.0112  0.0615 -0.0849
 9830W        W11980  17.350   3.580  25.178 -0.1333 -0.1926  0.0243
 9831W        W11981  20.280   6.902  23.566 -0.0289 -0.1181  0.1011
 9832W        W11982   2.277   1.858   1.830  0.2125  0.0388 -0.1149
 9833W        W11983  11.082   0.991  19.877 -0.0636  0.1462 -0.0585
 9834W        W11984  29.379   6.491  20.976 -0.0254  0.1238 -0.2674
 9835W        W11985  28.248   7.307  17.087  0.2006  0.1466  0.1004
 9836W        W11986   2.983   4.359  17.313 -0.1320 -0.1214  0.0570
 9837W        W11987  17.394   7.182  25.103 -0.2927 -0.3173 -0.2614
 9838W        W11988  18.400   6.936  18.024 -0.1125 -0.1737  0.3301
 9839W        W11989  29.079   1.527   2.133  0.2218 -0.2478 -0.0062
 9840W        W11990  24.351   6.859  18.736 -0.0533 -0.2659 -0.0593
 9841W        W11991   9.676   5.880   4.220 -0.4585  0.0263  0.0256
 9842W        W11992   0.384   1.497   3.976 -0.2318 -0.1834 -0.2330
 9843W        W11993  20.565   3.311   6.825 -0.0686  0.2815  0.1339
 9844W        W11994  20.788   1.420  10.235 -0.1649 -0.1681 -0.4212
 9845W        W11995  18.990   0.263   9.979 -0.5344 -0.0169  0.0577
 9846W        W11996  18.977   7.226  22.512  0.0123 -0.1323 -0.2965
 9847W        W11997  13.874   7.440  21.766 -0.3162  0.0585 -0.0800
 9848W        W11998  24.137   1.989   7.934  0.1622 -0.0276  0.1155
 9849W        W11999   5.707   3.771   2.547  0.0368  0.4998 -0.2132
 9850W        W12000  26.534   1.589   4.504 -0.3043  0.1888  0.0937
 9851W        W12001  27.525   5.381  16.296 -0.1165  0.1201 -0.2076
 9852W        W12002   4.831   1.134  15.396 -0.0714 -0.2132 -0.0278
 9853W        W12003   2.540   2.307   5.895  0.0990 -0.0722  0.2086
 9854W        W12004  11.395   4.097  16.399  0.3855  0.0215  0.1306
 9855W        W12005   2.347   1.311  15.644 -0.1058 -0.2083  0.0934
 9856W        W12006   0.173   2.626   3.909 -0.0099  0.1300 -0.2375
 9857W        W12007  30.196   6.251   0.945  0.0857  0.2337 -0.3507
 9858W        W12008   7.245   0.523  21.229 -0.2353  0.0685  0.0895
 9859W        W12009   2.048   0.207  18.083  0.0645 -0.3274  0.1118
 9860W        W12010  24.292   4.474  26.189  0.0850 -0.1613 -0.2558
 9861W        W12011  26.510   1.025  24.405 -0.0635 -0.0415  0.0627
 9862W        W12012  15.428   1.836   2.409 -0.2526  0.0376 -0.0419
 9863W        W12013  17.112   6.429  15.641  0.3296  0.1505  0.2915
 9864W        W12014   7.627   6.890  17.918 -0.2554 -0.0273  0.3522
 9865W        W12015   8.872   7.341   3.491  0.1491 -0.0255  0.3124
 9866W        W12016  25.203   3.862  22.817  0.2681 -0.0231 -0.0688
 9867W        W12017   7.291   0.659  24.518 -0.1342  0.0534  0.2723
 9868W        W12018  22.232   4.397   5.234  0.0890 -0.2750  0.1798
 9869W        W12019  14.367   5.655   1.218  0.1626  0.1470 -0.1466
 9870W        W12020  10.557   0.897   6.264  0.2317 -0.2678 -0.1808
 9871W        W12021  10.504   6.296   9.623 -0.0583  0.2790  0.0223
 9872W        W12022  29.745   5.357  17.266 -0.3293 -0.2320  0.1911
 9873W        W12023  26.073   5.008   2.188 -0.0639 -0.1251  0.2226
 9874W        W12024  20.418   5.646  11.409 -0.2058  0.0854  0.1572
 9875W        W12025   7.087   6.798  21.613  0.1803  0.3177  0.1328
 9876W        W12026   7.675   4.261   1.083 -0.0658 -0.2426 -0.1675
 9877W        W12027   0.537   4.919   7.401 -0.1990 -0.0616 -0.0083
 9878W        W12028  13.117   3.242  26.172  0.0286 -0.1756  0.0042
 9879W        W12029  14.989   2.458  21.088  0.2221  0.0046  0.0486
 9880W        W12030   0.156   6.457  17.182 -0.0159  0.0406 -0.2067
 9881W        W12031  31.073   1.926  11.195 -0.0246 -0.2886 -0.0566
 9882W        W12032  22.950   3.094   4.881 -0.0444  0.0141 -0.0579
 9883W        W12033   3.838   3.959   8.029  0.2921  0.1853 -0.0261
 9884W        W12034  24.273   4.511   2.699 -0.2512  0.0612  0.2770
 9885W        W12035   0.076   5.721   0.287  0.0256  0.0082 -0.0456
 9886W        W12036  25.560   7.667  22.838 -0.1325 -0.0334  0.0095
 9887W        W12037   9.097   5.176  21.445  0.3233 -0.0661 -0.1004
 9888W        W12038  16.495   2.102  15.824  0.1582 -0.1237  0.1236
 9889W        W12039  17.664   7.754   8.217 -0.0785 -0.0310 -0.2175
 9890W        W12040  14.777   1.734  17.647 -0.1255 -0.0516 -0.2266
 9891W        W12041  13.116   7.533  10.102 -0.1036 -0.1591 -0.3099
 9892W        W12042   9.505   7.740  10.926  0.0651 -0.2571 -0.0196
 9893W        W12043  15.820   1.356  20.713 -0.0214  0.1703 -0.3453
 9894W        W12044  26.431   0.247   1.606 -0.1144  0.0935  0.0082
 9895W        W12045   7.138   0.232   4.804 -0.0937 -0.2192 -0.1889
 9896W        W12046   2.577   2.225  22.399 -0.1407 -0.1111  0.0666
 9897W        W12047  27.486   1.375   5.579 -0.0280  0.2907  0.0704
 9898W        W12048  30.056   1.565  24.918 -0.5023  0.2354  0.0334
 9899W        W12049  29.295   5.357   3.906 -0.1256  0.3829 -0.0414
 9900W        W12050  13.629   5.746  22.359  0.0010 -0.2536  0.1355
 9901W        W12051   6.136   5.406   1.767  0.0930  0.0813  0.0356
 9902W        W12052  19.224   5.491  17.466  0.0509 -0.0660 -0.1909
 9903W        W12053   7.702   3.405  22.411 -0.3863 -0.2278  0.0270
 9904W        W12054   9.948   5.177   9.061  0.2925  0.0564 -0.0473
 9905W        W12055  12.027   7.570  17.310  0.0677  0.2237  0.0973
 9906W        W12056  21.658   1.903  24.636 -0.3317 -0.1586  0.0836
 9907W        W12057  28.493   1.905  15.972 -0.0169 -0.0582 -0.3759
 9908W        W12058   3.950   2.981  10.636  0.0790 -0.0282  0.0439
 9909W        W12059  17.440   1.996  10.233  0.1373  0.0845  0.1900
 9910W        W12060  30.706   1.523  22.951  0.2919  0.0414 -0.3056
 9911W        W12061   2.672   1.328  22.937  0.0576  0.0318  0.1054
 9912W        W12062   8.445   7.142  17.021 -0.1735 -0.2225 -0.1944
 9913W        W12063  26.003   4.536  24.460  0.1094  0.0373 -0.1478
 9914W        W12064   7.795   0.345  18.323  0.2032  0.0363 -0.1653
 9915W        W12065   8.980   3.782   9.893  0.2574 -0.1113  0.0662
 9916W        W12066  12.121   3.634  20.528  0.4020  0.1862  0.1254
 9917W        W12067  20.124   5.059  24.551  0.2096  0.1844 -0.0867
 9918W        W12068   2.413   5.696   6.433  0.0833  0.1827 -0.3605
 9919W        W12069  14.380   6.036   2.807 -0.1260 -0.0557 -0.0737
 9920W        W12070  21.226   1.206   5.628 -0.1538 -0.1834 -0.0225
 9921W        W12071   9.535   3.686   5.483 -0.0682 -0.0595  0.2045
 9922W        W12072  27.732   1.206   6.326  0.0974 -0.2677 -0.0474
 9923W        W12073   0.047   0.310   0.470  0.3143 -0.0560 -0.4360
 9924W        W12074  28.075   4.302   7.410  0.0446  0.0394  0.2557
 9925W        W12075   5.934   2.991   2.882 -0.3351 -0.0049 -0.2632
 9926W        W12076   4.288   5.281  24.788  0.0643  0.1701  0.1303
 9927W        W12077   4.900   4.248   7.821  0.2078 -0.1376  0.0068
 9928W        W12078   6.885   3.962   6.029 -0.2642 -0.1388 -0.1895
 9929W        W12079   3.806   4.126   3.405  0.2532  0.0962  0.1455
 9930W        W12080  23.737   0.291   5.044  0.3500 -0.3592  0.1453
 9931W        W12081  17.609   4.702  20.000 -0.1853 -0.0765  0.1915
 9932W        W12082   3.930   1.380  25.241  0.1392 -0.0209 -0.2513
 9933W        W12083  30.446   1.796  15.789 -0.1569 -0.1271  0.2474
 9934W        W12084  26.573   2.179   5.504  0.0829  0.1982 -0.0684
 9935W        W12085   6.630   6.814  23.350  0.1873  0.0320 -0.1899
 9936W        W12086  21.973   5.036   9.625  0.0377 -0.0059 -0.0470
 9937W        W12087  15.722   3.332   1.931  0.0874 -0.0998  0.1437
 9938W        W12088   6.787   0.097  15.556  0.1222  0.0304  0.1165
 9939W        W12089   9.487   6.591   9.486  0.0067 -0.0118  0.2258
 9940W        W12090  17.622   6.728   8.497 -0.0766  0.0026  0.5165
 9941W        W12091  16.915   5.612  15.291 -0.2975  0.0760 -0.1355
 9942W        W12092  29.302   2.097   1.894  0.0856 -0.0745 -0.1090
 9943W        W12093  10.376   4.248   4.126 -0.0681 -0.1321  0.1281
 9944W        W12094  14.270   0.440  17.972 -0.3108  0.0444 -0.0777
 9945W        W12095   5.825   6.531   3.805  0.2456 -0.5302 -0.3198
 9946W        W12096  22.816   4.268  18.251  0.0741  0.1579  0.3037
 9947W        W12097  16.993   0.868   5.761  0.0146  0.0496  0.1088
 9948W        W12098   9.612   0.827   2.171  0.1329  0.1185 -0.2115
 9949W        W12099  19.490   5.537   3.433  0.0933 -0.0934 -0.1692
 9950W        W12100  26.360   0.084  18.806  0.3822  0.0804  0.0833
 9951W        W12101   2.571   0.869   1.185 -0.0607  0.0037 -0.3986
 9952W        W12102  30.900   4.021   5.849 -0.0339  0.2113 -0.2139
 9953W        W12103   4.461   4.659   2.394  0.0082  0.1810  0.1232
 9954W        W12104   8.749   0.479   1.563  0.0155  0.2551 -0.0074
 9955W        W12105  27.961   7.575  24.875  0.1508 -0.2728  0.3230
 9956W        W12106  10.560   1.779   6.813  0.0579  0.0334  0.0293
 9957W        W12107  23.884   0.805  19.903 -0.2100 -0.3315 -0.2005
 9958W        W12108   1.326   4.487   2.157  0.2296 -0.0159  0.1158
 9959W        W12109  25.460   2.985  17.736  0.2061 -0.1660 -0.0401
 9960W        W12110   0.580   2.826   7.644 -0.0312 -0.1501  0.1660
 9961W        W12111  12.319   6.688   7.847 -0.0302  0.1019 -0.0493
 9962W        W12112  18.794   3.351   5.936  0.1683 -0.3709  0.1783
 9963W        W12113  26.313   6.362  23.326  0.0106  0.1986 -0.1306
 9964W        W12114   0.606   6.994   3.030 -0.1527 -0.3142 -0.2775
 9965W        W12115  29.896   1.033   0.968  0.3811 -0.0476  0.0752
 9966W        W12116   6.947   5.232   9.228  0.1619 -0.0018  0.1860
 9967W        W12117  22.375   0.634  11.362  0.0441  0.1215 -0.0555
 9968W        W12118  24.297   0.377  17.158 -0.2718 -0.1073 -0.0320
 9969W        W12119  21.327   4.046   8.210  0.1316  0.1786 -0.0158
 9970W        W12120  25.166   4.666  22.256  0.0398  0.0070 -0.0187
 9971W        W12121   0.111   2.524   8.817  0.0644 -0.0094 -0.2727
 9972W        W12122   3.599   1.882   6.651 -0.1750 -0.0105  0.0248
 9973W        W12123  17.170   4.620   6.879  0.2120  0.0927  0.0774
 9974W        W12124  14.994   6.249   5.565 -0.2075 -0.0984  0.1594
 9975W        W12125  24.860   7.180  20.971  0.0891 -0.4137  0.0765
 9976W        W12126   7.220   3.244  16.509  0.0142  0.0124 -0.3092
 9977W        W12127   1.741   2.403   0.893 -0.4202 -0.2607 -0.2557
 9978W        W12128  30.513   6.708   8.450 -0.0046 -0.3396 -0.1825
 9979W        W12129  16.456   5.309  24.953 -0.0516  0.1091 -0.1990
 9980W        W12130  26.751   3.104   8.925 -0.0677  0.1840  0.2734
 9981W        W12131   3.666   1.119   6.446 -0.4701 -0.1077  0.1761
 9982W        W12132  21.763   2.364  19.908 -0.2432  0.2005  0.2915
 9983W        W12133   4.644   1.675   3.963  0.2328 -0.4395  0.0991
 9984W        W12134  29.988   2.757  10.883  0.2148 -0.0749 -0.0064
 9985W        W12135   0.338   7.710  16.570 -0.0684  0.0680 -0.1307
 9986W        W12136  16.211   1.711  25.344 -0.1845  0.1110 -0.1843
 9987W        W12137  15.921   6.352  18.632  0.0084 -0.0679 -0.3076
 9988W        W12138  11.275   3.406  17.842  0.0605  0.1126 -0.2143
 9989W        W12139   9.407   3.057  25.107 -0.0189  0.0072 -0.0851
 9990W        W12140   6.960   0.836   1.179 -0.0688  0.0742  0.1172
 9991W        W12141  12.159   0.004   3.487 -0.0880 -0.2431 -0.0346
 9992W        W12142   0.191   1.073   2.140 -0.3010  0.0529  0.3421
 9993W        W12143  13.752   6.246  25.467  0.0506 -0.0882 -0.0249
 9994W        W12144  14.450   2.431  18.958  0.3056  0.4282 -0.1779
 9995W        W12145  18.313   7.439   7.837 -0.1381  0.0027  0.0283
 9996W        W12146  19.722   6.688   9.833  0.0867  0.0504 -0.2202
 9997W        W12147   7.210   7.672  15.982  0.1081 -0.0659 -0.0372
 9998W        W12148   7.126   4.252  19.973  0.0719 -0.1025 -0.0984
 9999W        W12149  23.468   5.530   8.092 -0.1856 -0.2493  0.0729
10000W        W12150  24.214   2.850   9.953  0.0999 -0.2466 -0.2557
10001W        W12151  22.230   5.971  18.891 -0.0164 -0.0496  0.1970
10002W        W12152  29.025   1.860   0.224 -0.1463 -0.1414 -0.1516
10003W        W12153  19.511   0.441   3.952 -0.0808 -0.1177 -0.1531
10004W        W12154  30.231   1.179   0.095  0.0555 -0.0776  0.2229
10005W        W12155  23.697   5.272  23.313 -0.0136  0.0763  0.0687
10006W        W12156  13.087   1.742   1.952  0.1995 -0.3058  0.1917
10007W        W12157  30.597   2.001  18.482 -0.2337 -0.0237  0.0832
10008W        W12158  27.315   2.179  21.958  0.0789  0.0689 -0.1113
10009W        W12159  26.485   0.403  17.592  0.0706  0.0713 -0.1318
10010W        W12160  25.783   4.349   2.891 -0.0734  0.0688  0.1758
10011W        W12161  12.327   2.223  24.540  0.2024  0.0835  0.3786
10012W        W12162  16.194   5.147  15.825 -0.1637  0.0103  0.1481
10013W        W12163   9.158   0.223   0.868  0.0705  0.0239  0.0933
10014W        W12164  10.168   7.361   1.428  0.3560 -0.2601 -0.0055
10015W        W12165  19.236   5.853  24.538  0.3592  0.2724 -0.1452
10016W        W12166   7.888   6.425  18.664  0.0155  0.2767 -0.1116
10017W        W12167  26.012   1.663  23.533 -0.4084  0.2326  0.0748
10018W        W12168  10.319   2.518  23.770 -0.2183  0.1283 -0.4387
10019W        W12169  18.536   6.499  19.799 -0.1247 -0.1410  0.0783
10020W        W12170   2.202   2.766   2.335  0.0835  0.0742  0.0158
10021W        W12171  18.057   5.539  26.379 -0.1440  0.1668 -0.1601
10022W        W12172   7.208   3.787  24.182 -0.0037  0.1212  0.0083
10023W        W12173   3.758   5.047   2.328 -0.1707 -0.1282 -0.1096
10024W        W12174   7.568   0.201  10.290 -0.1779  0.3249 -0.0837
10025W        W12175  29.360   6.183   9.687  0.1190  0.2278 -0.0409
10026W        W12176  16.193   6.939  25.503 -0.1007 -0.0985 -0.0764
10027W        W12177  12.746   3.975   0.718 -0.3347 -0.1345  0.3890
10028W        W12178   2.974   3.203  18.473 -0.0195  0.0727  0.0602
10029W        W12179  16.558   0.318  22.295 -0.4086  0.2822 -0.0293
10030W        W12180   5.599   6.283   4.964 -0.0760  0.1075  0.0836
10031W        W12181   2.769   6.941   1.566  0.1130  0.1061  0.0790
10032W        W12182  22.317   0.764   8.911  0.1149 -0.1162 -0.2577
10033W        W12183   2.604   5.999  16.808  0.1386 -0.1227  0.0681
10034W        W12184   6.025   3.026  25.539 -0.0130 -0.2010 -0.2598
10035W        W12185   6.648   0.724   4.242  0.1160 -0.0857 -0.0046
10036W        W12186  19.522   1.136   5.698  0.0374  0.2794 -0.0808
10037W        W12187  21.493   6.411  22.462  0.1052 -0.0922  0.2510
10038W        W12188  13.550   1.652  24.372  0.1804  0.1381  0.0365
10039W        W12189  13.749   3.540  24.055  0.5103 -0.1429  0.0721
10040W        W12190  18.552   0.035   8.073 -0.1002 -0.0715  0.1074
10041W        W12191  20.884   2.328  26.329 -0.2203  0.0946 -0.0837
10042W        W12192  21.403   2.924   6.255 -0.3517 -0.1579  0.0562
10043W        W12193  18.511   2.563  10.782 -0.0524 -0.1014  0.1953
10044W        W12194  16.167   4.659  25.551  0.2378 -0.0365  0.5494
10045W        W12195  22.137   6.433  20.120  0.0375 -0.0132  0.1697
10046W        W12196   2.187   3.468   9.676  0.1598  0.1001 -0.1258
10047W        W12197  31.031   3.588  16.293  0.2434  0.2054  0.0855
10048W        W12198   3.557   0.963  25.065  0.2330  0.0191  0.0286
10049W        W12199  27.588   2.323  25.274 -0.1937  0.0119  0.2216
10050W        W12200  26.901   4.947   9.434  0.1600  0.0924  0.1828
10051W        W12201  27.211   1.270   8.425 -0.0562  0.0637 -0.0930
10052W        W12202  25.166   1.704   7.189  0.0275  0.1434  0.2646
10053W        W12203  16.557   2.273  11.110 -0.4081  0.0683  0.1633
10054W        W12204  12.364   5.980  21.620  0.2191 -0.2586  0.0967
10055W        W12205  14.822   5.408  17.553  0.0524 -0.1605  0.1428
10056W        W12206  21.778   7.688  18.206 -0.2095  0.0011 -0.0225
10057W        W12207   7.698   6.970  22.181 -0.2857 -0.3781 -0.0359
10058W        W12208  24.920   1.552   9.147 -0.4367  0.1968 -0.0707
10059W        W12209  23.543   0.605  22.501  0.0145  0.2386 -0.1440
10060W        W12210   5.021   2.631   6.835  0.0696  0.1920 -0.0864
10061W        W12211   5.226   0.318   8.398 -0.2383 -0.0849  0.1311
10062W        W12212  18.323   0.869   3.957  0.1533  0.0891  0.0160
10063W        W12213  18.964   4.096  22.264  0.2364 -0.0074  0.0587
10064W        W12214   0.845   7.715   3.782 -0.1293 -0.0770 -0.1438
10065W        W12215  27.900   6.639  21.531  0.3520  0.0852  0.3090
10066W        W12216  26.767   4.775  18.712  0.0501  0.1724 -0.0287
10067W        W12217  14.360   1.385   5.804  0.0788 -0.0355 -0.0613
10068W        W12218   5.875   7.510  16.862  0.2418 -0.4974 -0.2633
10069W        W12219  20.897   1.118  25.292 -0.2026 -0.1328  0.2478
10070W        W12220   8.640   7.773   5.988  0.0908  0.3418 -0.0023
10071W        W12221  15.526   2.646  15.886  0.1868 -0.2174  0.2948
10072W        W12222  30.695   1.123  20.681  0.1997 -0.0926 -0.0012
10073W        W12223   4.266   0.274  10.747 -0.0313  0.1522 -0.3212
10074W        W12224   4.310   7.601   1.266  0.2082  0.1518  0.0926
10075W        W12225   1.432   6.172   3.694 -0.0597 -0.1477  0.0302
10076W        W12226  22.360   5.457   6.140  0.1131  0.0505 -0.0143
10077W        W12227   9.069   1.419   5.915 -0.0730 -0.0456  0.3546
10078W        W12228  16.480   1.768  11.062  0.3499  0.2291  0.0361
10079W        W12229  11.335   0.701   2.563 -0.0928  0.1501  0.0979
10080W        W12230   1.385   5.554   3.603  0.0053  0.0588  0.0056
10081W        W12231   0.384   2.888   2.130 -0.1571 -0.0339  0.0408
10082W        W12232  27.736   3.487   5.921 -0.0258  0.0607  0.2120
10083W        W12233  15.849   5.775   0.420 -0.1953  0.1264  0.0179
10084W        W12234  16.728   2.635  22.587 -0.0853 -0.2802  0.1011
10085W        W12235  26.059   7.070  22.342  0.2278  0.0171 -0.2764
10086W        W12236  18.223   6.654  20.466  0.0347  0.0680  0.1366
10087W        W12237  29.864   2.820  20.847 -0.0261  0.0676  0.0404
10088W        W12238   0.856   7.340  18.172 -0.0173  0.0819  0.2070
10089W        W12239  23.377   0.091   5.780  0.3171 -0.1076  0.0685
10090W        W12240  14.106   4.278  23.553  0.1807 -0.0936 -0.0410
10091W        W12241  22.204   0.969  26.097  0.1703  0.0031 -0.1321
10092W        W12242  10.107   1.956   9.272  0.0112 -0.3002 -0.0001
10093W        W12243   3.911   1.171  19.133  0.1813 -0.0704  0.1327
10094W        W12244   5.279   4.610   2.645  0.0979 -0.0174  0.2149
10095W        W12245  16.001   3.494   5.182 -0.0815  0.0039 -0.1052
10096W        W12246  11.910   3.091   9.285  0.4349 -0.2119 -0.1386
10097W        W12247  27.141   2.508  21.648  0.1260  0.1092 -0.2165
10098W        W12248  28.062   1.584   8.834  0.1564  0.0313  0.2090
10099W        W12249   5.242   5.751   4.319 -0.0249  0.0047  0.1371
10100W        W12250  20.278   6.220  24.605 -0.0288 -0.1363  0.1759
10101W        W12251   9.420   1.581  24.453  0.0758  0.0751 -0.2753
10102W        W12252  25.078   5.753   0.404  0.0080  0.0021 -0.0325
10103W        W12253  17.733   4.081  18.863 -0.1024  0.1290  0.1770
10104W        W12254  27.659   7.029  21.756  0.0102 -0.0612 -0.1685
10105W        W12255  17.062   7.514  24.369 -0.2684 -0.1787  0.2137
10106W        W12256   9.799   4.788   9.350  0.1426  0.0959 -0.1966
10107W        W12257   0.014   4.993   2.983 -0.0498  0.1409 -0.0539
10108W        W12258  11.838   3.737   6.620 -0.0110  0.2145  0.0711
10109W        W12259  29.949   4.347   3.275 -0.2348 -0.4898 -0.1934
10110W        W12260   9.361   4.109  24.912 -0.0593  0.1611  0.2750
10111W        W12261  18.187   5.092  19.716  0.0851  0.2680  0.1816
10112W        W12262  16.243   6.476  22.908  0.1806 -0.3613  0.1895
10113W        W12263  17.292   0.991   9.790  0.4996 -0.1000 -0.1464
10114W        W12264  30.790   1.762  18.899  0.0147  0.0556 -0.1477
10115W        W12265   9.699   5.649  10.401  0.3013  0.1990 -0.1290
10116W        W12266  20.704   7.698  10.658  0.1271  0.0216  0.1210
10117W        W12267  18.007   7.188   6.531 -0.2309  0.1195 -0.3230
10118W        W12268  28.494   3.843  18.079  0.0574  0.0873 -0.1520
10119W        W12269  17.636   3.809   6.968  0.0691 -0.1483  0.1148
10120W        W12270  23.848   2.340  16.302 -0.0841  0.1476 -0.1554
10121W        W12271  11.298   1.080  16.088  0.0402 -0.3980  0.0017
10122W        W12272  24.100   6.175  17.079  0.1324  0.0380  0.1454
10123W        W12273   3.836   0.878  21.901 -0.1573  0.0597 -0.3097
10124W        W12274   1.306   0.326  15.707  0.0888 -0.2311  0.0628
10125W        W12275   2.318   6.680   8.533  0.0241 -0.2890 -0.0155
10126W        W12276  18.560   3.592  24.167  0.1976  0.1827  0.0641
10127W        W12277   6.823   0.805  10.334 -0.0705  0.1451  0.2098
10128W        W12278   1.621   4.189  25.633 -0.2019 -0.0778  0.0133
10129W        W12279   6.324   4.816  18.922  0.2307  0.3093  0.0529
10130W        W12280   1.912   4.403   6.411  0.0484 -0.2976  0.0098
10131W        W12281  13.674   2.400   1.681  0.0150  0.1257  0.0627
10132W        W12282  28.369   2.393  17.516 -0.0311  0.0458  0.0363
10133W        W12283  29.428   5.899   8.349 -0.0001 -0.2467  0.0034
10134W        W12284   5.975   1.881   9.861 -0.1657  0.2471  0.2383
10135W        W12285   8.239   0.905  16.565  0.0453 -0.0430 -0.2552
10136W        W12286  29.778   2.773  19.242 -0.0584  0.2957 -0.4503
10137W        W12287   2.734   5.911  17.584 -0.0704 -0.1129  0.0675
10138W        W12288  26.030   3.525  26.029  0.0285  0.1350  0.0328
10139W        W12289  19.395   2.515  19.979 -0.0393 -0.1436  0.2065
10140W        W12290  14.874   7.011  19.957 -0.0467 -0.0229  0.2051
10141W        W12291  25.738   5.507  23.937 -0.2037  0.3389  0.0196
10142W        W12292   6.987   1.226  11.203 -0.2948  0.1927 -0.0377
10143W        W12293  25.920   5.042  24.277  0.1069  0.3299  0.1213
10144W        W12294   8.603   7.114  22.409  0.1470 -0.2970  0.2765
10145W        W12295  15.942   6.366  19.527 -0.1172  0.0047  0.0364
10146W        W12296  29.852   4.253  19.964  0.1982  0.1959  0.1402
10147W        W12297   1.679   4.588   4.645  0.0384  0.1475  0.0698
10148W        W12298  18.605   6.670   2.144  0.0784 -0.0802  0.0200
10149W        W12299  13.617   4.887   0.235  0.1614  0.3832  0.1689
10150W        W12300  26.369   5.915  25.541 -0.1339  0.0843 -0.0642
10151W        W12301  17.865   4.369  24.326 -0.0259 -0.1423 -0.0507
10152W        W12302   8.383   3.370  22.921  0.1549  0.0326 -0.1198
10153W        W12303  15.883   3.643   4.709 -0.3369 -0.2173 -0.2305
10154W        W12304  24.565   5.212  18.228 -0.2207 -0.0130 -0.0167
10155W        W12305  22.997   2.594  25.165  0.0758 -0.0272 -0.1237
10156W        W12306   4.232   2.234  19.174 -0.2169  0.0846  0.0780
10157W        W12307  13.908   6.592  25.014 -0.0949 -0.2252  0.4032
10158W        W12308   9.873   2.437   9.098  0.1870  0.1417 -0.1946
10159W        W12309  21.562   2.863  25.016  0.2632 -0.1316 -0.2097
10160W        W12310   2.447   4.578   7.630 -0.0027 -0.1344 -0.1444
10161W        W12311  15.953   0.744   8.358 -0.1682 -0.2199 -0.0532
10162W        W12312   1.895   0.061   6.861 -0.1835  0.2044  0.2050
10163W        W12313  25.384   6.849   5.836 -0.0714 -0.4229 -0.0168
10164W        W12314  15.874   3.106  18.140 -0.3640 -0.1411 -0.0282
10165W        W12315  24.880   2.376  19.054 -0.1646 -0.0008 -0.0719
10166W        W12316  30.575   7.603  21.207  0.1930  0.2420 -0.1008
10167W        W12317  24.325   2.820   3.699  0.0846 -0.1549  0.1610
10168W        W12318  21.881   5.673  21.244  0.1534 -0.1893 -0.2303
10169W        W12319  11.239   3.346  18.710 -0.1672 -0.0244 -0.2001
10170W        W12320  14.255   3.105  25.066 -0.1505 -0.0370 -0.1060
10171W        W12321  14.740   0.078  19.485 -0.1163 -0.3381 -0.0890
10172W        W12322  16.040   4.567  19.923 -0.0400 -0.0297 -0.1663
10173W        W12323   0.134   3.279  23.596 -0.0683  0.0898 -0.0082
10174W        W12324   7.480   5.834  15.355 -0.2076 -0.0844  0.0735
10175W        W12325   4.190   5.175  22.165  0.0032 -0.1832  0.1048
10176W        W12326  31.072   0.159  20.068 -0.0595  0.1478  0.1582
10177W        W12327  26.035   1.069  22.300 -0.0376 -0.1360 -0.2067
10178W        W12328  13.309   0.755  22.225 -0.1110  0.1110  0.0340
10179W        W12329   4.320   3.777  15.516 -0.2819 -0.1419  0.1823
10180W        W12330  17.615   2.339  21.892  0.2619 -0.0462  0.0526
10181W        W12331   7.631   3.866  22.330  0.0381 -0.0161 -0.2733
10182W        W12332   9.606   1.853   9.578  0.0934  0.2373  0.1463
10183W        W12333   0.587   6.200   4.419  0.2001 -0.0237  0.0502
10184W        W12334  19.354   4.980  18.196 -0.1264 -0.2238  0.0220
10185W        W12335  28.395   4.660   4.457  0.0513  0.1450 -0.0240
10186W        W12336  19.472   6.073  23.461 -0.2234 -0.2122 -0.0392
10187W        W12337  24.345   4.470   3.212 -0.0013 -0.0381  0.1790
10188W        W12338  30.748   2.168  10.879 -0.1447 -0.0401 -0.0912
10189W        W12339  25.011   0.716  20.184  0.2625 -0.0267 -0.0976
10190W        W12340   5.801   4.221  23.245  0.4394  0.3172 -0.1004
10191W        W12341  25.812   5.877   1.420 -0.0396 -0.0681 -0.0620
10192W        W12342   8.525   7.099  26.024 -0.0331 -0.2331  0.0453
10193W        W12343  24.296   1.057  18.085 -0.1544  0.3021 -0.0454
10194W        W12344   8.833   3.794   8.882  0.4880  0.2306  0.1356
10195W        W12345  30.558   0.464   7.555  0.0809  0.0921  0.0639
10196W        W12346  14.361   3.397   0.297  0.2921 -0.1741  0.2801
10197W        W12347  14.219   2.266  15.334  0.1334 -0.2082 -0.2472
10198W        W12348   5.210   3.850   9.263  0.1031 -0.2056  0.1111
10199W        W12349  26.272   7.372  24.094  0.0035 -0.1089  0.1580
10200W        W12350  22.690   4.419   5.197 -0.2772  0.1775 -0.0696
10201W        W12351  13.764   0.760  23.313  0.3312  0.2178 -0.0328
10202W        W12352  17.796   2.270   2.948 -0.2234  0.0726  0.0888
10203W        W12353   4.671   4.200  15.609  0.1390 -0.1622 -0.0771
10204W        W12354  11.245   0.365  21.287 -0.1189 -0.3153  0.0430
10205W        W12355  12.210   6.433   3.017 -0.0910  0.1976 -0.0519
10206W        W12356  24.565   0.001  18.643 -0.0414  0.0197  0.0310
10207W        W12357  14.163   7.736   0.117 -0.2316  0.1784 -0.0976
10208W        W12358  11.521   0.960  10.430  0.1104  0.1106  0.1226
10209W        W12359   7.071   5.781  24.549 -0.0884  0.0641 -0.2221
10210W        W12360  18.785   3.315  15.446  0.1023 -0.0166 -0.0093
10211W        W12361  18.775   3.868  10.530 -0.1947 -0.0685  0.0125
10212W        W12362  29.895   4.094   1.645  0.1032 -0.0845 -0.0516
10213W        W12363  28.488   2.884   3.890 -0.2970 -0.1931  0.0115
10214W        W12364   4.508   4.431   3.218 -0.0843 -0.0173  0.2869
10215W        W12365   8.416   4.599   8.822  0.2482 -0.0959  0.0557
10216W        W12366  13.743   3.158  20.851  0.2252  0.0826 -0.2276
10217W        W12367  29.077   3.589   1.202 -0.0283 -0.1823  0.1136
10218W        W12368   2.530   0.964   2.208 -0.0503  0.2837 -0.0614
10219W        W12369   7.767   0.424   1.705  0.0918  0.0588 -0.0822
10220W        W12370  18.168   3.365  18.626 -0.0601  0.0151 -0.3723
10221W        W12371  12.612   2.542   7.850 -0.4664 -0.2161 -0.0301
10222W        W12372  24.961   7.748  22.572  0.1303 -0.2576  0.1963
10223W        W12373   6.472   0.994   6.998  0.1901 -0.0554  0.1155
10224W        W12374  15.974   6.459  24.727 -0.2869 -0.2009  0.3803
10225W        W12375  27.330   4.415  24.656 -0.0573  0.0020 -0.0387
10226W        W12376   0.887   2.157  24.330 -0.0193 -0.0433 -0.0599
10227W        W12377  24.955   1.842  21.621 -0.0765  0.3122 -0.1049
10228W        W12378  30.810   1.429  21.932  0.0189  0.1195  0.0131
10229W        W12379  11.759   4.483  25.009  0.0774 -0.1333 -0.1765
10230W        W12380  10.749   2.140  20.665  0.1310  0.0821 -0.0095
10231W        W12381  30.274   2.386   7.322  0.1299 -0.1649  0.0173
10232W        W12382  21.497   5.737  16.264  0.1561  0.2524 -0.1677
10233W        W12383   2.287   4.949   2.795  0.1358  0.0344 -0.0392
10234W        W12384   2.234   2.460   8.934 -0.1534 -0.1656  0.3764
10235W        W12385  27.184   7.582   6.990 -0.0804  0.0131 -0.1790
10236W        W12386  30.020   3.914  20.323  0.0117 -0.0243 -0.3002
10237W        W12387  18.015   3.105   4.470 -0.0725 -0.0688  0.2690
10238W        W12388   0.756   0.570  10.197 -0.0763  0.0594 -0.0979
10239W        W12389   9.760   0.105  22.847  0.1296  0.0039 -0.0058
10240W        W12390  15.934   2.981  23.873  0.0438 -0.2121 -0.1015
10241W        W12391  15.883   5.417   7.856  0.0397 -0.0110 -0.0781
10242W        W12392  24.333   2.548  20.436  0.3955  0.4614 -0.2651
10243W        W12393  27.481   6.263  21.319  0.3576  0.0853  0.2853
10244W        W12394   4.846   0.928  20.772 -0.0398 -0.0408  0.0137
10245W        W12395  27.265   0.654  22.483 -0.5092  0.1498 -0.1815
10246W        W12396   4.066   3.221   3.510 -0.2941 -0.1852 -0.0117
10247W        W12397   6.885   5.822  17.139  0.0554 -0.2698  0.0043
10248W        W12398  23.332   1.471   2.375  0.1094  0.0780 -0.0810
10249W        W12399   0.746   6.038  15.843  0.3061 -0.0984 -0.1318
10250W        W12400   3.536   7.258   2.444 -0.0475  0.0260 -0.1965
10251W        W12401   7.381   6.749   2.947  0.1439 -0.0620 -0.1207
10252W        W12402  30.772   7.304  20.772 -0.1585  0.1169  0.1867
10253W        W12403  29.744   7.123  17.169  0.2224 -0.1087 -0.0377
10254W        W12404  22.371   0.698  25.618 -0.3426  0.0263  0.2431
10255W        W12405  30.672   5.273  26.211  0.2506 -0.2364  0.0577
10256W        W12406  29.606   4.855  16.251  0.1822  0.2023 -0.2242
10257W        W12407  27.490   2.266  18.794  0.0576  0.0879  0.2185
10258W        W12408  24.491   1.657  24.327  0.0229 -0.1278 -0.4064
10259W        W12409   7.798   6.639  20.767 -0.0565 -0.0535  0.0265
10260W        W12410  23.348   5.059  18.812  0.0847  0.2480 -0.2921
10261W        W12411   8.784   7.385   8.434  0.1048  0.1753 -0.0003
10262W        W12412  25.228   0.467   0.768 -0.3763  0.1279 -0.0469
10263W        W12413  10.165   5.915  18.302 -0.0141  0.4336  0.1962
10264W        W12414   1.291   6.712   2.367  0.0238 -0.1672  0.0167
10265W        W12415  30.764   0.280   5.688 -0.0630  0.1045  0.1877
10266W        W12416  26.756   2.470   4.513  0.0129  0.0562 -0.1287
10267W        W12417  12.710   3.853  21.151 -0.0776  0.1821 -0.4956
10268W        W12418   8.478   2.070  25.950  0.0287 -0.1476 -0.1373
10269W        W12419  15.443   7.747  19.801  0.1942  0.0198 -0.0932
10270W        W12420   7.418   3.679  21.891 -0.0933  0.2214 -0.0560
10271W        W12421   7.565   3.609  16.380  0.1345  0.0379  0.0792
10272W        W12422  18.117   0.400   3.222 -0.0300 -0.0870 -0.3083
10273W        W12423   8.936   5.085   1.683  0.0093 -0.1425  0.0371
10274W        W12424  20.425   2.929  23.927 -0.3807 -0.0987 -0.1495
10275W        W12425   7.916   7.562   6.496 -0.0770  0.4301 -0.0693
10276W        W12426  16.117   5.275  22.346  0.3349 -0.3710  0.0559
10277W        W12427  23.920   2.542  21.468  0.1716 -0.1750 -0.1291
10278W        W12428  24.579   1.462  10.734  0.0705 -0.2040 -0.2434
10279W        W12429   6.823   4.248  10.683 -0.0451  0.1295 -0.0437
10280W        W12430  23.724   6.350   3.482 -0.1789 -0.0068 -0.0421
10281W        W12431   1.858   0.880  19.962  0.1615  0.0691 -0.0266
10282W        W12432  29.365   6.829   7.352 -0.3293  0.0526 -0.1507
10283W        W12433  18.877   0.511   1.266 -0.3782  0.3486 -0.3514
10284W        W12434   9.976   2.964  26.415 -0.1281  0.0245 -0.1088
10285W        W12435  21.927   6.453  24.212  0.3982 -0.0999 -0.0221
10286W        W12436  15.106   4.109  21.697  0.2172  0.1122 -0.0087
10287W        W12437  21.008   6.594  20.566  0.0080  0.0609  0.0014
10288W        W12438  12.644   5.869  22.052 -0.2228  0.0667  0.1696
10289W        W12439   7.968   4.246   4.512  0.1077 -0.0302 -0.2163
10290W        W12440  27.091   0.399   1.162 -0.0383 -0.0795  0.1116
10291W        W12441   1.171   1.396   6.689 -0.0591 -0.2241  0.0407
10292W        W12442  17.389   0.841   2.757 -0.3601 -0.2935 -0.2678
10293W        W12443  10.984   6.237  16.074 -0.2517 -0.0561 -0.1034
10294W        W12444  21.438   0.007   6.597  0.1247  0.1686  0.1398
10295W        W12445  31.054   5.957  17.147 -0.1248  0.1963  0.1046
10296W        W12446   2.753   5.232   0.331 -0.3598 -0.1959  0.0423
10297W        W12447  20.592   3.300  19.093 -0.1869 -0.1411  0.0488
10298W        W12448   6.567   2.891  23.531  0.0449  0.2821  0.0621
10299W        W12449  15.671   1.631  25.149 -0.2604 -0.4967  0.0257
10300W        W12450   4.508   7.362  18.769 -0.0901  0.0346 -0.3063
10301W        W12451  15.309   3.495   4.764  0.2062  0.0121 -0.2403
10302W        W12452   6.519   7.479  21.802  0.0868  0.2410 -0.4009
10303W        W12453  29.433   2.106   3.996 -0.4885  0.3546  0.1671
10304W        W12454  21.524   6.968  17.505  0.3169  0.0567  0.2946
10305W        W12455   3.303   7.420  10.858  0.1850 -0.0016 -0.1398
10306W        W12456  28.950   3.705  25.065  0.1497  0.1350 -0.0464
10307W        W12457   5.742   3.220  21.750  0.0754  0.2739 -0.0550
10308W        W12458   7.113   6.619   9.255  0.0769 -0.0689  0.2931
10309W        W12459   2.798   7.502   2.079 -0.1830 -0.0033 -0.0060
10310W        W12460  16.887   2.295   4.543  0.1810 -0.1991  0.1305
10311W        W12461  11.261   6.881   3.728  0.1693  0.1141 -0.0072
10312W        W12462  12.287   2.045  17.592  0.1159 -0.0158 -0.1608
10313W        W12463  13.586   0.248  16.935  0.1623 -0.0295  0.0855
10314W        W12464  25.678   2.417   7.318 -0.0376  0.1489 -0.3703
10315W        W12465   8.954   4.057   5.944  0.2567 -0.2426  0.1524
10316W        W12466  19.785   3.999  25.460 -0.1770  0.0439  0.1292
10317W        W12467  20.211   5.091   7.834  0.0369 -0.2336 -0.0878
10318W        W12468   5.558   3.851   8.694 -0.1111  0.0424 -0.1788
10319W        W12469  24.570   7.710   8.809 -0.1534 -0.4074 -0.1071
10320W        W12470   5.602   6.981   2.042 -0.0155  0.2002  0.0711
10321W        W12471  15.685   1.719   1.959  0.2098 -0.2629  0.1321
10322W        W12472  13.478   5.823   6.716 -0.0955 -0.0282  0.1534
10323W        W12473  27.003   1.447   7.196  0.2839  0.1640 -0.0863
10324W        W12474  20.715   2.754   1.169  0.0259  0.1870 -0.0023
10325W        W12475  30.412   1.608  17.188 -0.0819 -0.0366 -0.1607
10326W        W12476   2.525   7.720  21.412  0.1994 -0.1912  0.0028
10327W        W12477  18.264   7.123  16.408 -0.0991  0.0911  0.0759
10328W        W12478  26.533   1.861  24.679  0.1089 -0.0953 -0.1486
10329W        W12479  25.714   7.206  17.218  0.0392  0.3175 -0.4011
10330W        W12480  20.345   2.065   6.730 -0.2421 -0.3380 -0.2600
10331W        W12481  24.657   5.150   6.151  0.2555  0.1634  0.2057
10332W        W12482  13.791   5.365  15.525  0.0042 -0.0242  0.0080
10333W        W12483   5.479   1.895  10.642  0.2191 -0.1591 -0.3673
10334W        W12484  31.073   1.623  22.294  0.0411  0.1000 -0.1646
10335W        W12485  19.826   7.289  17.252 -0.0766 -0.2067  0.0662
10336W        W12486  14.909   7.216   4.684  0.0415 -0.3425  0.2176
10337W        W12487  17.842   3.239   6.002  0.2207  0.0873 -0.0363
10338W        W12488  18.657   7.067  16.857  0.0219  0.0872 -0.0724
10339W        W12489  21.295   4.485   1.858  0.2732  0.2849 -0.0554
10340W        W12490  14.989   2.829   6.841  0.0600  0.1678  0.2805
10341W        W12491   7.062   2.187  15.648 -0.0432  0.2537  0.0180
10342W        W12492  22.890   2.469  22.191 -0.3217  0.4089  0.2426
10343W        W12493   9.641   3.212  22.765  0.1717  0.3540  0.2470
10344W        W12494  13.159   2.471   0.479  0.0738  0.1266 -0.1488
10345W        W12495  18.400   6.287  16.820 -0.0583  0.3176  0.2180
10346W        W12496  24.971   1.654  18.005 -0.2157 -0.3028 -0.2820
10347W        W12497   0.738   0.366  18.428  0.0455  0.2354 -0.0752
10348W        W12498   2.407   5.908   5.985  0.2184 -0.0328 -0.2514
10349W        W12499  15.583   2.572  20.713  0.2677  0.1433 -0.2577
10350W        W12500  30.436   5.005  15.305 -0.3947 -0.0650 -0.1808
10351W        W12501  10.034   5.712  22.207  0.2693  0.1811  0.0794
10352W        W12502   0.372   2.887   5.192 -0.0741 -0.1901 -0.1775
10353W        W12503  25.205   1.697   7.822  0.0154  0.0687  0.3734
10354W        W12504   3.435   2.956  16.912  0.1742 -0.0484  0.4162
10355W        W12505   7.525   5.931   7.396 -0.0007 -0.0082  0.0991
10356W        W12506  10.535   7.332  18.799 -0.3411 -0.2155 -0.1919
10357W        W12507   7.037   4.511  20.418 -0.0484  0.3035 -0.1554
10358W        W12508  26.069   4.499  20.710 -0.2246  0.1728 -0.1986
10359W        W12509  14.387   0.920  17.172  0.3160 -0.1468  0.1123
10360W        W12510  29.561   7.628  15.896  0.3829  0.0727  0.0852
10361W        W12511   4.481   2.834   5.897  0.0553 -0.3803  0.1133
10362W        W12512  15.499   7.037   5.490 -0.0275 -0.1944 -0.2057
10363W        W12513  19.431   5.516   4.423 -0.1189 -0.3283 -0.0427
10364W        W12514   8.929   5.780  21.930 -0.2666  0.1082 -0.0391
10365W        W12515   2.528   6.100   4.785  0.1915 -0.3071  0.3243
10366W        W12516  12.526   4.170  21.849  0.0235  0.2370 -0.1321
10367W        W12517  11.936   3.843   4.252 -0.1263  0.1485  0.3174
10368W        W12518   3.661   3.163   6.190  0.0829  0.1699  0.1043
10369W        W12519  23.594   4.876  11.479 -0.2263  0.0968  0.0501
10370W        W12520   5.078   0.303   3.121 -0.0464 -0.1669 -0.2718
10371W        W12521   6.565   6.751  22.840  0.2255 -0.2389  0.0904
10372W        W12522  30.918   5.206  15.348  0.3601 -0.0591  0.1353
10373W        W12523   4.082   3.900  22.872 -0.0171  0.1149 -0.0708
10374W        W12524  17.403   0.606   0.872  0.3521 -0.1123  0.0806
10375W        W12525   2.881   2.628   0.048  0.0533  0.0172  0.0750
10376W        W12526   6.049   1.026  22.798  0.0962  0.0686 -0.0746
10377W        W12527  21.030   0.512  22.267  0.1684  0.3104  0.0111
10378W        W12528  21.205   6.391  23.235 -0.0753  0.2183  0.0054
10379W        W12529  10.507   1.925   4.257  0.0859  0.3022 -0.1558
10380W        W12530  15.377   3.855  23.552  0.0495 -0.0259 -0.0101
10381W        W12531  12.212   7.328   8.933  0.2287 -0.1898  0.2204
10382W        W12532  23.987   2.599   0.893 -0.0987  0.0936  0.1846
10383W        W12533  16.048   2.400  20.536 -0.1174 -0.1475 -0.1515
10384W        W12534  23.613   3.223  18.520 -0.1156 -0.0614  0.1805
10385W        W12535  24.615   0.365   3.529 -0.0673 -0.1552  0.0279
10386W        W12536   6.186   0.680  16.307 -0.0660  0.2928 -0.2896
10387W        W12537  17.407   1.512   7.073  0.2285 -0.2701  0.2355
10388W        W12538   4.207   1.018  22.190  0.1671 -0.0253 -0.0069
10389W        W12539  16.321   2.542   3.390  0.0192  0.2242  0.0835
10390W        W12540  24.843   4.537  10.905  0.1870 -0.2797  0.0133
10391W        W12541  29.120   2.582  20.115  0.1066 -0.1104 -0.1921
10392W        W12542  22.027   3.641   8.563 -0.2136 -0.1118  0.1279
10393W        W12543  18.871   1.561  15.986 -0.0407 -0.2717 -0.0397
10394W        W12544   4.598   1.712   3.007 -0.0280  0.2161  0.0201
10395W        W12545   1.262   0.573   2.995  0.2940  0.0151  0.1139
10396W        W12546  23.893   7.239  25.586 -0.1840 -0.1949  0.1152
10397W        W12547  17.067   2.093  24.144  0.2463 -0.1004  0.2714
10398W        W12548  20.124   2.955  17.983 -0.0894 -0.2418 -0.2970
10399W        W12549  18.426   0.428   8.794  0.0201 -0.0635  0.0995
10400W        W12550   4.199   3.958  24.194  0.0075  0.0418 -0.2817
10401W        W12551   4.403   2.659  10.664  0.1486 -0.2850 -0.1345
10402W        W12552  12.838   0.105   5.989  0.0844 -0.1098  0.0606
10403W        W12553  10.818   3.960   8.222  0.1219 -0.3816 -0.1685
10404W        W12554  23.502   0.107  16.169 -0.1916 -0.0444  0.1089
10405W        W12555  22.066   2.836   9.819 -0.1908  0.0159 -0.2873
10406W        W12556   4.032   7.715  23.420  0.0885  0.0564 -0.4022
10407W        W12557  25.185   7.166  15.928  0.1212 -0.0937  0.2258
10408W        W12558  20.332   2.802  10.653  0.0534 -0.0952  0.1040
10409W        W12559  29.228   2.013   7.777 -0.2935  0.2778  0.1440
10410W        W12560  20.176   2.122  20.417  0.1929  0.1538  0.2011
10411W        W12561   1.983   7.170  23.363  0.0126  0.1025 -0.2893
10412W        W12562   6.345   1.110   7.481  0.1517  0.0669 -0.0279
10413W        W12563  10.772   2.118  17.447 -0.1414 -0.0462  0.2392
10414W        W12564  25.528   4.742   0.346  0.1727 -0.3035 -0.1194
10415W        W12565  10.746   6.676  16.524  0.1678  0.0169 -0.0841
10416W        W12566  18.797   4.840  16.657  0.0904 -0.1056  0.0170
10417W        W12567  22.162   7.004   0.182 -0.3446 -0.1127 -0.2628
10418W        W12568  22.490   0.889  21.195 -0.0164  0.4304 -0.0617
10419W        W12569  23.938   6.577  18.776 -0.0539  0.0606  0.0531
10420W        W12570  16.751   7.048   2.422 -0.0218  0.1525  0.2721
10421W        W12571  25.643   2.971   5.383  0.1418 -0.0076 -0.1049
10422W        W12572   0.807   3.604  16.580 -0.0665 -0.1307  0.0211
10423W        W12573   4.694   2.877   1.509 -0.0101  0.3900 -0.3151
10424W        W12574  16.409   5.611   3.584 -0.1916  0.1145 -0.1338
10425W        W12575  14.117   4.431  25.398 -0.3470 -0.0426 -0.1552
10426W        W12576  26.494   4.944   2.910 -0.2072 -0.3702  0.0946
10427W        W12577  29.960   4.650   5.387  0.1222 -0.4019 -0.0582
10428W        W12578  19.504   2.662   7.453 -0.0039 -0.0763 -0.0660
10429W        W12579  24.048   2.165  25.703  0.0588 -0.0600 -0.0869
10430W        W12580  20.991   4.937  16.693 -0.1360 -0.0491  0.0893
10431W        W12581   4.037   2.560   7.157 -0.0039 -0.1573  0.1554
10432W        W12582   6.198   6.695   9.084 -0.0972 -0.2501  0.2565
10433W        W12583   3.865   3.795  24.811 -0.2922 -0.4454 -0.0580
10434W        W12584  10.345   4.817   0.549 -0.1463  0.1621 -0.1410
10435W        W12585  11.585   3.712  25.165 -0.1451 -0.2952  0.0737
10436W        W12586  26.553   4.483  20.237  0.2361 -0.0017  0.0145
10437W        W12587  16.525   0.198  10.842 -0.1021 -0.0793  0.1387
10438W        W12588   4.475   5.797   6.483  0.2283  0.2180  0.0296
10439W        W12589  28.644   2.510  10.114 -0.0962 -0.0473  0.1009
10440W        W12590  13.076   6.599   7.219 -0.4806  0.1188  0.0005
10441W        W12591   9.942   1.489   9.457 -0.2826 -0.0882  0.1681
10442W        W12592  25.215   6.488  22.511 -0.2011 -0.0790  0.3355
10443W        W12593   4.873   1.940   5.506  0.1892  0.1181  0.1931
10444W        W12594  18.401   2.335  16.293  0.0512 -0.0855  0.1089
10445W        W12595  27.133   3.160  15.281  0.0834 -0.1318  0.1404
10446W        W12596   7.673   1.905  18.032  0.1887 -0.0975  0.2878
10447W        W12597   7.372   7.262  21.949 -0.0693 -0.0720  0.2605
10448W        W12598  12.308   2.436  18.670  0.0271  0.0615 -0.0178
10449W        W12599  17.287   2.964  11.362 -0.0826  0.2328  0.0031
10450W        W12600  26.107   3.913   5.979  0.0723  0.1509  0.0418
10451W        W12601   0.530   1.301  20.576 -0.0817 -0.0904  0.3600
10452W        W12602  18.137   4.626  24.880 -0.0043 -0.0186 -0.0197
10453W        W12603  28.081   6.165  25.289 -0.3387  0.3618  0.0203
10454W        W12604  31.065   1.517  19.713 -0.0264  0.1171 -0.0026
10455W        W12605  11.598   2.065   2.181  0.2988  0.0491 -0.1077
10456W        W12606  10.178   7.559  16.183 -0.1502 -0.0993  0.0067
10457W        W12607  30.839   5.434   9.209  0.2918 -0.2395 -0.1252
10458W        W12608  20.301   4.075  21.506  0.2656 -0.1700  0.0098
10459W        W12609  24.912   1.522   3.649  0.0304 -0.3694 -0.1025
10460W        W12610   2.514   2.800  10.632  0.1333  0.1825  0.2630
10461W        W12611  14.727   2.638  20.016  0.1508  0.0509 -0.1001
10462W        W12612   0.924   0.578  16.532 -0.1108 -0.0164  0.0737
10463W        W12613  25.253   4.303   8.069 -0.1176 -0.0507  0.0141
10464W        W12614   9.797   0.048  25.010  0.3605 -0.1785  0.1077
10465W        W12615   0.050   3.816   6.142 -0.4026 -0.0456  0.0141
10466W        W12616  12.121   2.033  22.422  0.0833  0.2586  0.1363
10467W        W12617  21.992   7.361   2.495  0.2610  0.0074  0.0941
10468W        W12618  17.515   6.617   6.686 -0.0580  0.2388 -0.0951
10469W        W12619  10.892   1.413  16.801 -0.1519  0.0809  0.1255
10470W        W12620  25.777   2.646   3.801 -0.0308  0.3683  0.1336
10471W        W12621  21.897   4.924  22.447  0.0016 -0.2469 -0.0253
10472W        W12622   9.817   7.468   4.809  0.3660 -0.1033  0.1631
10473W        W12623   3.096   7.413   9.048 -0.1729 -0.0041 -0.2194
10474W        W12624  15.669   5.908  17.361 -0.0562  0.2257 -0.2132
10475W        W12625  17.775   7.491   8.969 -0.2293  0.1982  0.1305
10476W        W12626  10.753   4.009   5.417  0.3716  0.4056 -0.1562
10477W        W12627  26.035   4.797  16.160  0.1452 -0.1133 -0.1413
10478W        W12628   2.957   7.781   4.599  0.2125  0.1308  0.1228
10479W        W12629   4.334   0.907  20.081 -0.0779  0.0775  0.0311
10480W        W12630  29.458   4.606   3.232  0.0267 -0.0518 -0.0217
10481W        W12631  11.657   6.922  10.344  0.0605  0.0692  0.1234
10482W        W12632  18.212   1.471  17.553  0.1317 -0.1865  0.0912
10483W        W12633  16.172   3.891   0.857 -0.0357 -0.1213  0.1282
10484W        W12634  27.029   0.663   5.978  0.0042  0.0707 -0.0863
10485W        W12635   9.559   1.966   3.199 -0.1979  0.2900  0.0574
10486W        W12636  25.477   3.828  10.817 -0.3673  0.0395 -0.0175
10487W        W12637  27.837   4.197   6.944  0.1641 -0.1323  0.2757
10488W        W12638   3.956   6.961   2.283  0.1495 -0.2612 -0.0228
10489W        W12639   6.072   2.497   4.629  0.1286 -0.3196  0.0158
10490W        W12640  27.217   3.698  16.756 -0.2074 -0.1849 -0.0086
10491W        W12641   3.341   7.463   3.401 -0.2598 -0.3385 -0.3157
10492W        W12642  23.086   6.677  16.770  0.0913  0.0548  0.0409
10493W        W12643   2.105   5.254   2.095 -0.3367 -0.0621 -0.1624
10494W        W12644  10.418   0.136   0.204  0.0168  0.2335 -0.3980
10495W        W12645  17.162   4.841  17.368  0.1612  0.4026 -0.1020
10496W        W12646   0.149   2.788  18.493  0.1179 -0.2205 -0.1708
10497W        W12647  18.534   4.250  19.370  0.0145 -0.0636  0.0047
10498W        W12648  21.956   2.829  22.976  0.2296 -0.1349 -0.1041
10499W        W12649  21.054   1.114  18.470  0.0946 -0.1910  0.0686
10500W        W12650   6.425   3.390  22.865 -0.1266  0.1442  0.1988
10501W        W12651  23.389   2.468   7.876  0.1125 -0.1270 -0.1887
10502W        W12652  18.045   4.639   7.327 -0.2000 -0.4110  0.2333
10503W        W12653   1.048   7.691   7.485  0.0747  0.2159 -0.2192
10504W        W12654  29.196   2.098   0.617  0.3111  0.0959  0.0558
10505W        W12655  14.401   1.118   7.487 -0.1397 -0.0213 -0.0333
10506W        W12656  30.594   7.653  25.912  0.1027  0.0577  0.2870
10507W        W12657  13.888   2.231   9.068  0.0570 -0.3338  0.1743
10508W        W12658   1.388   3.971  16.718  0.0596 -0.1232  0.2340
10509W        W12659   8.261   1.636  17.311 -0.1602  0.0004 -0.1464
10510W        W12660   2.481   6.312  19.650  0.3164 -0.0947  0.0674
10511W        W12661  17.333   0.825   6.249 -0.0508  0.0136 -0.1069
10512W        W12662  30.478   1.780  21.755 -0.3060  0.0620 -0.0253
10513W        W12663   2.294   3.536  10.179  0.0229 -0.3069  0.1114
10514W        W12664  10.333   0.123  25.475 -0.2420 -0.2063  0.0631
10515W        W12665  10.375   0.111  10.224 -0.1094  0.0021 -0.1605
10516W        W12666  26.447   2.614  22.097 -0.0580 -0.1180 -0.1836
10517W        W12667  25.814   0.619   8.632 -0.1297  0.3118 -0.0521
10518W        W12668  16.061   1.621   7.035 -0.1690 -0.0132  0.0060
10519W        W12669  16.624   4.728  10.788  0.1239 -0.0846  0.1401
10520W        W12670  26.698   4.759  25.702  0.0451  0.0448 -0.1604
10521W        W12671  12.637   2.739  19.181 -0.2518 -0.0373 -0.1821
10522W        W12672   5.883   0.853  25.819  0.2765 -0.2875  0.1121
10523W        W12673  29.363   5.383  16.916 -0.0061  0.1172  0.1061
10524W        W12674  21.296   2.922   7.298 -0.0226 -0.0453  0.0101
10525W        W12675  26.803   0.362  11.171 -0.0305  0.0166 -0.1613
10526W        W12676  14.861   5.841   2.839 -0.0767  0.1587 -0.0039
10527W        W12677   4.516   7.639  15.873 -0.0256 -0.1430  0.0584
10528W        W12678   7.629   5.237  22.673 -0.4678 -0.2324  0.2346
10529W        W12679   7.621   5.395   5.220  0.1266 -0.1589  0.2165
10530W        W12680  19.816   5.941   4.457  0.2729  0.4291 -0.1948
10531W        W12681  28.111   3.806   0.939  0.3141 -0.1712 -0.1181
10532W        W12682  13.717   4.753  10.172  0.1001 -0.1670  0.0296
10533W        W12683   5.321   1.447  20.317 -0.0619 -0.2684  0.0624
10534W        W12684   8.357   6.853   1.940  0.1151 -0.1293 -0.2684
10535W        W12685  28.469   2.786  21.981  0.0512 -0.0852  0.1650
10536W        W12686  30.117   4.556  25.799  0.0861  0.1740 -0.0403
10537W        W12687   2.841   3.710   7.514 -0.1201 -0.1727 -0.3287
10538W        W12688   7.957   0.972  16.977  0.1431  0.3912  0.1427
10539W        W12689  18.245   3.515   3.671  0.1207  0.0807 -0.0206
10540W        W12690  11.760   4.983  24.952 -0.0976 -0.5200 -0.1260
10541W        W12691   2.890   4.503  21.660 -0.0158 -0.1966 -0.1511
10542W        W12692  25.634   7.668   8.113  0.2981 -0.2190  0.0177
10543W        W12693  22.820   2.487   5.720  0.0540  0.0531 -0.1402
10544W        W12694  29.710   6.822   6.683  0.0245 -0.2747 -0.0777
10545W        W12695   5.576   2.658  21.540 -0.0008 -0.1655 -0.2546
10546W        W12696  24.329   3.703   8.990  0.0881  0.1072 -0.2574
10547W        W12697  13.494   7.471   1.637  0.2016  0.2792 -0.0096
10548W        W12698  18.595   0.491   7.720  0.0382 -0.0988 -0.3470
10549W        W12699  29.427   6.137  17.875 -0.1743  0.1294  0.1058
10550W        W12700  17.966   5.703  19.219 -0.0942 -0.1669 -0.0275
10551W        W12701  17.193   6.287  24.158 -0.1694 -0.1660 -0.0571
10552W        W12702  15.234   5.403  25.337  0.0483  0.1268  0.3770
10553W        W12703  28.100   3.401  24.207  0.0474 -0.1258  0.1256
10554W        W12704  27.017   0.928   8.099 -0.2025 -0.0224  0.2241
10555W        W12705  28.561   3.376   9.422 -0.1172  0.1577  0.0026
10556W        W12706  21.765   0.700  18.594 -0.1667  0.2421  0.2938
10557W        W12707  31.122   7.485  24.676 -0.0137  0.2893  0.1433
10558W        W12708  12.476   7.736  22.502  0.1126 -0.2332  0.0610
10559W        W12709  23.452   4.048   7.486 -0.0382  0.0333  0.4092
10560W        W12710  24.965   2.352   2.250 -0.0139  0.1433 -0.0075
10561W        W12711  23.566   0.508  17.007 -0.1241  0.0303  0.1742
10562W        W12712   4.744   1.365  21.651 -0.3535 -0.2420  0.1120
10563W        W12713   2.451   5.882   3.850  0.1621 -0.2093 -0.1506
10564W        W12714   9.948   1.794  22.642  0.0115 -0.1408  0.0681
10565W        W12715  27.676   2.275  15.308 -0.0476  0.1092 -0.0512
10566W        W12716   8.821   1.152  17.819  0.3931  0.0205 -0.3424
10567W        W12717   7.733   6.406  17.708 -0.3290  0.0892  0.0320
10568W        W12718  12.364   4.632  18.933  0.3107  0.0468  0.0131
10569W        W12719   1.079   1.720   8.597  0.1246  0.1220  0.1007
10570W        W12720  20.153   3.633  25.241  0.0338  0.0223 -0.0918
10571W        W12721  16.234   6.224   0.681 -0.1464 -0.0450 -0.1533
10572W        W12722  14.366   7.319  14.961 -0.0947 -0.1300 -0.0445
10573W        W12723  31.009   4.172   2.301 -0.0920  0.0559  0.0079
10574W        W12724   5.848   2.010   3.446 -0.0818 -0.2033  0.1731
10575W        W12725  17.675   7.368  22.296 -0.1248 -0.2192  0.2069
10576W        W12726  16.178   7.153  19.125  0.0912 -0.0102 -0.1773
10577W        W12727   7.820   5.366  11.624  0.2870 -0.1212  0.0546
10578W        W12728   1.849   1.888  26.327 -0.1008 -0.1994  0.0884
10579W        W12729   2.263   1.237  21.079  0.1743 -0.2322 -0.1995
10580W        W12730  22.598   0.227   2.527  0.0724 -0.0850  0.0525
10581W        W12731  23.611   6.654  25.871  0.1918  0.0396  0.1702
10582W        W12732  14.622   6.119  25.485  0.1389 -0.1822  0.0013
10583W        W12733  27.077   3.382   9.159 -0.0055 -0.0483 -0.1991
10584W        W12734   6.178   3.998  20.435  0.0080  0.0399 -0.2386
10585W        W12735  23.862   0.688   1.307 -0.0754  0.1608 -0.0315
10586W        W12736  29.937   5.424  10.841 -0.3280 -0.0407  0.3600
10587W        W12737   6.076   7.416  18.806 -0.0882 -0.0417 -0.0351
10588W        W12738  27.299   2.214   7.024  0.1545 -0.3458 -0.0641
10589W        W12739  13.435   5.321  10.757  0.2839 -0.0915  0.4402
10590W        W12740   0.754   7.476   0.833 -0.1163 -0.0286  0.0585
10591W        W12741  26.524   6.119  23.727  0.0929 -0.1600  0.0653
10592W        W12742  30.674   5.034  15.784  0.3804  0.2292 -0.1746
10593W        W12743  25.135   6.904   3.452  0.3035 -0.1110 -0.1211
10594W        W12744  16.756   2.947  15.493  0.1961  0.1977  0.1963
10595W        W12745   4.944   6.124   0.335 -0.0255  0.3447  0.0603
10596W        W12746  15.918   5.294  17.381  0.0420  0.2615  0.1190
10597W        W12747   4.405   5.963  23.927 -0.3087  0.0686  0.0477
10598W        W12748  14.547   1.146  20.513  0.0232  0.1473  0.2415
10599W        W12749  29.987   6.992   6.269 -0.0442 -0.2408 -0.0639
10600W        W12750  25.941   2.910  10.075 -0.0349 -0.3750  0.3230
10601W        W12751  22.784   6.707  19.066 -0.1821 -0.3432  0.0078
10602W        W12752  16.462   0.749  23.743 -0.0429  0.0714  0.2367
10603W        W12753   6.301   4.173  23.274 -0.1351 -0.1649  0.0761
10604W        W12754  26.463   1.048   3.067 -0.0457  0.1416 -0.2203
10605W        W12755  28.291   7.419   5.533 -0.0379 -0.1299  0.1305
10606W        W12756  21.179   6.162   6.357 -0.0752  0.0639 -0.0052
10607W        W12757   3.927   1.211  24.823  0.0850 -0.0881  0.1460
10608W        W12758  14.383   5.743  25.117 -0.0440  0.1412  0.0447
10609W        W12759   9.885   5.673   9.252  0.0578 -0.1485 -0.1546
10610W        W12760  20.526   5.910  21.504 -0.0593  0.1041 -0.0305
10611W        W12761  10.462   4.026   1.671 -0.2225 -0.4116  0.0038
10612W        W12762  10.074   2.108   4.197  0.0743 -0.1896 -0.0998
10613W        W12763   4.185   5.312   8.384 -0.2074  0.1655 -0.1783
10614W        W12764  10.298   2.173  25.502 -0.1811  0.1053 -0.2645
10615W        W12765  31.035   7.258   2.410 -0.2018 -0.0909  0.2539
10616W        W12766  24.932   2.680   8.208 -0.1103  0.3453 -0.2411
10617W        W12767  24.510   4.650  25.398 -0.1564  0.2514  0.1824
10618W        W12768  20.985   2.347  24.690 -0.1064  0.0610 -0.0673
10619W        W12769  29.360   5.387  23.515  0.0673  0.2726  0.0237
10620W        W12770  14.246   7.134   0.794  0.0181 -0.2079  0.0791
10621W        W12771  30.639   5.626  18.315 -0.3124  0.0845 -0.3968
10622W        W12772   9.059   0.814   3.539 -0.1595  0.0306  0.0734
10623W        W12773   8.421   4.360  21.960  0.2481 -0.1528 -0.1254
10624W        W12774  19.643   2.570  18.849 -0.0353 -0.0286  0.0289
10625W        W12775  15.631   6.360  25.607 -0.0181  0.0548 -0.2025
10626W        W12776  23.810   5.917   5.152 -0.0267 -0.0687 -0.1112
10627W        W12777  14.682   4.102   6.284 -0.0493  0.1446  0.0619
10628W        W12778  11.159   0.907  25.604  0.2340 -0.0691 -0.0638
10629W        W12779  22.445   0.267   6.877  0.1873 -0.2579  0.1378
10630W        W12780  10.701   7.321   8.849 -0.0714 -0.2384 -0.2093
10631W        W12781  21.617   2.984   2.315 -0.2429 -0.1201  0.2273
10632W        W12782   6.515   2.774   9.383  0.0551 -0.4176 -0.1361
10633W        W12783  24.439   6.010   5.880  0.2802  0.3300  0.2334
10634W        W12784  16.816   1.659   6.233  0.0682  0.4114 -0.1339
10635W        W12785  29.479   5.848  24.066 -0.2169 -0.2091 -0.2187
10636W        W12786  12.217   4.225   8.109 -0.2675 -0.5445  0.2666
10637W        W12787  19.190   6.497  16.330  0.1026  0.0564  0.3617
10638W        W12788   1.752   6.398  16.199  0.3492  0.0191  0.0820
10639W        W12789  11.304   2.611   3.961  0.1379  0.0561 -0.1889
10640W        W12790   5.583   5.394   3.089  0.0676 -0.0644 -0.4188
10641W        W12791   4.454   7.638  21.551 -0.2776 -0.0391 -0.0517
10642W        W12792  11.492   7.005   1.905  0.0237 -0.0125  0.1402
10643W        W12793  27.724   4.791   1.206 -0.2928  0.0730 -0.1884
10644W        W12794  22.958   7.386  21.543 -0.1328  0.1589 -0.1418
10645W        W12795  13.599   5.425  18.050  0.2033 -0.3083 -0.1073
10646W        W12796   7.865   5.334   6.494  0.0216  0.0138  0.1991
10647W        W12797  21.845   4.117   8.402 -0.0732 -0.0136 -0.0527
10648W        W12798  14.253   0.143   6.065  0.2656 -0.3574 -0.3200
10649W        W12799  18.631   3.542  16.581  0.1319 -0.2308  0.2466
10650W        W12800   6.438   2.663  19.390 -0.1825 -0.1322 -0.2260
10651W        W12801  20.274   4.216  19.505  0.1316 -0.0941 -0.0696
10652W        W12802   2.882   0.493  20.769 -0.0464 -0.0450  0.0130
10653W        W12803  13.596   4.282  14.922  0.1725 -0.1542 -0.2039
10654W        W12804   8.700   4.669  18.250  0.3577 -0.2550 -0.0828
10655W        W12805  28.193   0.538  21.392  0.1760  0.1895  0.0541
10656W        W12806  22.918   0.076   2.150 -0.0167  0.0288  0.0434
10657W        W12807  10.314   4.203  24.723 -0.0447  0.3387  0.1476
10658W        W12808   9.161   4.268  17.217  0.2534 -0.0713 -0.1985
10659W        W12809  10.688   3.185   6.930 -0.2862  0.1158 -0.1880
10660W        W12810   8.994   7.028  26.267 -0.3258  0.1174 -0.0974
10661W        W12811   8.080   1.051   3.713 -0.0029 -0.2557 -0.0801
10662W        W12812  19.511   7.681  22.427  0.1388 -0.1476 -0.0022
10663W        W12813   3.537   4.729  24.337  0.3303  0.2078 -0.3765
10664W        W12814  15.966   6.991  21.968  0.2483 -0.2844 -0.0950
10665W        W12815  25.525   2.090  25.246 -0.0337  0.2060  0.1450
10666W        W12816  20.801   2.174  23.065 -0.4656 -0.0789  0.2924
10667W        W12817  28.336   2.438   8.569  0.0371  0.0118  0.1241
10668W        W12818  30.099   6.153  17.101  0.1318 -0.0536  0.0223
10669W        W12819   7.232   7.087  17.733 -0.0489  0.3087 -0.1613
10670W        W12820   9.120   6.766   1.148  0.0121  0.0221  0.0652
10671W        W12821  12.144   0.975  16.112  0.0114  0.1135  0.1985
10672W        W12822  29.118   7.019   1.700  0.0136  0.0882 -0.1059
10673W        W12823   3.287   3.419   7.469 -0.0935  0.1509 -0.2022
10674W        W12824  24.911   1.082  15.974 -0.3628  0.1569  0.1347
10675W        W12825  10.835   3.271   3.226  0.1115 -0.0707 -0.0552
10676W        W12826  19.667   4.928   8.671  0.3679 -0.3127  0.1484
10677W        W12827   4.954   1.776  25.520 -0.2821 -0.0400  0.0456
10678W        W12828   7.155   1.679   7.581 -0.0696  0.1784  0.0489
10679W        W12829  20.969   4.212  20.133  0.0696 -0.2209  0.1410
10680W        W12830   0.321   2.648  22.270  0.1258  0.1328 -0.1103
10681W        W12831   1.235   5.221  22.357  0.0320  0.0691  0.4911
10682W        W12832   6.803   3.809   3.432 -0.3758 -0.1655 -0.0904
10683W        W12833   7.968   3.829  10.087  0.0083  0.0089 -0.0992
10684W        W12834  27.407   1.790   3.750  0.0594  0.0794  0.1078
10685W        W12835  30.555   6.629  21.190  0.1462  0.2035 -0.1553
10686W        W12836   6.443   0.835   0.223 -0.2146  0.0437  0.2328
10687W        W12837   4.933   0.180   2.645 -0.0309  0.0876  0.0801
10688W        W12838   3.893   0.038  11.085  0.0225  0.3514 -0.2267
10689W        W12839   1.379   7.101   1.127  0.0941 -0.0578  0.0297
10690W        W12840  11.468   0.476   9.095 -0.0594 -0.2219  0.2732
10691W        W12841  17.610   5.598   2.621  0.0747  0.0456  0.4884
10692W        W12842  19.135   1.245  20.424  0.0190 -0.0755 -0.0142
10693W        W12843  25.962   4.306  25.487 -0.1591  0.1052  0.3787
10694W        W12844   6.657   3.002  22.098  0.3749 -0.1935  0.2548
10695W        W12845  18.164   2.710   1.036 -0.1151 -0.1217 -0.0892
10696W        W12846  20.838   4.465  11.176 -0.0936  0.2286  0.1008
10697W        W12847  21.962   4.330   6.581  0.1769  0.3066 -0.2498
10698W        W12848  23.200   3.895   3.885  0.0941 -0.1904  0.2190
10699W        W12849  11.095   2.913   6.603 -0.1418 -0.1707  0.1024
10700W        W12850  14.363   5.104  23.928  0.1790  0.4831 -0.0179
10701W        W12851   2.006   7.589  17.769 -0.3777 -0.0315  0.2006
10702W        W12852   0.255   7.464   2.475 -0.1445  0.1637 -0.1288
10703W        W12853  23.193   3.606   5.612 -0.1143 -0.1061  0.0703
10704W        W12854  30.745   0.670   5.322 -0.3944  0.4623 -0.1327
10705W        W12855   2.460   7.118   4.833  0.0254  0.1470 -0.1768
10706W        W12856  30.581   6.855  20.516 -0.2280 -0.1018  0.0314
10707W        W12857   0.167   4.506   5.670 -0.0000  0.3093  0.0083
10708W        W12858  14.201   4.776  24.372 -0.4330 -0.0990 -0.2145
10709W        W12859  31.099   3.622  10.492  0.0884  0.2221  0.1353
10710W        W12860  10.381   0.772   2.574 -0.1603 -0.1388 -0.0513
10711W        W12861  22.538   4.893   7.237 -0.0181 -0.0508 -0.2390
10712W        W12862   5.667   6.523  22.330 -0.0139 -0.1469  0.4353
10713W        W12863  27.397   7.787  16.720 -0.0465  0.0786 -0.0801
10714W        W12864   2.103   3.114  22.101  0.3579  0.2483  0.2119
10715W        W12865  13.905   3.180  15.151 -0.0848  0.0358  0.3315
10716W        W12866  30.918   3.714  18.748 -0.0981  0.4060 -0.2188
10717W        W12867  18.788   5.177  23.972 -0.0899 -0.1713  0.3351
10718W        W12868   2.665   0.943  15.504  0.0613  0.0705  0.1026
10719W        W12869  28.057   6.448   5.838  0.0975  0.1655 -0.0828
10720W        W12870  11.327   5.159   7.778  0.0013  0.0463  0.0461
10721W        W12871  21.652   3.193  26.173 -0.2948  0.0280 -0.1266
10722W        W12872  22.980   0.707  18.214 -0.1777 -0.0413 -0.1656
10723W        W12873   3.249   0.996  21.101  0.0584 -0.0818  0.1276
10724W        W12874  14.012   6.289  22.379  0.1694  0.0059  0.0020
10725W        W12875  12.857   3.599   4.855  0.2821  0.0291  0.3071
10726W        W12876   7.527   0.964   9.004  0.0832  0.1608  0.3035
10727W        W12877   2.089   1.108  21.880  0.1360  0.1496 -0.3783
10728W        W12878  14.338   1.955  22.179  0.1242 -0.0477 -0.2554
10729W        W12879   2.629   1.912  15.176  0.0468  0.3745 -0.1263
10730W        W12880  29.985   6.706   8.284  0.1215 -0.0854  0.2562
10731W        W12881  26.373   5.228  19.369  0.0092  0.2830 -0.0009
10732W        W12882  18.576   7.313   8.865 -0.1710  0.3947  0.2426
10733W        W12883   4.342   5.450   0.492 -0.3048  0.0013  0.2112
10734W        W12884  28.342   7.539  10.149  0.0751  0.1419  0.4186
10735W        W12885   0.751   0.222   2.094  0.1827 -0.1376  0.2846
10736W        W12886  28.516   0.056  20.749  0.0422 -0.2404  0.0550
10737W        W12887   8.246   0.748   5.894 -0.3257  0.0027 -0.2294
10738W        W12888  30.971   6.537  20.226 -0.0577  0.2334 -0.0768
10739W        W12889  10.759   6.316   0.724  0.1846  0.0814 -0.1969
10740W        W12890  12.417   1.344   9.664 -0.3322 -0.1924  0.0159
10741W        W12891  23.014   4.367   9.719  0.0718  0.4859 -0.0821
10742W        W12892  26.083   6.232   8.221 -0.0296  0.1477 -0.1003
10743W        W12893  26.334   1.198  19.804 -0.2224  0.3362  0.0436
10744W        W12894  26.252   5.768  24.502 -0.1021 -0.1329 -0.3840
10745W        W12895  13.929   4.093  21.056 -0.3827  0.1806  0.1402
10746W        W12896  25.082   7.488  16.527 -0.2021  0.3564 -0.1075
10747W        W12897   6.003   5.454   9.574  0.1695 -0.0167  0.1209
10748W        W12898  17.424   1.462  19.745 -0.0138 -0.2241 -0.3963
10749W        W12899  21.598   0.366  10.360  0.1217  0.2552  0.1789
10750W        W12900  13.960   6.434  19.872 -0.0952  0.4075 -0.0524
10751W        W12901   3.902   2.951   8.640 -0.0050 -0.2203 -0.2081
10752W        W12902   2.796   2.563  19.791  0.1240  0.1196 -0.1515
10753W        W12903  27.652   5.446   9.269 -0.0040  0.1158  0.0525
10754W        W12904   8.739   3.108   3.935  0.0787 -0.1080  0.0799
10755W        W12905   9.752   3.054  21.030 -0.2448 -0.0635  0.1011
10756W        W12906  25.839   1.252   2.602 -0.0012  0.0683 -0.1223
10757W        W12907  16.701   4.046   6.849 -0.0888  0.0489  0.0681
10758W        W12908  17.575   5.304   8.226 -0.3970  0.1429  0.1007
10759W        W12909  25.466   7.021  23.714 -0.0708  0.1267 -0.0496
10760W        W12910  14.323   4.125  21.847  0.0235 -0.2053 -0.1569
10761W        W12911  13.199   1.377  11.224 -0.1206 -0.0605  0.0764
10762W        W12912   2.757   5.432  24.860  0.0360 -0.1090 -0.2736
10763W        W12913  17.657   6.035  22.177  0.2211 -0.3183  0.3498
10764W        W12914  20.263   5.947   0.272  0.1971 -0.1107 -0.0362
10765W        W12915  17.205   2.897   7.746 -0.6188  0.1214 -0.0344
10766W        W12916  23.542   3.417  23.773 -0.0211 -0.2332 -0.0400
10767W        W12917   5.191   1.003  22.469 -0.0241 -0.0085  0.2846
10768W        W12918  23.811   2.466  20.237 -0.1390  0.0832  0.0527
10769W        W12919   8.177   5.070  19.881 -0.1347  0.3954 -0.0447
10770W        W12920   7.983   5.016   2.409  0.2588  0.2047  0.0260
10771W        W12921  19.188   3.909  23.233 -0.1028 -0.0071 -0.1563
10772W        W12922   6.224   6.852   5.833 -0.0573  0.0094  0.0582
10773W        W12923  13.418   3.992  20.369 -0.1195 -0.2478 -0.1186
10774W        W12924  18.388   5.735  22.981  0.2353  0.1307 -0.1523
10775W        W12925  11.009   0.786  21.646 -0.1499 -0.3027 -0.1914
10776W        W12926   5.734   6.484  20.943  0.0083 -0.2867 -0.1039
10777W        W12927  22.638   5.641  24.365  0.0959 -0.1525  0.0420
10778W        W12928  21.629   1.863  17.833 -0.0337  0.0248 -0.1549
10779W        W12929  10.056   5.640   0.340  0.0596  0.0442  0.2364
10780W        W12930   8.626   3.757   5.391 -0.1359  0.0746 -0.0807
10781W        W12931  12.909   6.848  20.841  0.1299  0.1819  0.0218
10782W        W12932  24.256   4.135  20.942  0.0883 -0.1971 -0.2550
10783W        W12933  18.822   2.884   9.196  0.0624  0.3959  0.3390
10784W        W12934  12.753   7.670   6.526  0.1061 -0.0312  0.0532
10785W        W12935  11.907   7.449  16.762  0.2753  0.0279  0.0477
10786W        W12936   6.158   6.518  20.167  0.0130 -0.3692 -0.1240
10787W        W12937  28.760   2.648   7.637 -0.1749 -0.0745  0.2132
10788W        W12938  28.770   7.429  26.340  0.0128 -0.0366  0.0132
10789W        W12939   4.188   6.611   1.933 -0.0627  0.1536 -0.1889
10790W        W12940  28.939   4.441  19.582  0.2263 -0.1426  0.0885
10791W        W12941  19.316   3.749  16.084  0.3738  0.0931  0.1090
10792W        W12942  11.693   7.697   3.642  0.2487 -0.1612 -0.3605
10793W        W12943  19.602   1.898   5.090 -0.1623 -0.1662 -0.0912
10794W        W12944  26.902   6.979   9.913  0.0146 -0.0856 -0.0932
10795W        W12945  17.897   2.189  24.201 -0.0208 -0.1386  0.1642
10796W        W12946   8.185   3.859   5.181  0.0883  0.0986 -0.1588
10797W        W12947  12.029   7.703  25.029  0.0988  0.0701 -0.0931
10798W        W12948  10.016   6.064   0.072  0.2241 -0.1075  0.1556
10799W        W12949  15.387   0.062   8.115  0.0191  0.0990 -0.0375
10800W        W12950   1.450   6.864  24.669 -0.0216 -0.1655 -0.1921
10801W        W12951  14.861   4.291   7.354 -0.2897 -0.1607 -0.1302
10802W        W12952   9.570   4.823  18.804 -0.2451  0.1248  0.2176
10803W        W12953  15.359   6.200   4.729  0.0043  0.0648  0.0620
10804W        W12954  23.077   4.172   7.800  0.0641 -0.3980  0.0708
10805W        W12955  29.563   3.161  16.567  0.1629 -0.3803 -0.3935
10806W        W12956  24.236   7.300  25.103 -0.0041 -0.3840 -0.0003
10807W        W12957   2.407   3.189  17.005 -0.2430 -0.2662 -0.0642
10808W        W12958  16.958   0.240  25.816  0.2547  0.3148 -0.0116
10809W        W12959  12.811   1.987   2.940  0.1785 -0.0308  0.1984
10810W        W12960   5.375   5.502  23.947  0.1805 -0.0030  0.0526
10811W        W12961  24.371   2.351   0.435 -0.2492  0.1238  0.2048
10812W        W12962  27.053   5.423  19.614 -0.0348 -0.2257  0.0929
10813W        W12963   1.845   7.638  20.575  0.0659 -0.0850  0.2075
10814W        W12964  14.006   5.143   3.459 -0.0819  0.4555 -0.1253
10815W        W12965  25.033   0.469  10.115 -0.1438  0.2109  0.1846
10816W        W12966  18.499   1.801  23.599  0.1677 -0.0715  0.1883
10817W        W12967  28.029   7.091   1.183 -0.2233 -0.0478 -0.0202
10818W        W12968   6.431   3.832   5.858  0.0050 -0.1741 -0.0263
10819W        W12969  27.763   4.448   0.530  0.1696  0.0457 -0.0397
10820W        W12970  12.894   4.863  25.854 -0.1501  0.1840  0.0384
10821W        W12971   4.850   7.455  25.307  0.1084  0.2164 -0.1120
10822W        W12972  23.443   6.844   5.207 -0.0694  0.2184  0.0664
10823W        W12973  13.517   1.439  20.151  0.0558 -0.3444  0.1154
10824W        W12974  18.925   1.956  20.264 -0.1392 -0.2833 -0.2296
10825W        W12975   1.791   2.529   1.453  0.0727  0.0642  0.0125
10826W        W12976  14.731   0.648  18.262  0.1851 -0.2323  0.2344
10827W        W12977  11.840   0.169   9.024 -0.2551 -0.1530 -0.0686
10828W        W12978  21.957   0.111   0.272 -0.4141  0.1298  0.2540
10829W        W12979  12.550   4.887  23.835  0.0413 -0.0131  0.0294
10830W        W12980   8.750   1.726   9.903  0.1232  0.0866  0.3750
10831W        W12981  30.590   6.124  18.234  0.0211 -0.2766 -0.1535
10832W        W12982  19.349   4.932  18.716 -0.0036  0.0193  0.0588
10833W        W12983  21.774   5.625   4.550  0.1452 -0.0522 -0.2732
10834W        W12984   1.933   1.397   7.435 -0.4025 -0.3675 -0.2731
10835W        W12985   7.448   5.935   8.210  0.2890 -0.0027  0.2598
10836W        W12986  26.213   2.911   2.626 -0.0569 -0.1019  0.1595
10837W        W12987   9.913   1.552  21.678 -0.2950  0.0407  0.0376
10838W        W12988  30.498   6.015  15.929 -0.0870  0.0954  0.0304
10839W        W12989  20.124   2.109   2.254 -0.3087 -0.1645  0.0724
10840W        W12990  18.598   1.089  25.776  0.0142  0.0987  0.2354
10841W        W12991  25.915   5.721  24.861  0.0528  0.4872  0.0707
10842W        W12992  21.076   0.717   5.891  0.0081  0.1760  0.0228
10843W        W12993  18.446   1.068  26.271 -0.2093  0.0125 -0.2347
10844W        W12994   6.293   3.094  20.295 -0.1478 -0.1279 -0.1182
10845W        W12995   7.646   0.866  21.842  0.2450 -0.0627  0.0984
10846W        W12996  30.132   1.515  16.208 -0.1195 -0.1110 -0.3985
10847W        W12997  17.601   1.714   1.095 -0.1078 -0.0668 -0.1213
10848W        W12998  20.772   4.094   0.978 -0.1940  0.1733 -0.1215
10849W        W12999  18.949   4.016  20.877  0.0458  0.1237 -0.2160
10850W        W13000  22.728   3.189  10.488 -0.1876  0.0332  0.0289
10851W        W13001  15.013   6.231  23.213  0.0511  0.0770 -0.2566
10852W        W13002   9.492   4.134  17.978 -0.0528  0.2750 -0.1826
10853W        W13003  29.102   3.138  25.963 -0.0833 -0.1096 -0.0459
10854W        W13004   0.536   4.118  23.165 -0.0504 -0.0273 -0.1256
10855W        W13005   8.954   1.267   0.459 -0.1388 -0.1588  0.0951
10856W        W13006   3.608   3.779  16.707  0.0076  0.3808 -0.0633
10857W        W13007   2.294   5.776  10.583  0.1565  0.0291 -0.1666
10858W        W13008   3.536   1.457   2.956 -0.2432  0.0184 -0.0583
10859W        W13009  18.707   2.828  25.923 -0.0913 -0.0302 -0.1766
10860W        W13010  15.783   2.157   7.288 -0.2922  0.2536  0.0802
10861W        W13011  20.188   3.141   7.948  0.1096  0.0262  0.1034
10862W        W13012   3.654   2.056  19.757 -0.0007  0.2978  0.1930
10863W        W13013   8.618   2.710  25.413 -0.0801  0.0219 -0.0319
10864W        W13014  10.169   3.724  16.307  0.0863  0.2082  0.2124
10865W        W13015   3.312   6.898   1.618  0.1629 -0.3017 -0.0639
10866W        W13016  10.134   4.593  17.716  0.1533  0.1470  0.1782
10867W        W13017   6.122   0.040  24.090 -0.2496 -0.1604 -0.1372
10868W        W13018   0.952   4.024   5.250  0.3160  0.0588  0.1612
10869W        W13019  14.073   6.666  22.836 -0.0006 -0.1709 -0.0725
10870W        W13020  14.876   0.379  20.528  0.2080 -0.1650  0.1697
10871W        W13021  16.307   7.775  26.004  0.2348  0.1061 -0.1792
10872W        W13022  12.507   0.798   8.733 -0.0417  0.0184  0.3028
10873W        W13023  11.702   6.972   7.681  0.1337 -0.0405  0.0085
10874W        W13024  21.590   0.954   7.536  0.1401 -0.2553 -0.0699
10875W        W13025  23.563   2.845  10.886 -0.0579  0.0102 -0.0826
10876W        W13026   9.163   3.709  21.667 -0.1561 -0.0394 -0.0458
10877W        W13027   0.793   4.913   4.381 -0.0890 -0.1230 -0.0607
10878W        W13028  23.401   2.395  17.033  0.2973  0.1949  0.0406
10879W        W13029  29.128   1.427  10.467 -0.1100  0.1044  0.1843
10880W        W13030  16.198   5.469   6.100  0.0277  0.0366  0.1677
10881W        W13031  12.019   2.913  15.506  0.0181 -0.0477  0.3138
10882W        W13032  31.103   0.225   0.957 -0.1162 -0.2627  0.2038
10883W        W13033  17.341   6.832  19.054 -0.0348 -0.0917  0.2579
10884W        W13034  14.585   4.533  17.372  0.0911  0.0539  0.1012
10885W        W13035   3.757   2.767   1.514  0.1945 -0.1642 -0.0407
10886W        W13036   2.828   1.680  18.838  0.1880 -0.0912 -0.1021
10887W        W13037   8.709   1.985  21.088 -0.0856  0.2326 -0.2308
10888W        W13038  28.191   0.186  24.800 -0.0383 -0.1995  0.1989
10889W        W13039  12.638   0.385  17.384 -0.0011 -0.2108 -0.3704
10890W        W13040   8.413   1.459  20.234  0.1494 -0.1676 -0.0182
10891W        W13041   6.387   0.744  10.023 -0.2073  0.1687 -0.3928
10892W        W13042  23.402   3.679  18.194  0.2664 -0.1396 -0.0408
10893W        W13043  22.203   0.651   8.432  0.0947  0.0309 -0.0122
10894W        W13044  30.696   6.718   3.279  0.2496 -0.0378  0.2953
10895W        W13045  29.504   6.932  18.324 -0.3457 -0.2477  0.1230
10896W        W13046  15.422   4.532  22.721  0.4461  0.2283  0.0171
10897W        W13047   6.744   1.633  25.698 -0.0525 -0.3192 -0.0364
10898W        W13048   9.511   3.937  21.007  0.2617  0.1199  0.2178
10899W        W13049  21.747   1.287  11.451  0.0661 -0.2490  0.0252
10900W        W13050  14.567   0.034   0.419  0.0838 -0.0847 -0.0946
10901W        W13051   3.231   3.168  23.690 -0.1850  0.2850 -0.2149
10902W        W13052   5.086   1.664   8.387  0.0063 -0.0048  0.2164
10903W        W13053  27.614   2.988   7.838 -0.0483  0.0048  0.2385
10904W        W13054  30.756   0.418  23.956 -0.2608 -0.0248 -0.1733
10905W        W13055  29.980   0.445  24.330  0.0355 -0.1517  0.0542
10906W        W13056   3.639   4.752   3.398  0.2755  0.1537 -0.0345
10907W        W13057  26.194   1.607  10.943 -0.2429 -0.1173  0.1645
10908W        W13058   5.964   7.530   8.763  0.0970 -0.0426 -0.1175
10909W        W13059   0.018   3.871   4.969 -0.0602  0.1553 -0.1710
10910W        W13060   3.457   0.174   5.072  0.1537 -0.0192  0.0951
10911W        W13061  11.549   5.674   6.527 -0.2423 -0.1333  0.3231
10912W        W13062  13.598   6.471   9.251 -0.2898 -0.1262  0.1791
10913W        W13063  10.139   6.900   3.405  0.1891 -0.0225  0.2015
10914W        W13064  23.116   1.788   1.330  0.0215 -0.0725  0.0380
10915W        W13065   1.081   1.386  15.807  0.0356 -0.1886 -0.2641
10916W        W13066  18.699   0.176  26.258  0.1260  0.1815 -0.2273
10917W        W13067  29.025   4.795   6.778  0.1383 -0.0531  0.0953
10918W        W13068   3.786   6.730   1.678  0.1110 -0.3577 -0.4748
10919W        W13069  21.101   6.409  17.139  0.0153 -0.1620  0.1179
10920W        W13070  22.470   4.224  26.360 -0.0311 -0.2001  0.1024
10921W        W13071  11.147   2.036  23.563  0.1168 -0.0983 -0.1270
10922W        W13072  22.715   5.302  23.473 -0.0067 -0.0206 -0.0160
10923W        W13073  12.528   0.161  18.899 -0.1082 -0.1921 -0.3271
10924W        W13074  18.999   6.370  19.955 -0.0001 -0.1602  0.3276
10925W        W13075  15.162   4.897  16.838 -0.0885 -0.2397 -0.0699
10926W        W13076  20.001   7.423   6.702  0.1624 -0.0721  0.0992
10927W        W13077   2.430   3.351  23.888  0.0895 -0.1405 -0.0801
10928W        W13078  24.249   7.748  16.263 -0.0813 -0.3593  0.2110
10929W        W13079  20.420   5.108  24.182  0.1811 -0.4468  0.0810
10930W        W13080  20.762   1.736   3.796 -0.0286  0.0904 -0.3580
10931W        W13081  14.379   6.585  14.438  0.2997 -0.1810  0.1003
10932W        W13082  28.078   1.822  20.424 -0.0177  0.1398  0.0946
10933W        W13083   8.873   5.801  19.955  0.2813  0.0968  0.3393
10934W        W13084  29.515   4.400   7.288  0.2533  0.2967  0.1070
10935W        W13085  20.415   4.244   5.750 -0.0776 -0.1027  0.2221
10936W        W13086   7.730   0.717  10.332  0.3199  0.0896 -0.0068
10937W        W13087  15.309   1.133  15.972  0.1243  0.1127 -0.0622
10938W        W13088  28.314   5.623   4.371  0.0241 -0.2467 -0.0663
10939W        W13089  14.426   5.525  16.262  0.1439  0.0086 -0.1665
10940W        W13090  15.424   3.591   7.310  0.2300 -0.2284 -0.1468
10941W        W13091  29.289   5.938   9.278  0.1958  0.0096  0.3743
10942W        W13092  10.846   5.052   2.911  0.0153  0.2125 -0.0245
10943W        W13093  21.572   7.413   2.854 -0.0838 -0.2469  0.1088
10944W        W13094  27.455   3.236  10.735  0.2800  0.0241 -0.0235
10945W        W13095  16.829   0.069  10.423  0.0676  0.0742 -0.0868
10946W        W13096  19.249   0.736  22.709  0.1841  0.0425  0.2860
10947W        W13097   5.364   0.932  16.009 -0.2477  0.0194  0.1861
10948W        W13098  22.461   1.544   5.369 -0.1147  0.0154 -0.0391
10949W        W13099  22.783   3.554  15.647  0.1849 -0.1930  0.1168
10950W        W13100  27.290   7.114   0.888  0.0345 -0.0265 -0.1536
10951W        W13101   0.627   1.278  16.182 -0.1204  0.1718  0.2915
10952W        W13102   9.226   5.623  19.645 -0.0980 -0.2430  0.0247
10953W        W13103  16.171   0.699  15.642  0.0854 -0.0177 -0.1343
10954W        W13104  27.142   2.435   2.559 -0.2635  0.2549  0.0308
10955W        W13105   2.970   2.080  17.059  0.0069  0.1702 -0.0662
10956W        W13106   0.868   1.177  17.777 -0.0866 -0.0727 -0.1702
10957W        W13107  10.390   6.749  21.057 -0.0509 -0.0685 -0.4669
10958W        W13108  26.233   6.335  20.959 -0.0293  0.2108  0.0851
10959W        W13109  19.301   0.310  10.541 -0.1599  0.2037  0.5184
10960W        W13110  26.535   4.045  16.191 -0.0816 -0.2913 -0.1140
10961W        W13111   5.816   7.346  21.190 -0.1871  0.0623  0.4009
10962W        W13112  25.756   4.838   4.867 -0.0161 -0.0304 -0.0923
10963W        W13113  15.286   7.497  21.280 -0.4397 -0.0331 -0.1075
10964W        W13114   0.849   6.377  24.141 -0.3140  0.0303  0.1851
10965W        W13115   3.494   2.592  15.885 -0.1354 -0.0106 -0.2731
10966W        W13116  27.801   0.617   9.159 -0.1612  0.3627  0.0238
10967W        W13117  29.429   4.431  17.452 -0.0864  0.1795 -0.3143
10968W        W13118   6.170   2.134   6.833 -0.0247 -0.1059 -0.0999
10969W        W13119  17.723   0.940  22.768  0.0648  0.2044 -0.2836
10970W        W13120  26.521   2.294  24.948  0.0169 -0.4194 -0.1966
10971W        W13121  15.791   5.146  23.507  0.1055  0.0606 -0.0448
10972W        W13122  19.658   6.863   2.271 -0.0263  0.0828  0.0852
10973W        W13123   9.045   7.453   7.040 -0.0518 -0.0125  0.2399
10974W        W13124  29.206   4.010  16.116  0.3585 -0.0818 -0.0533
10975W        W13125   8.057   1.750  18.338  0.1239  0.2079  0.0967
10976W        W13126   5.306   1.294  17.846 -0.3856 -0.0034  0.1189
10977W        W13127  14.443   4.323   8.216 -0.1792  0.2072  0.0357
10978W        W13128  24.616   7.342  20.135 -0.0918  0.1525 -0.0632
10979W        W13129   3.335   4.644  17.101 -0.0508  0.0438  0.0189
10980W        W13130   8.285   5.101   5.214 -0.0395 -0.0769  0.2221
10981W        W13131  12.040   7.103  20.754  0.2380  0.1831  0.1334
10982W        W13132  30.075   2.429   0.596 -0.0614 -0.1600  0.2290
10983W        W13133  28.011   1.459  20.713 -0.0472  0.1651  0.0333
10984W        W13134   4.461   6.034  20.852  0.2471  0.0542 -0.0270
10985W        W13135  28.916   3.923  26.421 -0.2185  0.1360  0.1872
10986W        W13136  18.976   6.141   9.436  0.0615 -0.1553  0.2636
10987W        W13137  22.406   2.174  17.556 -0.0335 -0.2489 -0.2339
10988W        W13138  18.368   7.224  24.883 -0.1286 -0.0532 -0.0466
10989W        W13139  25.848   1.098   9.986  0.1580 -0.0330 -0.2110
10990W        W13140  19.553   3.599  15.524 -0.1552  0.0383  0.0627
10991W        W13141   2.066   3.065  18.898  0.1918  0.1808  0.1177
10992W        W13142   2.399   1.557   1.435  0.3431 -0.1404  0.2183
10993W        W13143  12.920   3.794   9.107  0.0564  0.0215 -0.3557
10994W        W13144  27.061   5.573   1.121  0.0723 -0.0827 -0.2511
10995W        W13145  10.995   0.285  16.454 -0.1760  0.3767 -0.1065
10996W        W13146  15.509   6.745   1.412 -0.0747  0.1864 -0.1324
10997W        W13147  15.591   2.528   9.115 -0.0321 -0.1295  0.0814
10998W        W13148   4.076   0.287  25.139  0.0608  0.1860 -0.1650
10999W        W13149  31.122   5.352  24.588 -0.0234 -0.1982 -0.0692
11000W        W13150  23.747   4.780  16.115 -0.0460 -0.1739 -0.0556
11001W        W13151  21.720   3.863   0.151  0.0186  0.0373  0.2354
11002W        W13152  10.511   1.564  21.560 -0.0586 -0.1396 -0.1261
11003W        W13153   2.267   3.020   1.282  0.2331  0.0207 -0.2912
11004W        W13154  16.095   2.775  20.147 -0.2897  0.2475 -0.4034
11005W        W13155   2.878   2.301  20.688 -0.1535 -0.0705  0.2492
11006W        W13156  10.463   1.039   9.103 -0.0033  0.0959  0.1019
11007W        W13157  22.509   1.942  20.702  0.0135 -0.0226  0.0144
11008W        W13158   7.203   2.986   3.286 -0.2405  0.0005  0.0405
11009W        W13159  21.582   1.755   9.834 -0.0743 -0.1539 -0.0921
11010W        W13160   3.878   1.822   3.645 -0.0581 -0.3823  0.0498
11011W        W13161  14.117   5.770  22.059 -0.1350  0.0381 -0.1770
11012W        W13162  24.040   5.659  19.330  0.2605  0.3027 -0.0138
11013W        W13163  22.802   0.535  17.625 -0.1400  0.0440  0.0693
11014W        W13164   9.747   3.284  18.313  0.2170  0.0626 -0.0196
11015W        W13165  22.774   2.206   9.298 -0.3787  0.0823 -0.0381
11016W        W13166   6.509   5.068  20.894 -0.0264  0.1901  0.0949
11017W        W13167  23.030   7.721  16.066 -0.0553 -0.0770  0.0640
11018W        W13168  16.533   0.849  21.159  0.0460 -0.1197  0.0922
11019W        W13169  10.856   4.791   0.691  0.2039 -0.0978  0.2567
11020W        W13170   3.185   5.386  22.867  0.3163  0.3772 -0.0203
11021W        W13171   9.548   5.515   8.810  0.0500  0.0121  0.0264
11022W        W13172  11.576   6.281   9.076  0.2227  0.2674  0.2397
11023W        W13173  21.177   4.001  18.945 -0.0072  0.1823  0.2476
11024W        W13174   8.945   2.266  25.851  0.0570 -0.2355  0.1296
11025W        W13175  29.853   1.449   4.577 -0.2062 -0.1594 -0.0593
11026W        W13176   0.532   2.635  21.189  0.2728  0.0041 -0.0819
11027W        W13177  11.141   6.166  23.425  0.0911  0.0522  0.1823
11028W        W13178   6.590   6.860   4.092 -0.0641 -0.4301 -0.2029
11029W        W13179   4.294   2.875   8.897 -0.1935 -0.3194 -0.2579
11030W        W13180  10.381   6.230   6.922  0.3007 -0.0558 -0.3842
11031W        W13181  14.903   0.693   3.720  0.0114 -0.1469  0.2687
11032W        W13182   4.621   5.509   0.922  0.0637  0.1462  0.1132
11033W        W13183  20.149   0.049   6.972 -0.1259  0.2823  0.0879
11034W        W13184  19.876   5.973   7.895 -0.0066 -0.1438  0.1537
11035W        W13185  11.949   6.607  25.705 -0.0893 -0.2584 -0.1215
11036W        W13186  27.137   6.611  23.875 -0.0633 -0.0538 -0.1503
11037W        W13187   1.264   0.129  19.922  0.2085  0.0963 -0.3744
11038W        W13188  19.270   1.983  24.449  0.1295 -0.0332 -0.1711
11039W        W13189   2.352   2.758  19.657  0.1942 -0.3717 -0.1146
11040W        W13190  15.521   3.888   2.994  0.1648 -0.0781  0.2188
11041W        W13191   6.967   2.973   2.382 -0.2264 -0.0048 -0.1123
11042W        W13192   9.608   7.585   0.106 -0.2430  0.2244 -0.0241
11043W        W13193  27.756   0.690  16.012 -0.0717  0.0149 -0.2352
11044W        W13194  14.873   6.276  16.061  0.1184  0.0971 -0.1065
11045W        W13195  18.382   3.437   3.179  0.1167 -0.2343  0.3180
11046W        W13196  11.556   7.516   4.426  0.0693 -0.0056 -0.3846
11047W        W13197  10.404   3.202  24.898 -0.0410  0.1289  0.1571
11048W        W13198   4.912   6.938   9.207 -0.2144  0.3731  0.0023
11049W        W13199  16.606   2.659  15.890  0.0753  0.3587  0.1076
11050W        W13200   7.696   4.452   3.847 -0.0963  0.0671  0.0255
11051W        W13201  15.338   0.455  22.530 -0.2616  0.0984 -0.1142
11052W        W13202   8.260   2.299  26.335  0.1241  0.2021 -0.1729
11053W        W13203  29.426   2.389  21.608 -0.1438 -0.2482 -0.0576
11054W        W13204   3.145   3.906  20.669 -0.0650  0.2061  0.0462
11055W        W13205   4.629   3.402   3.613  0.1770  0.2281  0.0115
11056W        W13206  29.754   2.567  22.187  0.2627 -0.0879  0.1554
11057W        W13207   2.818   5.712   5.017  0.3302  0.0081  0.1137
11058W        W13208  17.075   7.039   7.802 -0.2396  0.2074 -0.1280
11059W        W13209  25.568   3.398   0.466 -0.4255  0.1103 -0.2352
11060W        W13210  18.808   3.509   2.190 -0.2007  0.0511  0.0205
11061W        W13211  22.976   2.249   1.461  0.2333  0.1407 -0.0654
11062W        W13212  11.121   3.113   5.616 -0.0526  0.2109  0.2845
11063W        W13213   1.376   6.128  16.463  0.0546  0.0469 -0.0123
11064W        W13214  18.453   4.184  25.824 -0.0492 -0.0299  0.2067
11065W        W13215  15.244   5.826   1.235 -0.3142  0.1013  0.0828
11066W        W13216   2.156   3.921   2.364  0.1426 -0.0717 -0.2219
11067W        W13217  16.352   7.755  23.405  0.0473  0.2040  0.1008
11068W        W13218  10.901   2.669  21.963  0.0748  0.0004  0.1226
11069W        W13219   3.774   3.165  16.525  0.0888  0.1930 -0.0812
11070W        W13220   7.206   3.942   0.067  0.0355  0.1049 -0.2051
11071W        W13221  28.031   1.545   7.907 -0.1787 -0.0928 -0.1107
11072W        W13222   6.523   6.138  15.693 -0.0484  0.0906  0.0774
11073W        W13223   0.607   3.397   8.300 -0.4789  0.3548  0.0997
11074W        W13224  12.300   3.532   2.375 -0.1696 -0.0799 -0.1090
11075W        W13225   0.805   3.411  20.671  0.1223  0.0287  0.1292
11076W        W13226   3.972   2.393   6.054 -0.1018  0.0319 -0.0706
11077W        W13227  25.546   6.918   7.508 -0.1098  0.0509  0.0939
11078W        W13228  12.533   1.891  24.226  0.0809 -0.2305  0.3045
11079W        W13229   3.916   4.711  21.414 -0.0730  0.0364 -0.1370
11080W        W13230   8.167   0.376  22.899 -0.0075 -0.2964 -0.2165
11081W        W13231   6.174   5.245   4.153  0.0057 -0.0084 -0.2166
11082W        W13232  12.739   7.156  16.195 -0.1157  0.2752  0.2449
11083W        W13233  21.976   3.426   9.476  0.1095 -0.1467 -0.1760
11084W        W13234   0.311   5.040  25.876  0.1769  0.0323 -0.1853
11085W        W13235   9.180   1.247   9.228  0.0440  0.1571 -0.0045
11086W        W13236  19.518   4.437   5.775 -0.0220 -0.2374 -0.1880
11087W        W13237   8.738   7.202  21.438  0.0304 -0.1999  0.1260
11088W        W13238   2.559   5.982  21.470 -0.0809  0.0814 -0.1967
11089W        W13239   8.350   7.456   0.610 -0.3888  0.0073  0.0138
11090W        W13240  21.137   5.016  15.997 -0.1323 -0.0188 -0.1945
11091W        W13241   1.328   3.750  24.316 -0.0716 -0.3474  0.0449
11092W        W13242  25.166   3.794   5.577  0.1349  0.2495  0.1732
11093W        W13243   0.612   4.244  25.282 -0.0696  0.1196 -0.0516
11094W        W13244  22.778   6.102  17.294 -0.5181  0.0308  0.0708
11095W        W13245   5.986   3.802   4.493 -0.1971  0.1001  0.0096
11096W        W13246  12.584   2.928  10.368 -0.1215  0.2017 -0.2855
11097W        W13247   3.442   5.631  17.247  0.0859 -0.0048 -0.1173
11098W        W13248   8.302   5.161   1.568  0.2563 -0.0191 -0.0494
11099W        W13249   3.152   4.803   5.229  0.2297 -0.0311 -0.1260
11100W        W13250   6.410   5.219  16.337  0.0193  0.1217 -0.2112
11101W        W13251   9.735   4.667  23.673 -0.2965  0.0797  0.0828
11102W        W13252  28.900   1.040   8.946  0.0366 -0.0935  0.2348
11103W        W13253  20.160   7.707   0.816  0.3081 -0.1342 -0.0281
11104W        W13254  28.704   0.514   7.005 -0.3862  0.2108  0.2909
11105W        W13255   2.338   1.332   8.663 -0.1749 -0.0914  0.1485
11106W        W13256  13.626   2.242   8.009  0.0349 -0.0693 -0.1674
11107W        W13257   9.806   6.756   1.606  0.2441  0.0118 -0.1662
11108W        W13258   8.500   4.551  23.716 -0.0694 -0.0627 -0.2211
11109W        W13259   0.443   0.944  17.725  0.0935 -0.0363 -0.0425
11110W        W13260  30.429   5.316   6.553 -0.2357  0.4621 -0.3299
11111W        W13261  22.911   4.792   1.451  0.0132 -0.0812  0.2321
11112W        W13262  10.159   6.703   2.048 -0.0669  0.3345  0.1039
11113W        W13263  30.324   7.665  21.658  0.0334 -0.0007  0.3821
11114W        W13264   7.592   1.385  25.647  0.2936 -0.0251  0.3247
11115W        W13265  10.439   4.287   0.259 -0.2966 -0.0819 -0.1244
11116W        W13266  20.032   6.467  18.107  0.0838  0.2294  0.0585
11117W        W13267  23.543   2.698  21.096 -0.1879 -0.0451 -0.2093
11118W        W13268   3.606   1.701   5.355 -0.0355 -0.0178  0.1894
11119W        W13269  23.155   3.590  21.321  0.1912  0.1441  0.0398
11120W        W13270   4.129   5.986  10.223  0.1388  0.3213 -0.0892
11121W        W13271  30.806   0.595  23.054 -0.0825 -0.0522 -0.2228
11122W        W13272   2.590   6.010   9.773 -0.0438  0.1048  0.2084
11123W        W13273   7.011   1.271   5.225 -0.1721  0.2545  0.0491
11124W        W13274   0.702   4.898  18.530 -0.0016 -0.1935  0.1720
11125W        W13275  24.464   4.240   7.472  0.3232  0.0584 -0.1727
11126W        W13276  13.068   3.106  14.676  0.1688 -0.2800 -0.0063
11127W        W13277  10.187   5.191   4.782 -0.1550 -0.0512 -0.1780
11128W        W13278  25.472   7.709  11.131 -0.1350  0.1008 -0.0373
11129W        W13279  13.248   2.759  22.096  0.2863 -0.0594 -0.3520
11130W        W13280  31.128   7.378  10.718 -0.2965 -0.2366 -0.1073
11131W        W13281  16.436   5.840   1.950 -0.2046  0.0534  0.0743
11132W        W13282  29.626   3.934   3.019  0.1921  0.0362 -0.1469
11133W        W13283   0.053   1.762  10.248  0.0504  0.0534 -0.1005
11134W        W13284  20.055   3.399   6.257  0.0346  0.2599  0.0270
11135W        W13285  26.676   4.435   1.781  0.0023  0.0875  0.0589
11136W        W13286   9.221   3.564  20.802 -0.0328  0.0969  0.0632
11137W        W13287  20.123   2.166   3.212 -0.2634  0.0596  0.2251
11138W        W13288   9.709   3.526   3.186 -0.2848  0.0816 -0.2482
11139W        W13289  26.823   4.967  24.498 -0.2669  0.0675  0.1771
11140W        W13290  15.645   1.132   6.086 -0.2542  0.1059 -0.1119
11141W        W13291  10.066   4.630   0.081 -0.0086  0.1288  0.0905
11142W        W13292  12.663   5.125   4.960  0.0906 -0.0679 -0.1347
11143W        W13293  24.716   1.009   5.329 -0.0523  0.0444  0.4025
11144W        W13294   9.668   4.435   0.948 -0.0174 -0.0761 -0.1088
11145W        W13295  20.281   0.104  15.896  0.0701 -0.1643 -0.2927
11146W        W13296  24.515   5.200  16.680  0.0065  0.2319  0.1198
11147W        W13297   2.112   1.263   3.941 -0.1908 -0.0295 -0.0005
11148W        W13298  14.514   3.022   3.403 -0.2881  0.0438 -0.0738
11149W        W13299  20.474   5.168  22.929 -0.2822 -0.1243 -0.0996
11150W        W13300  26.996   2.795   0.168 -0.1987 -0.0950  0.1330
11151W        W13301  29.431   3.503  15.712 -0.0602 -0.0214  0.0012
11152W        W13302  27.828   1.955  19.816  0.2223 -0.1185  0.0929
11153W        W13303  23.619   4.782  10.491  0.0462  0.0314 -0.0009
11154W        W13304   1.536   1.595   3.209 -0.3023  0.1991 -0.0794
11155W        W13305  13.469   0.479   5.318 -0.4316  0.1359 -0.1171
11156W        W13306  30.917   5.974   9.413  0.2943  0.1323 -0.2597
11157W        W13307  11.848   6.413  15.653 -0.1496  0.3970 -0.2960
11158W        W13308  16.389   2.169  22.578 -0.0455 -0.0810  0.1017
11159W        W13309  21.762   5.626   1.281 -0.1072 -0.0941 -0.0641
11160W        W13310  24.974   4.785  25.242 -0.3029 -0.4817 -0.1397
11161W        W13311  18.403   6.316  10.235 -0.2389  0.0964  0.1716
11162W        W13312   3.046   4.195  20.270 -0.1169 -0.0658 -0.0768
11163W        W13313   5.001   6.182  10.278  0.0011 -0.1216  0.2353
11164W        W13314  25.113   2.144  22.698  0.0276  0.2252  0.0535
11165W        W13315  21.871   6.304  20.592  0.2246 -0.3331 -0.0620
11166W        W13316  10.086   1.456   8.185 -0.0147 -0.2566 -0.0624
11167W        W13317   8.242   3.980  23.500  0.1765  0.0667  0.2119
11168W        W13318   1.030   7.471  21.266 -0.1080 -0.1179 -0.0532
11169W        W13319  19.589   5.886   5.857 -0.1400 -0.2273 -0.2212
11170W        W13320  25.231   5.266   3.807 -0.2399 -0.1090 -0.5061
11171W        W13321  18.791   7.531   2.015  0.2143  0.1372  0.1797
11172W        W13322  18.856   4.172   7.972 -0.0227 -0.0187  0.1334
11173W        W13323  25.684   7.188  25.981 -0.1162  0.0445  0.2609
11174W        W13324  24.890   6.378  10.143 -0.0047  0.1091  0.0105
11175W        W13325  13.044   7.349  17.398  0.0068  0.1262 -0.2965
11176W        W13326  18.146   3.277   7.581  0.1533 -0.0039 -0.0114
11177W        W13327  16.371   2.687   0.410  0.1029  0.2324 -0.0510
11178W        W13328  15.699   3.535  19.055  0.1910 -0.0294 -0.2048
11179W        W13329  29.339   3.710   7.969 -0.1599  0.2226 -0.0964
11180W        W13330  10.241   4.449   8.660  0.5126  0.1731  0.1495
11181W        W13331  20.710   6.563  23.404 -0.1983 -0.0727 -0.1471
11182W        W13332   8.299   3.531  20.016  0.0342 -0.0994  0.2912
11183W        W13333   7.763   3.970  21.179 -0.1821  0.0850  0.1636
11184W        W13334   5.058   7.544   8.292 -0.0421 -0.3096  0.1532
11185W        W13335   3.987   2.830   8.169  0.0392 -0.0222 -0.1733
11186W        W13336   7.763   5.447   6.981 -0.1505 -0.0516  0.0610
11187W        W13337  11.787   7.714   3.087 -0.1333 -0.1979 -0.1046
11188W        W13338  20.492   2.774  19.556  0.2048 -0.2081  0.1426
11189W        W13339   2.595   5.998  24.729  0.1707  0.3591 -0.0501
11190W        W13340  25.103   4.797   3.663 -0.0084  0.0121  0.2227
11191W        W13341   7.387   0.071   7.602  0.0006  0.3369 -0.2941
11192W        W13342  17.187   2.145  25.005  0.0079  0.0219 -0.0986
11193W        W13343  16.058   5.649  21.342 -0.0540  0.3657  0.0461
11194W        W13344  13.248   7.621  23.057  0.1212  0.2738 -0.0337
11195W        W13345  18.765   5.156   7.488  0.0450 -0.1231  0.0225
11196W        W13346  15.725   3.145  21.112  0.0796  0.0543 -0.3648
11197W        W13347   0.849   0.161  24.516 -0.0034 -0.1884  0.2067
11198W        W13348  10.558   2.441   4.218 -0.2710  0.1367 -0.0113
11199W        W13349   8.667   7.642   1.582  0.1823 -0.0210 -0.1081
11200W        W13350  12.081   4.767   2.526 -0.0327 -0.1478  0.1807
11201W        W13351  26.508   2.160   7.570 -0.0320  0.0889 -0.1910
11202W        W13352  30.145   3.594   3.920  0.3676  0.1697  0.1715
11203W        W13353   7.638   3.953   6.657  0.1506  0.1983  0.0787
11204W        W13354   7.406   1.611   2.664  0.3229  0.3780 -0.1058
11205W        W13355  31.035   1.861  23.142  0.0861  0.0503 -0.1520
11206W        W13356   7.856   1.060   4.550  0.0100 -0.1731  0.1096
11207W        W13357   9.036   7.609   4.776  0.1603 -0.2308 -0.0694
11208W        W13358  14.337   0.881   0.542 -0.0053  0.2303 -0.0011
11209W        W13359  16.382   1.409   6.282  0.0042  0.1182 -0.0376
11210W        W13360  23.512   3.908   3.375 -0.1638  0.2026  0.1955
11211W        W13361   9.211   5.807   7.684  0.0946 -0.1617  0.2235
11212W        W13362  26.348   7.229  25.891  0.5346 -0.0365 -0.0593
11213W        W13363  20.718   4.326   6.857  0.3945 -0.1587  0.2412
11214W        W13364  12.367   4.294  15.374 -0.1460 -0.0163  0.1057
11215W        W13365   8.539   2.628  18.686  0.4364  0.0862  0.0370
11216W        W13366   9.625   2.004   2.313  0.2083  0.1240  0.1092
11217W        W13367   3.341   4.446   1.771 -0.1803  0.1682 -0.0257
11218W        W13368   1.777   6.904  25.606  0.0505  0.1268 -0.3482
11219W        W13369   4.528   3.873  21.283 -0.3224  0.1613 -0.3000
11220W        W13370  31.170   3.091  16.135  0.1254 -0.1130  0.2306
11221W        W13371  28.780   0.050  17.517 -0.1403 -0.2654 -0.0250
11222W        W13372  21.595   1.978  18.835 -0.3215 -0.0611  0.1552
11223W        W13373  30.943   3.301  22.728  0.0296  0.2268 -0.2868
11224W        W13374  21.488   3.294  25.285 -0.2024  0.2982 -0.0423
11225W        W13375   7.412   1.473   5.440  0.2535 -0.0915 -0.2307
11226W        W13376   2.043   7.157   0.980 -0.0853  0.3307 -0.1412
11227W        W13377  15.143   7.253   0.042  0.0449 -0.0186 -0.0546
11228W        W13378  14.839   5.542   2.032 -0.0280  0.1329 -0.0961
11229W        W13379  25.202   0.327   4.296  0.2340 -0.2064 -0.1098
11230W        W13380  21.175   0.787  19.440  0.1003 -0.0804 -0.3585
11231W        W13381  30.583   2.593   9.288 -0.1256  0.1515  0.0391
11232W        W13382  20.577   5.337   0.994 -0.2445  0.0202  0.0409
11233W        W13383  16.390   6.861  19.492  0.3227  0.1575 -0.0587
11234W        W13384  26.278   7.595  20.635 -0.0198 -0.0486  0.0102
11235W        W13385  13.544   4.720  14.648  0.0507 -0.1025  0.4778
11236W        W13386  30.345   7.166  10.689  0.2207 -0.1011  0.2514
11237W        W13387   8.480   7.118  20.089  0.4999  0.3231  0.1410
11238W        W13388  18.045   3.547   9.393 -0.1427 -0.1212 -0.0427
11239W        W13389  20.173   2.214  25.271 -0.0663 -0.0508  0.3427
11240W        W13390  13.240   0.553  21.759 -0.0415  0.0895 -0.3074
11241W        W13391  25.946   0.615  22.479 -0.0181 -0.1348  0.2620
11242W        W13392  29.151   5.639  22.622  0.2043 -0.2136 -0.0298
11243W        W13393   5.157   3.154  20.292 -0.0489  0.3431 -0.1363
11244W        W13394   9.530   0.193  20.022  0.3640 -0.1630  0.1316
11245W        W13395  23.257   5.846   4.361  0.2308  0.1969 -0.0980
11246W        W13396  26.754   2.276  26.023  0.0491  0.3113 -0.1884
11247W        W13397  23.110   1.721  17.794  0.1131 -0.3710 -0.3646
11248W        W13398   9.084   7.311   4.336  0.2548 -0.2200 -0.2223
11249W        W13399  20.464   6.860  18.850  0.1334  0.1894  0.1321
11250W        W13400  22.689   1.343   1.702  0.1915  0.0370  0.1927
11251W        W13401  24.630   3.863   0.590 -0.1691  0.1997 -0.0191
11252W        W13402   0.740   1.031  24.673  0.1714 -0.1116  0.0293
11253W        W13403  30.852   2.824  21.689 -0.0034 -0.4281  0.0747
11254W        W13404  14.159   5.928   7.238 -0.1494  0.0577 -0.2827
11255W        W13405   5.706   7.554  25.910 -0.0821  0.1380  0.0077
11256W        W13406  19.028   6.763   0.332  0.2494  0.0407 -0.2186
11257W        W13407  25.935   6.408   5.468 -0.1000 -0.0323  0.0895
11258W        W13408  25.943   5.586  16.707  0.1622 -0.1199  0.2899
11259W        W13409  19.855   1.299   7.642  0.0393  0.2150 -0.3068
11260W        W13410  17.943   1.811  10.287  0.1891  0.1163 -0.2477
11261W        W13411  28.967   5.235  25.223 -0.3579  0.3077 -0.2080
11262W        W13412  25.787   2.548   1.975 -0.0297  0.1527  0.0700
11263W        W13413  24.331   6.461  16.443  0.0055  0.1705  0.1556
11264W        W13414  13.781   3.426   9.101 -0.1242  0.4827  0.2731
11265W        W13415  19.948   1.709  19.107  0.0589 -0.0214  0.1543
11266W        W13416  22.536   4.589   3.803 -0.0878 -0.0256 -0.0043
11267W        W13417   9.796   5.692  25.039  0.1202  0.1789 -0.4044
11268W        W13418  17.950   2.464   0.107 -0.1701 -0.1256  0.2340
11269W        W13419   4.527   2.999  21.507  0.1741  0.1884 -0.1049
11270W        W13420  27.975   2.639  17.872  0.0072  0.1334  0.1071
11271W        W13421  23.343   7.474   6.929 -0.0565  0.3195  0.1374
11272W        W13422   6.806   2.385   8.413 -0.3880 -0.3710  0.0712
11273W        W13423  30.060   7.219   3.366 -0.7015 -0.0596 -0.1022
11274W        W13424  10.302   7.453   7.409  0.1516 -0.0549  0.1214
11275W        W13425  19.833   5.053  23.617  0.3570 -0.1035  0.1613
11276W        W13426   0.318   5.044  19.502 -0.1122  0.2237 -0.0669
11277W        W13427  12.438   4.331   0.006 -0.4271  0.0181  0.0406
11278W        W13428  16.467   2.204   5.691  0.5624 -0.2585  0.2538
11279W        W13429  11.353   1.080   4.744 -0.1482 -0.0486 -0.1428
11280W        W13430   5.138   5.454   5.920  0.1670  0.0503 -0.1868
11281W        W13431   2.570   2.892  19.112 -0.1823  0.1726 -0.2463
11282W        W13432   2.345   2.499   9.987  0.2107 -0.0520  0.1585
11283W        W13433  16.873   6.015  24.444 -0.0507 -0.1356  0.3645
11284W        W13434  21.649   3.288  22.881  0.1089 -0.0264 -0.0486
11285W        W13435  28.761   4.075   3.444  0.1125 -0.3515  0.3527
11286W        W13436  19.616   7.451   9.433  0.1094 -0.0110  0.2035
11287W        W13437   5.168   7.131  15.536 -0.0372 -0.0293  0.1001
11288W        W13438   6.234   0.389   9.659  0.0547 -0.1687 -0.3222
11289W        W13439  22.998   3.683   8.731 -0.1314  0.1710  0.3173
11290W        W13440  18.103   3.691  20.446  0.3033  0.2389 -0.3501
11291W        W13441   1.629   7.407  19.114 -0.2725  0.0974 -0.1040
11292W        W13442  21.436   6.355   2.919  0.2150  0.1583 -0.3783
11293W        W13443  26.125   5.098  18.743 -0.3290 -0.2009 -0.2755
11294W        W13444  16.055   5.831   2.855  0.1796 -0.1083  0.1254
11295W        W13445  23.241   4.118  24.280  0.4705  0.3309 -0.0613
11296W        W13446  11.800   5.519  22.534 -0.0215  0.0877 -0.1388
11297W        W13447   2.634   4.428  24.507 -0.1361  0.4154 -0.1356
11298W        W13448  15.985   1.446  24.784  0.1026 -0.0703 -0.2606
11299W        W13449  27.249   5.960   5.705 -0.1228  0.0120 -0.1653
11300W        W13450  13.837   2.596   9.550 -0.2019 -0.1871 -0.1104
11301W        W13451  24.239   5.283  10.331  0.0776 -0.3461  0.1423
11302W        W13452   3.576   5.950  10.723 -0.0480  0.0074 -0.0929
11303W        W13453   8.770   3.269   5.421  0.2213  0.0432  0.2531
11304W        W13454  16.708   3.193   7.658  0.3154 -0.2473 -0.1589
11305W        W13455  22.039   2.764  24.175 -0.1289  0.2180 -0.0810
11306W        W13456  29.960   6.143  16.050 -0.1341 -0.0155 -0.0560
11307W        W13457  19.055   1.363   2.533  0.0067 -0.2185 -0.3328
11308W        W13458  20.681   6.106  24.219 -0.3282  0.0160  0.0988
11309W        W13459   5.159   1.977   2.503  0.2144  0.0947 -0.1087
11310W        W13460  14.417   0.484   0.134  0.2447 -0.1879  0.1341
11311W        W13461  30.840   7.609  20.404 -0.0891 -0.1353 -0.1807
11312W        W13462   8.834   6.350  21.963  0.1208 -0.2816 -0.0960
11313W        W13463   1.538   5.491   3.146 -0.0636  0.0032 -0.4191
11314W        W13464  29.629   3.723  16.717  0.0286 -0.2090  0.0239
11315W        W13465   8.196   1.336  19.619 -0.2524  0.0550  0.1019
11316W        W13466  12.935   0.918  21.767  0.1379 -0.1193 -0.1722
11317W        W13467  12.428   1.077  19.982 -0.1169  0.2201  0.1208
11318W        W13468  22.424   0.116   0.626  0.1186  0.0401 -0.1415
11319W        W13469   3.740   3.356  25.520  0.2534  0.0285  0.1425
11320W        W13470   8.292   4.311   1.305 -0.1420  0.0747  0.3254
11321W        W13471  25.495   0.278  10.446  0.0131  0.0366  0.2037
11322W        W13472  25.958   6.797   5.180  0.0948 -0.3242  0.3711
11323W        W13473  28.779   5.833   9.057  0.1176  0.0212 -0.0551
11324W        W13474  31.028   0.738   5.747 -0.1015 -0.4484  0.2207
11325W        W13475   3.229   0.950   4.300 -0.0860 -0.0773  0.0537
11326W        W13476  15.704   3.562  17.271  0.1931  0.0848  0.0619
11327W        W13477  28.284   5.651  23.504 -0.0406  0.2561  0.0671
11328W        W13478  10.691   4.282  23.741 -0.2656 -0.0437 -0.2794
11329W        W13479  18.856   4.405  23.426 -0.3617 -0.1178 -0.4039
11330W        W13480   1.400   5.549  17.876 -0.0223  0.2395 -0.0346
11331W        W13481  19.710   6.683  16.061  0.0024  0.0052  0.0662
11332W        W13482  30.314   3.437  23.617  0.1489  0.0146 -0.2043
11333W        W13483  26.074   2.475   2.750 -0.0776  0.0942  0.2771
11334W        W13484  24.568   5.625  25.315  0.2212 -0.1166  0.0487
11335W        W13485   8.477   0.516  16.771 -0.2873  0.0538  0.0030
11336W        W13486   0.275   1.744  23.537 -0.1834  0.2074  0.1706
11337W        W13487  17.873   0.630  19.102 -0.1478  0.0041  0.0970
11338W        W13488  17.071   3.983  21.143 -0.3580 -0.1161  0.2582
11339W        W13489  15.207   2.114  20.675 -0.0652  0.3966  0.2936
11340W        W13490   5.276   3.724   4.855  0.1978  0.0333 -0.0902
11341W        W13491  28.900   0.377   2.044  0.0284  0.0567 -0.0101
11342W        W13492  24.623   1.076   2.491 -0.1037  0.3641 -0.1486
11343W        W13493  16.602   5.776  16.843 -0.0707  0.1030 -0.3210
11344W        W13494   3.051   2.212  26.261  0.0042  0.2551 -0.0093
11345W        W13495  25.258   1.769   3.939  0.2057  0.0527 -0.0281
11346W        W13496  20.489   6.301  18.181 -0.0985  0.0192 -0.0380
11347W        W13497  23.350   0.599  19.512 -0.2420 -0.1074 -0.3699
11348W        W13498   8.760   5.048  25.293  0.4135 -0.1727 -0.0641
11349W        W13499   3.655   0.796  10.807  0.1339 -0.1007  0.0595
11350W        W13500   3.723   3.713   3.117  0.1986  0.0234 -0.0941
11351W        W13501  29.914   2.795   2.263  0.1184  0.2741 -0.2310
11352W        W13502   3.613   1.829   4.150  0.1989  0.1029  0.0795
11353W        W13503   2.335   4.538  21.373 -0.0841  0.2875  0.0252
11354W        W13504  11.558   0.489  25.966  0.2074  0.1023  0.2646
11355W        W13505  24.861   7.685  24.348  0.0027 -0.2887  0.0158
11356W        W13506  24.217   4.279  19.446  0.0669 -0.0855 -0.3902
11357W        W13507   4.859   7.647  19.551 -0.0643  0.0731  0.0455
11358W        W13508  31.067   6.211   8.940  0.4091 -0.0005 -0.1100
11359W        W13509   4.298   1.130  16.979  0.1255 -0.3922 -0.2503
11360W        W13510  21.001   4.954   0.060 -0.0140 -0.2552  0.1315
11361W        W13511  22.346   2.779   9.063 -0.2194  0.3618  0.2412
11362W        W13512  29.081   5.967   4.654  0.0087  0.1822 -0.2342
11363W        W13513   8.240   0.717  20.185 -0.0958  0.1269  0.0596
11364W        W13514  11.607   3.572  10.710  0.0476 -0.0558 -0.0136
11365W        W13515  13.761   4.659  26.109 -0.3801  0.1303  0.0539
11366W        W13516  20.859   4.953   9.595 -0.1908  0.1462  0.1487
11367W        W13517  27.179   2.710   4.041  0.1843 -0.2658 -0.1893
11368W        W13518   1.827   6.320   5.102 -0.0167 -0.0286 -0.2298
11369W        W13519  13.966   2.503   4.638 -0.4266 -0.0995  0.0398
11370W        W13520  28.001   7.597  15.759  0.0719  0.1125  0.0756
11371W        W13521   6.800   5.958   0.682  0.3755  0.2126 -0.1877
11372W        W13522   8.365   3.639   3.272 -0.0209 -0.1345  0.3683
11373W        W13523  25.789   4.369   1.398  0.1703  0.1284 -0.2567
11374W        W13524   3.430   4.805   8.690 -0.3914  0.2398  0.0904
11375W        W13525  27.669   4.630  16.448  0.0540 -0.0388 -0.0733
11376W        W13526  27.430   7.343   6.404  0.1027 -0.2034  0.1290
11377W        W13527  13.006   4.238  16.848 -0.2666 -0.0267 -0.0191
11378W        W13528   8.957   6.136   6.765 -0.0801  0.4951  0.2129
11379W        W13529  19.961   0.177   8.245  0.2416 -0.2177  0.5228
11380W        W13530  21.824   3.747   4.423  0.2981 -0.1810 -0.1247
11381W        W13531   1.538   1.522  20.471 -0.1728  0.0861  0.1665
11382W        W13532  26.847   0.112   7.993  0.2892  0.4192 -0.0254
11383W        W13533  27.782   2.032  26.249 -0.1191 -0.1071 -0.1673
11384W        W13534  17.796   3.582  22.157 -0.0479  0.2231  0.0445
11385W        W13535   7.732   3.577  25.952 -0.1598  0.2798  0.4360
11386W        W13536  11.539   7.068   0.203 -0.0574  0.0752 -0.1674
11387W        W13537  13.905   3.172  18.507 -0.3102  0.0417 -0.2222
11388W        W13538  15.597   5.945  18.779  0.0041 -0.3356  0.2843
11389W        W13539  29.210   2.922   8.657  0.1987 -0.0113 -0.0905
11390W        W13540   4.749   1.693  10.444  0.0784 -0.2996  0.2682
11391W        W13541  10.019   1.986   4.711 -0.0406 -0.0574  0.0635
11392W        W13542  14.948   5.864   0.688  0.2649 -0.0063 -0.2794
11393W        W13543  23.571   1.682   9.176 -0.2010 -0.2407  0.0030
11394W        W13544  21.090   3.869  26.005  0.2278 -0.1169 -0.1828
11395W        W13545  25.924   0.390   3.585  0.1751 -0.3161 -0.0259
11396W        W13546  11.582   2.454   0.213  0.0450  0.0176 -0.3730
11397W        W13547   0.145   3.469   8.567  0.0517 -0.1626  0.0557
11398W        W13548   1.057   0.302  21.124 -0.0656 -0.2067 -0.3731
11399W        W13549   4.358   5.230  21.019  0.0926  0.0454 -0.0235
11400W        W13550  30.356   5.893   3.365  0.3162 -0.0413  0.0363
11401W        W13551   9.041   3.376  24.890 -0.1045 -0.0052  0.0232
11402W        W13552   7.395   5.858  10.832 -0.0283  0.2793  0.0081
11403W        W13553  30.996   6.870  19.812 -0.0722 -0.1200  0.0424
11404W        W13554  17.742   6.090   6.557 -0.1257 -0.2174 -0.0111
11405W        W13555  25.368   6.310  16.912 -0.2028  0.1403 -0.1512
11406W        W13556  11.197   7.705   3.396  0.2981 -0.1916  0.1836
11407W        W13557  26.194   4.730  25.580 -0.1937  0.1068 -0.0258
11408W        W13558  15.653   0.903  20.929 -0.1837 -0.1765  0.0812
11409W        W13559  30.909   2.931  18.297  0.2526 -0.2765 -0.1079
11410W        W13560   0.459   4.086   4.840 -0.2702  0.1025 -0.0777
11411W        W13561   6.870   7.720   6.551  0.0734 -0.1735 -0.0443
11412W        W13562   0.791   7.144   4.907  0.0527 -0.3640 -0.1433
11413W        W13563  18.120   3.918   4.133  0.0269  0.2393  0.0581
11414W        W13564   8.853   6.162   3.459  0.1956  0.2177  0.1536
11415W        W13565  19.416   7.094   1.937  0.2121  0.0069  0.0550
11416W        W13566  11.091   2.066  25.335 -0.1892  0.0377 -0.2875
11417W        W13567  24.115   2.529  11.625 -0.1219 -0.2422 -0.2486
11418W        W13568  23.358   6.868   9.866 -0.0478 -0.1458  0.1031
11419W        W13569   9.082   4.273  26.151  0.0543 -0.0810 -0.2207
11420W        W13570  18.908   7.012   9.185  0.0118  0.1732  0.0979
11421W        W13571  18.951   2.606   8.772  0.3898 -0.0015  0.0805
11422W        W13572  23.628   4.472   7.722 -0.0935  0.2292 -0.0007
11423W        W13573  22.001   4.735   5.605  0.0202 -0.0519  0.0771
11424W        W13574  21.948   5.762  21.745  0.2332  0.3354  0.0938
11425W        W13575   3.463   6.522   9.993  0.5321 -0.0814 -0.1318
11426W        W13576   4.307   2.954   2.435 -0.2016  0.0378 -0.0886
11427W        W13577  29.261   0.716   8.800 -0.1431  0.0407 -0.3329
11428W        W13578  18.170   4.417  18.892 -0.0767 -0.0777 -0.1006
11429W        W13579   0.904   6.093  24.630 -0.0986  0.2046  0.1347
11430W        W13580  19.289   0.940  21.664  0.1349 -0.1142  0.0712
11431W        W13581   0.606   3.613  16.121 -0.0053 -0.0432 -0.1578
11432W        W13582   3.647   0.366   1.304  0.0173  0.1046 -0.0132
11433W        W13583  15.287   3.285   6.541  0.1415  0.3684 -0.3073
11434W        W13584  13.189   5.394   3.076 -0.1211  0.0542  0.1481
11435W        W13585  28.885   1.610   5.697  0.2303 -0.1527 -0.1854
11436W        W13586  12.260   7.180  23.518 -0.1259 -0.0144  0.0865
11437W        W13587   2.472   2.873   0.768 -0.1121  0.0025 -0.2027
11438W        W13588  16.162   6.426   3.094 -0.0168 -0.0704  0.1745
11439W        W13589  21.022   0.276   4.861 -0.0655  0.2941 -0.0085
11440W        W13590  21.367   4.230   2.296 -0.1510 -0.1552  0.1124
11441W        W13591  15.842   5.338   1.817  0.1423  0.1351 -0.1503
11442W        W13592  15.251   5.544  16.497  0.2112  0.0803  0.0046
11443W        W13593   4.387   2.572   8.390  0.0206 -0.2593  0.1250
11444W        W13594  16.196   3.257   3.253  0.1553  0.3932 -0.0933
11445W        W13595  12.240   4.639   1.593 -0.2490  0.0279 -0.1412
11446W        W13596   8.140   4.966  21.168  0.1381  0.0075  0.0742
11447W        W13597   8.114   1.269  23.150  0.1509 -0.2287 -0.2071
11448W        W13598  18.059   6.878   5.971 -0.1089 -0.1513  0.1106
11449W        W13599   9.889   1.574  19.920 -0.0891 -0.0095  0.0811
11450W        W13600  11.314   3.895   9.155 -0.2109 -0.0546 -0.0036
11451W        W13601  20.221   3.940  24.812  0.2646  0.0060 -0.2710
11452W        W13602  21.374   4.953  21.383  0.0878 -0.0768  0.3213
11453W        W13603  20.774   1.521   8.336  0.1406 -0.2763 -0.0654
11454W        W13604  29.308   7.029  14.482  0.3266  0.2313  0.1701
11455W        W13605  14.344   1.268  17.621 -0.2404  0.1965 -0.1416
11456W        W13606  30.036   0.975   7.167  0.0697  0.0662  0.3017
11457W        W13607  27.161   5.670   2.061 -0.3005  0.0345  0.0944
11458W        W13608  14.181   4.844  10.873 -0.0650 -0.0809  0.1618
11459W        W13609  23.685   7.300   7.330  0.0189 -0.2358  0.1378
11460W        W13610  31.204   2.182  24.441  0.1303  0.0026 -0.0435
11461W        W13611   7.413   6.696   2.451 -0.1825 -0.2450 -0.1577
11462W        W13612  10.514   4.536   1.588 -0.1386  0.0991 -0.0832
11463W        W13613  18.334   4.919  16.861  0.0475 -0.0506  0.1622
11464W        W13614   4.273   6.366   1.096  0.0147  0.1209 -0.0466
11465W        W13615  24.327   7.481   8.299 -0.0008  0.1133  0.1510
11466W        W13616  17.712   0.781   3.117 -0.2361 -0.3048 -0.0660
11467W        W13617  23.816   6.448  24.783  0.0440  0.1651 -0.0909
11468W        W13618  20.691   0.778   9.351  0.3624  0.4425 -0.1909
11469W        W13619  18.582   2.432   0.762 -0.0054  0.1456  0.2935
11470W        W13620  30.210   4.607   3.654  0.0188 -0.3298  0.3115
11471W        W13621  24.997   7.385   7.191 -0.2446 -0.0747  0.0411
11472W        W13622  18.524   0.413   5.424  0.1719  0.2077  0.0081
11473W        W13623   8.775   6.049  10.749 -0.1854 -0.1149  0.1982
11474W        W13624  18.290   7.693   0.019  0.1163  0.0757 -0.1144
11475W        W13625  18.716   0.992   3.300  0.0029  0.3994  0.0417
11476W        W13626   4.642   4.141   2.356  0.0097  0.0705 -0.0416
11477W        W13627  25.218   4.258   3.728  0.1166 -0.1151  0.1402
11478W        W13628  28.390   2.202   7.649 -0.0847 -0.0129 -0.0323
11479W        W13629  21.417   0.631   4.796  0.3380  0.0024  0.2529
11480W        W13630  24.566   1.907  11.026 -0.2221  0.2321  0.0186
11481W        W13631   0.144   6.873  23.752  0.1963  0.4314 -0.1836
11482W        W13632  13.956   6.242  24.606  0.1156  0.2371  0.1486
11483W        W13633  20.085   1.074  10.441  0.0190 -0.2424  0.2052
11484W        W13634  11.557   6.728   9.031 -0.0035 -0.1676 -0.2439
11485W        W13635  16.133   3.294  10.889 -0.1021  0.0947  0.0911
11486W        W13636   8.193   5.555   9.858 -0.3057 -0.1366 -0.1004
11487W        W13637  28.614   7.266  20.877  0.0906  0.0795  0.0624
11488W        W13638  13.500   7.333   7.091 -0.1655  0.0353  0.0345
11489W        W13639  19.794   3.169   7.579  0.0256 -0.0906  0.1912
11490W        W13640   1.266   4.730  10.528  0.0909 -0.2599 -0.0538
11491W        W13641   4.944   0.685  21.328 -0.1324  0.1201 -0.1700
11492W        W13642  22.538   3.461  15.219 -0.2133  0.0525  0.0047
11493W        W13643  25.254   1.661  23.996  0.3267  0.1089 -0.1150
11494W        W13644  25.685   2.296   0.837 -0.1455  0.2455 -0.0131
11495W        W13645  24.523   4.293   0.808 -0.1985  0.1757 -0.4653
11496W        W13646  25.578   5.203   7.688  0.1595 -0.1264 -0.0646
11497W        W13647  30.075   5.504  22.198 -0.0606  0.0385  0.4095
11498W        W13648  30.844   0.522   4.669  0.0196 -0.2578  0.0832
11499W        W13649   0.343   4.122  19.478  0.1211 -0.1631  0.0234
11500W        W13650   1.453   1.607  24.046 -0.1559 -0.0441 -0.0635
11501W        W13651  19.831   3.914  25.983  0.0313  0.1142  0.0007
11502W        W13652  27.053   5.702  17.154 -0.1159  0.1521 -0.0274
11503W        W13653   2.940   0.956  11.444  0.0377  0.0618  0.1236
11504W        W13654   1.639   4.270   2.953 -0.3941 -0.1863  0.0729
11505W        W13655  16.735   4.037  22.247 -0.3197 -0.2591  0.0295
11506W        W13656  24.719   4.538   3.848  0.0764 -0.0420  0.0879
11507W        W13657   3.792   0.959  16.419 -0.0981  0.3431 -0.0175
11508W        W13658   9.915   4.597  18.503  0.0964  0.0829 -0.3061
11509W        W13659   1.560   6.944   0.153 -0.1049  0.0883  0.3650
11510W        W13660   3.309   4.645  20.102 -0.0810 -0.0740  0.0435
11511W        W13661  22.038   2.814  20.638 -0.0729 -0.1911 -0.0180
11512W        W13662   1.730   6.106  10.923 -0.0372  0.0207 -0.2237
11513W        W13663   7.764   4.773   0.040  0.0494 -0.0350  0.0839
11514W        W13664   6.638   7.393   6.909 -0.1107 -0.0276 -0.2222
11515W        W13665  25.411   4.892   5.173 -0.0382  0.2168  0.1859
11516W        W13666  19.145   3.961  10.997  0.0400  0.1712 -0.1503
11517W        W13667   9.808   4.213  16.283  0.1606 -0.4106 -0.2400
11518W        W13668  15.420   6.483  18.693  0.1548 -0.0018  0.3427
11519W        W13669   4.591   3.349   4.535 -0.2965 -0.2786  0.0042
11520W        W13670  22.127   0.868   2.113 -0.1998  0.2687  0.1598
11521W        W13671  20.315   4.788   9.810  0.2258  0.1256 -0.0244
11522W        W13672  18.469   2.777  18.886  0.1095 -0.0482 -0.0955
11523W        W13673  18.434   4.197  24.784 -0.1905 -0.1944  0.2994
11524W        W13674  10.578   4.836  17.826 -0.3157 -0.4304 -0.0355
11525W        W13675   1.481   2.634   3.472  0.1898 -0.0420  0.0983
11526W        W13676  28.706   2.856   9.714 -0.0423 -0.1205  0.3806
11527W        W13677  10.249   7.607   3.720  0.0175  0.0212 -0.1083
11528W        W13678  14.108   5.217  21.852 -0.1387 -0.2469  0.0479
11529W        W13679   4.185   7.079  22.900 -0.1730  0.0837  0.1618
11530W        W13680  30.460   3.226  25.775 -0.1540  0.0389  0.0763
11531W        W13681   5.957   0.895   8.378  0.5945 -0.2737  0.0774
11532W        W13682   1.575   6.115  25.823 -0.0385  0.1966 -0.1962
11533W        W13683  15.592   7.483  15.554  0.2473  0.0112 -0.0187
11534W        W13684  28.386   0.527   8.396 -0.0856 -0.0533  0.0777
11535W        W13685  30.704   0.012   9.205  0.0596  0.0839  0.0024
11536W        W13686  28.506   7.282   0.986 -0.0086  0.4181  0.1130
11537W        W13687   7.352   5.319  26.258  0.0395  0.0684  0.1149
11538W        W13688  10.187   6.856   6.472 -0.0485  0.2934  0.1243
11539W        W13689   8.230   4.784  26.056  0.4234  0.0901 -0.1173
11540W        W13690  26.531   7.332  21.031  0.1938 -0.0048 -0.1181
11541W        W13691  26.645   0.870  11.283  0.1029 -0.2498  0.0452
11542W        W13692  24.854   0.083  19.608 -0.0913 -0.0922  0.0588
11543W        W13693  17.704   0.330   2.861 -0.0283  0.1012  0.0593
11544W        W13694  13.172   7.476  20.773  0.0110 -0.3452 -0.2368
11545W        W13695   7.705   1.484   8.837  0.1727  0.0806 -0.0589
11546W        W13696  30.467   2.908   9.687  0.1807 -0.1817  0.2261
11547W        W13697   6.359   1.335   9.123 -0.1485  0.1053 -0.0276
11548W        W13698  28.558   6.003  15.784 -0.0902 -0.0951 -0.0162
11549W        W13699  17.393   6.177  17.094  0.0941 -0.2380  0.0803
11550W        W13700  11.726   2.135  16.228 -0.0953  0.5069 -0.1117
11551W        W13701   7.347   3.832  19.690 -0.1166  0.2441 -0.0407
11552W        W13702  14.142   6.028  18.626 -0.0688  0.4748  0.0685
11553W        W13703  15.699   4.777   5.961 -0.0748 -0.1333  0.1389
11554W        W13704  12.471   0.535   1.425 -0.0444  0.1296 -0.1229
11555W        W13705  16.407   5.836  26.138 -0.2944 -0.1513 -0.1259
11556W        W13706   7.253   3.008   0.521 -0.1954  0.3417  0.0808
11557W        W13707  10.251   0.183  16.876  0.2044 -0.2939 -0.1086
11558W        W13708  18.604   5.612  23.418 -0.0013 -0.2133  0.0685
11559W        W13709   4.406   4.707   5.194 -0.0013  0.0026  0.2154
11560W        W13710   9.362   6.395   8.068 -0.1700 -0.1392 -0.1536
11561W        W13711   5.029   1.230  25.525 -0.0949 -0.0793 -0.1520
11562W        W13712  12.771   5.081  21.316 -0.0209 -0.3115  0.2387
11563W        W13713   4.230   2.873  26.355  0.2316 -0.4197 -0.1751
11564W        W13714  10.785   5.233   1.043 -0.0533  0.0659  0.0873
11565W        W13715   5.954   6.530  25.793  0.1710  0.0951 -0.1160
11566W        W13716  10.585   7.110   6.361 -0.0986 -0.0617  0.2094
11567W        W13717  11.376   1.883  19.629 -0.2375  0.2087  0.2574
11568W        W13718   0.632   2.510   2.461  0.0508 -0.2020  0.0035
11569W        W13719  23.549   1.414  18.555 -0.0366 -0.3961 -0.2535
11570W        W13720   1.431   2.475   9.374 -0.1820  0.3002  0.0220
11571W        W13721  27.073   2.337   6.532  0.0871 -0.0783  0.1775
11572W        W13722  12.537   0.562   7.430 -0.2140  0.0022  0.2258
11573W        W13723   0.931   0.568   2.376  0.0399  0.1348 -0.3109
11574W        W13724  28.097   6.965  18.802 -0.1198 -0.0565 -0.1439
11575W        W13725   6.902   2.144   2.929 -0.0699 -0.0465 -0.1460
11576W        W13726   0.515   3.559   1.941 -0.1032  0.0150 -0.0151
11577W        W13727  15.231   3.469   0.888  0.2433  0.1292  0.1344
11578W        W13728  18.608   4.453   2.602 -0.1628  0.2595 -0.1965
11579W        W13729  30.363   6.839   1.746 -0.0535 -0.4934 -0.0390
11580W        W13730  23.533   6.845   1.316 -0.2317 -0.1954 -0.0375
11581W        W13731  17.103   1.092   4.444 -0.2730 -0.0665 -0.3207
11582W        W13732  19.056   5.896  23.631 -0.3878  0.1081 -0.1594
11583W        W13733   7.010   1.235  10.297  0.3857  0.1379 -0.2514
11584W        W13734  17.825   2.849  25.605  0.1851 -0.1028  0.1824
11585W        W13735  15.012   4.002  19.408 -0.0169  0.1497  0.3194
11586W        W13736  29.711   3.611   8.953 -0.0112  0.1487 -0.2016
11587W        W13737  19.712   0.193   6.783 -0.0315  0.2383 -0.0530
11588W        W13738  10.661   1.829  25.119 -0.0198 -0.0294  0.1639
11589W        W13739   7.176   1.653   4.216 -0.2600  0.1334 -0.0455
11590W        W13740   0.223   3.725  24.899  0.1226 -0.1573  0.0474
11591W        W13741   6.351   1.974  25.086 -0.3039  0.1691  0.0686
11592W        W13742  24.715   5.982  11.554  0.2296 -0.0058  0.1501
11593W        W13743  20.484   1.839  22.687 -0.0248  0.0003 -0.0466
11594W        W13744  25.177   3.702  23.743 -0.2695 -0.2229 -0.1896
11595W        W13745  14.651   0.499   0.595 -0.1977  0.0478  0.2524
11596W        W13746  24.927   0.041   3.326 -0.0566  0.0121 -0.1772
11597W        W13747  26.244   3.782  18.395 -0.4660  0.1596 -0.0632
11598W        W13748  29.874   0.930  26.245 -0.3143 -0.1479  0.1695
11599W        W13749  18.681   2.735  17.093  0.1070  0.0263 -0.0765
11600W        W13750   0.023   3.114   9.602 -0.2149  0.3539  0.5099
11601W        W13751  14.282   0.719  18.998 -0.2811  0.1159 -0.1061
11602W        W13752   6.158   6.796  24.106  0.3012  0.0147  0.4510
11603W        W13753  20.621   5.523  22.480  0.1432 -0.1284  0.0374
11604W        W13754  25.900   7.495  19.719 -0.0566  0.1222 -0.2572
11605W        W13755  29.331   3.068   6.728 -0.0886 -0.0496 -0.1190
11606W        W13756  18.132   1.402  23.546 -0.0605  0.0516 -0.0080
11607W        W13757  16.504   3.385  16.438  0.3533  0.1772  0.1832
11608W        W13758  16.658   4.099  17.587 -0.0816  0.2018 -0.0206
11609W        W13759  23.888   1.729   1.170  0.0848  0.1113 -0.0490
11610W        W13760  15.186   0.411   6.113 -0.0121 -0.1153  0.1379
11611W        W13761   6.486   5.397  20.359  0.1614  0.1926 -0.0321
11612W        W13762   0.233   5.611  18.781  0.0335  0.0804 -0.2301
11613W        W13763   0.822   7.561  16.407  0.0359  0.1998  0.1670
11614W        W13764   7.846   0.962  26.418  0.0558  0.2675 -0.0520
11615W        W13765  20.903   1.766   6.578 -0.0044 -0.1581  0.0878
11616W        W13766  20.699   4.927  18.985 -0.0202  0.0130  0.1721
11617W        W13767  17.431   4.154  26.424 -0.0261 -0.1068  0.1882
11618W        W13768  25.359   4.766  16.137  0.2315 -0.0632 -0.1163
11619W        W13769   3.570   3.569   4.780  0.2220 -0.2123 -0.1734
11620W        W13770   6.112   0.679   7.653  0.3579  0.1062 -0.0889
11621W        W13771   4.941   6.001   5.482  0.0373 -0.0282 -0.0021
11622W        W13772  30.817   6.539   1.882  0.1053  0.0954 -0.1689
11623W        W13773  28.861   1.852  22.429 -0.0195  0.1585 -0.0511
11624W        W13774  26.421   0.233  24.473  0.1350 -0.2451  0.2395
11625W        W13775   3.408   3.595   5.271 -0.1996 -0.0200  0.0211
11626W        W13776  15.878   5.495  15.540  0.0328 -0.0701 -0.0388
11627W        W13777  16.620   7.346   3.057 -0.1709 -0.1143 -0.0732
11628W        W13778  20.569   1.715  20.519  0.1218 -0.2080 -0.2025
11629W        W13779  14.056   2.320   1.960  0.1375 -0.0233  0.0564
11630W        W13780  18.880   5.819   0.886  0.3157  0.0091  0.1795
11631W        W13781  26.465   6.804  16.792  0.1131  0.2083  0.0547
11632W        W13782  29.800   2.565   7.408 -0.2758  0.0293 -0.0068
11633W        W13783  16.159   5.950   3.343  0.1225  0.1223 -0.0313
11634W        W13784  24.743   2.972   3.932 -0.2262  0.3560  0.2434
11635W        W13785  18.116   5.071  18.342  0.0747  0.1349  0.0568
11636W        W13786   3.569   0.591  26.349  0.0099 -0.0827  0.0683
11637W        W13787   1.526   6.848   7.601 -0.3640 -0.1981  0.2035
11638W        W13788   8.955   0.484  19.892 -0.1661  0.0497  0.1616
11639W        W13789  24.585   6.505   3.044 -0.0201 -0.0491 -0.1233
11640W        W13790  10.760   5.173  18.477  0.0304  0.1218 -0.0778
11641W        W13791   7.991   6.071  17.373  0.1968  0.1507 -0.4668
11642W        W13792  30.317   2.811  21.556  0.3144 -0.1462  0.1251
11643W        W13793  12.088   7.276   3.005 -0.4226 -0.2282 -0.1654
11644W        W13794   6.734   4.804   7.337 -0.2506  0.0156 -0.0536
11645W        W13795  16.897   6.302  25.315 -0.2867  0.1781  0.0143
11646W        W13796  13.676   1.794   0.003  0.1814 -0.0237  0.1046
11647W        W13797  15.776   4.295   2.077 -0.3777  0.1271 -0.1046
11648W        W13798  24.190   2.108   5.891  0.2118  0.0290 -0.2167
11649W        W13799  13.057   5.732   8.993 -0.0321  0.1084  0.1968
11650W        W13800   2.251   2.336   6.299  0.2481 -0.0163  0.1355
11651W        W13801  23.499   7.209  18.050 -0.0708 -0.1189 -0.1926
11652W        W13802  21.260   2.386   8.067 -0.0621 -0.1529 -0.0090
11653W        W13803  13.203   5.076   4.565  0.4736  0.0470 -0.2689
11654W        W13804   7.269   4.956   8.029  0.0447 -0.3008 -0.2129
11655W        W13805  29.211   2.806  21.382  0.3127 -0.3214  0.1337
11656W        W13806   4.059   1.176  21.047  0.0400 -0.0835  0.0493
11657W        W13807  29.788   4.599   4.348 -0.1079 -0.0121  0.3148
11658W        W13808   2.573   2.302   8.574  0.2330 -0.1522  0.2580
11659W        W13809   2.995   6.004  19.692 -0.3242 -0.3563 -0.1478
11660W        W13810  26.436   2.010  24.145 -0.0371 -0.1125  0.1716
11661W        W13811  17.638   6.225  24.624  0.0102 -0.1755 -0.2578
11662W        W13812   5.895   4.625  18.692 -0.1881 -0.0664  0.0487
11663W        W13813  30.226   4.902   2.323 -0.2730 -0.3163  0.0759
11664W        W13814  23.789   3.065  19.482 -0.0048  0.1494 -0.1725
11665W        W13815  11.838   4.325  22.609 -0.1580 -0.0154 -0.0222
11666W        W13816  18.597   2.375   7.775  0.1201  0.0395  0.3021
11667W        W13817  23.029   0.120  10.719  0.1456 -0.0686 -0.1275
11668W        W13818   3.709   4.335   8.382 -0.1976  0.0493 -0.2731
11669W        W13819  23.230   0.583  20.466 -0.1132 -0.0842 -0.0314
11670W        W13820  13.958   2.430  18.457 -0.0537 -0.0383 -0.0628
11671W        W13821  14.720   4.737   7.658 -0.2625 -0.1831  0.3118
11672W        W13822   6.674   7.242  25.345  0.0882  0.0371 -0.0636
11673W        W13823   5.718   5.952   2.131 -0.2998  0.0116 -0.1613
11674W        W13824  18.132   0.916   2.803  0.0252 -0.0972  0.0392
11675W        W13825  29.792   2.947   5.505  0.0543  0.0856  0.1248
11676W        W13826   6.308   1.092   1.515 -0.3234  0.1162  0.1328
11677W        W13827  15.008   7.218   1.863 -0.1226  0.0541  0.0476
11678W        W13828  10.033   4.663  16.219 -0.0394 -0.0186 -0.1344
11679W        W13829   4.568   3.470  23.323 -0.1546 -0.0084  0.0250
11680W        W13830  11.619   4.711  20.376  0.4458 -0.4147  0.0791
11681W        W13831   8.629   4.414  25.934 -0.1134  0.2105 -0.2241
11682W        W13832  26.443   4.201   2.860  0.3800 -0.0747 -0.1822
11683W        W13833  25.068   6.350  11.128  0.1540  0.3126 -0.0631
11684W        W13834  25.241   3.049  23.360  0.0729  0.1431 -0.2777
11685W        W13835  28.246   5.362  15.129 -0.1280 -0.0004 -0.0881
11686W        W13836  10.014   0.512   6.560  0.0851  0.1705  0.1087
11687W        W13837  30.726   2.894   3.461  0.0523  0.1404 -0.0319
11688W        W13838   5.781   4.150  18.323 -0.1637  0.1347 -0.0096
11689W        W13839  25.368   5.978  21.056 -0.3142 -0.1101 -0.0038
11690W        W13840  30.680   0.938   3.323 -0.0520  0.0841  0.0246
11691W        W13841  30.323   5.441  10.511 -0.2651 -0.0831  0.1330
11692W        W13842  19.990   5.556  21.534 -0.2546 -0.0327  0.0202
11693W        W13843  28.471   3.799   3.844 -0.0023  0.1112 -0.0901
11694W        W13844  27.339   6.727   3.377 -0.0299  0.2407  0.2679
11695W        W13845  29.591   4.003  15.826  0.0849 -0.0299 -0.1220
11696W        W13846  22.705   2.187  21.184  0.0810 -0.1309 -0.2736
11697W        W13847   0.818   7.069   4.429  0.1365 -0.0555 -0.0802
11698W        W13848  13.808   1.670   9.514 -0.0173 -0.0028 -0.0519
11699W        W13849  16.639   1.259  21.947 -0.2400  0.1494 -0.2950
11700W        W13850  20.352   7.615   1.606  0.1602 -0.0287 -0.2194
11701W        W13851  20.222   2.067  23.443 -0.2511 -0.1585  0.2249
11702W        W13852   4.935   7.001  26.139 -0.2860  0.1010 -0.0213
11703W        W13853   3.556   5.066  21.298  0.3452 -0.0233 -0.1814
11704W        W13854   0.113   2.187  23.381 -0.0322  0.0981 -0.1802
11705W        W13855  23.640   7.503   4.335  0.3135  0.1364  0.1162
11706W        W13856   4.379   7.009   5.634 -0.2109  0.1937  0.1819
11707W        W13857  19.378   6.162  21.433 -0.1908 -0.0299  0.0300
11708W        W13858   6.246   2.036  18.049  0.1542  0.0445 -0.1028
11709W        W13859   4.741   0.513   1.814 -0.2869 -0.0900  0.1834
11710W        W13860   9.537   3.630  18.670  0.2007 -0.1954  0.0195
11711W        W13861  30.625   5.749  21.478 -0.2183  0.0391 -0.3394
11712W        W13862  20.341   5.493   1.502 -0.0676 -0.2097  0.0153
11713W        W13863  15.862   2.828  15.160  0.3665  0.0169  0.3918
11714W        W13864  28.538   1.806   1.365  0.0674 -0.0046  0.1278
11715W        W13865  10.572   2.752  24.223 -0.1476 -0.2726 -0.3202
11716W        W13866  10.083   3.293   8.731 -0.1216  0.1386 -0.0759
11717W        W13867   7.427   6.041  22.223 -0.3291  0.0003  0.2332
11718W        W13868  13.812   7.208   9.479 -0.0652  0.1980  0.1624
11719W        W13869   2.804   4.286  23.999 -0.0570  0.0697 -0.1640
11720W        W13870   1.743   7.417   5.042 -0.2436 -0.2387 -0.0065
11721W        W13871   2.949   4.088  22.691 -0.1683  0.1719  0.1436
11722W        W13872   4.738   0.123  15.302 -0.2031 -0.0616 -0.1162
11723W        W13873  25.216   2.641   9.073  0.0473 -0.1507 -0.2762
11724W        W13874  24.934   1.690   5.823 -0.1633 -0.0584  0.3322
11725W        W13875  29.513   6.046   1.043  0.0588 -0.2315 -0.1065
11726W        W13876   1.079   6.946  22.230  0.0294 -0.3102 -0.1506
11727W        W13877   0.281   1.360   5.508  0.1779 -0.0423 -0.1861
11728W        W13878  27.401   7.696  17.293 -0.0806 -0.0819 -0.1314
11729W        W13879  26.746   0.548   9.794 -0.0417 -0.4732  0.0540
11730W        W13880   8.835   4.650  25.574 -0.0640  0.1995  0.0224
11731W        W13881  14.881   4.020  19.921 -0.2685 -0.0368 -0.0328
11732W        W13882  30.680   6.596  21.729 -0.0098 -0.1540 -0.3296
11733W        W13883  23.124   3.877  19.152  0.2801 -0.0636 -0.0067
11734W        W13884  26.317   1.366  21.422  0.2570 -0.2886  0.0841
11735W        W13885  11.038   6.332  22.835  0.0973  0.0542  0.1623
11736W        W13886  27.379   2.661   4.927  0.2023 -0.0371  0.0141
11737W        W13887  18.232   4.148   6.207 -0.1479 -0.3344  0.2529
11738W        W13888  11.879   6.810  11.084  0.0668 -0.1044 -0.2114
11739W        W13889  18.549   7.800   7.566  0.1508  0.3536 -0.0630
11740W        W13890  19.523   2.992  10.180  0.1066 -0.2966  0.1125
11741W        W13891  25.113   5.534  19.623  0.3586  0.1555  0.0622
11742W        W13892   1.966   3.182   6.873  0.3508 -0.1562 -0.0591
11743ION     NA13893   7.172   5.195  19.764 -0.3097  0.0732 -0.2007
11744ION     NA13894  13.171   3.833  23.470 -0.0709 -0.1456  0.4699
11745ION     NA13895   0.759   7.778  18.227  0.0933 -0.0777 -0.0168
11746ION     NA13896  27.109   3.854  18.586 -0.2363 -0.4354  0.2009
11747ION     NA13897  15.593   0.415  23.624  0.1861 -0.1293 -0.2814
11748ION     NA13898  27.587   5.467   8.473  0.5460 -0.6719 -0.1755
11749ION     NA13899   6.556   0.976   4.590  0.0151 -0.1997 -0.1806
11750ION     NA13900   9.915   7.139  10.222 -0.4053  0.0318 -0.1867
11751ION     NA13901   2.461   7.085  24.139  0.1976  0.1276 -0.4915
11752ION     NA13902  19.065   0.877   5.010  0.2289 -0.1634  0.1417
11753ION     NA13903   0.198   0.210  19.419  0.6753  0.1955 -0.2066
11754ION     NA13904  18.295   7.688   6.754  0.5545 -0.2387  0.0175
11755ION     NA13905  29.719   1.012   7.773 -0.0806 -0.2944 -0.3877
11756ION     NA13906  13.008   0.704  26.252  0.3552 -0.2697 -0.4162
11757ION     NA13907  14.744   6.641   8.076 -0.0643 -0.1118  0.4121
11758ION     NA13908   3.725   5.302  18.198  0.1466 -0.0186 -0.7652
11759ION     NA13909  26.882   6.876  23.652  0.2518  0.2418  0.1420
11760ION     NA13910  18.977   3.391   1.431 -0.1984  0.4083  0.5072
11761ION     NA13911  17.183   5.817   5.522  0.5183 -0.1098  0.0195
11762ION     NA13912   9.984   4.230   4.411 -0.3246  0.3383 -0.0514
11763ION     NA13913  22.017   5.436  25.060  0.1655 -0.1791 -0.1681
11764ION     NA13914  14.019   0.444  22.067  0.1777  0.0168  0.0815
11765ION     NA13915  12.372   6.110  22.244 -0.1843 -0.4212 -0.1915
11766ION     NA13916   3.340   6.230   5.466 -0.0481  0.1031  0.0502
11767ION     NA13917  26.776   3.549   8.801 -0.2424  0.0647  0.2163
11768ION     NA13918  25.691   5.740  25.210  0.2594 -0.3743 -0.0552
11769ION     NA13919   1.956   1.671   9.170 -0.2507 -0.0381 -0.6178
11770ION     NA13920  16.590   4.027  22.707 -0.4451 -0.1306  0.0160
11771ION     NA13921  26.041   7.333  26.152  0.0530 -0.1491 -0.0228
11772ION     NA13922  28.393   0.828   2.710 -0.0140  0.4723  0.2029
11773ION     NA13923  12.053   7.352  24.318  0.0104  0.3685 -0.0757
11774ION     NA13924   3.629   0.983  24.624  0.2117 -0.1439 -0.5371
11775ION     NA13925  15.265   5.195  19.641 -0.2285  0.3808  0.5156
11776ION     NA13926  27.622   6.267  22.379  0.0036  0.2656 -0.2431
11777ION     NA13927   8.067   4.628  25.296 -0.0800 -0.7880  0.2658
11778ION     NA13928   9.660   1.509   4.286  0.3076  0.1954 -0.1488
11779ION     NA13929  24.963   0.836   6.882  0.0980 -0.1291  0.4281
11780ION     NA13930  19.315   6.665  10.656  0.0256  0.3726 -0.0437
11781ION     NA13931  24.106   0.297  10.451 -0.0292  0.3794 -0.3379
11782ION     NA13932  28.854   5.751   7.395 -0.2681 -0.0069  0.1235
11783ION     NA13933   1.276   1.953  24.298  0.2467  0.2476  0.0664
11784ION     NA13934  22.458   3.761  24.819 -0.1926  0.2014 -0.1265
11785ION     NA13935  29.916   6.803  18.213  0.3510 -0.0216 -0.1136
11786ION     NA13936  12.500   4.211   5.152 -0.1074  0.0810  0.9905
11787ION     NA13937   9.463   4.978   8.983  0.0035  0.3076 -0.4187
11788ION     NA13938   5.542   0.295  21.344 -0.0105  0.2046  0.1397
11789ION     NA13939  21.933   2.366   4.619 -0.2979  0.4679  0.0793
11790ION     NA13940  21.414   1.080  10.374  0.3302  0.5220  0.1200
11791ION     NA13941  14.618   2.033   3.408 -0.0685  0.3942  0.4725
11792ION     NA13942   8.319   5.096   9.451 -0.4016  0.3969 -0.0434
11793ION     NA13943  20.569   6.957   3.756  0.8030  0.1944 -0.0274
11794ION     NA13944  10.635   7.775   8.936 -0.0572 -0.1185 -0.1293
11795ION     NA13945  23.462   4.780   3.867  0.1316 -0.4678  0.0173
11796ION     NA13946   9.095   7.560  25.507 -0.3031 -0.2767 -0.1102
11797ION     NA13947  20.350   2.261  17.800  0.3834 -0.1041  0.2496
11798ION     NA13948  13.940   6.800  20.692  0.1790 -0.5079  0.0481
11799ION     NA13949  25.014   0.359  25.482  0.0569 -0.3495  0.1191
11800ION     NA13950   0.374   4.423   7.385  0.0595  0.2745 -0.1550
11801ION     NA13951  26.848   3.266   5.692 -0.0877 -0.3241 -0.2209
11802ION     NA13952  10.137   0.663   8.995 -0.1001 -0.2295 -0.3255
11803ION     NA13953  23.388   4.187   0.106  0.5399  0.6534 -0.3014
11804ION     NA13954  23.443   5.159  23.626 -0.2327 -0.2816 -0.0733
11805ION     NA13955   9.968   2.408   8.528  0.2085  0.2353 -0.1557
11806ION     NA13956  27.675   4.083  21.392 -0.1415  0.2281  0.0826
11807ION     NA13957  17.367   0.644  15.419  0.2434  0.0914 -0.2387
11808ION     NA13958  24.655   4.801  20.824 -0.3336 -0.1304  0.5582
11809ION     NA13959  28.773   5.628  21.619 -0.2089 -0.0103 -0.3622
11810ION     NA13960  27.211   2.305   9.127  0.0139 -0.1415  0.1623
11811ION     NA13961   5.833   1.806   6.432  0.4546  0.1929 -0.0721
11812ION     NA13962  24.266   6.131   2.167  0.2318 -0.4536  0.1065
11813ION     NA13963   6.490   3.119  21.722 -0.2296 -0.0793  0.0117
11814ION     NA13964  18.748   3.210   9.795  0.2055  0.0007  0.5277
11815ION     NA13965  27.030   4.456   1.458  0.1023  0.3492  0.0837
11816ION     NA13966  12.679   1.546   9.941  0.2878 -0.3071 -0.1411
11817ION     NA13967  22.195   5.531  17.634 -0.2610  0.3243 -0.0660
11818ION     NA13968  30.718   1.988  19.246  0.1399  0.1337 -0.1690
11819ION     NA13969  21.432   1.017  18.792  0.3368 -0.1307  0.0024
11820ION     NA13970  26.844   4.768   3.050  0.1187  0.1369  0.0847
11821ION     NA13971   5.859   7.643   2.958 -0.1785 -0.3086  0.9107
11822ION     NA13972   3.721   0.109  17.472  0.1160 -0.1097 -0.3129
11823ION     NA13973  20.839   3.760   7.957 -0.2789  0.3125  0.1692
11824ION     NA13974   5.245   1.021  20.202  0.2309  0.2249  0.0853
11825ION     NA13975  18.063   1.811  10.802 -0.0374 -0.0585 -0.2902
11826ION     NA13976   5.146   1.006   8.876 -0.0694 -0.0752 -0.0377
11827ION     NA13977   6.562   5.974  17.791 -0.6562 -0.3206 -0.0959
11828ION     NA13978  12.840   7.332  22.212 -0.1095  0.6703 -0.0851
11829ION     NA13979  23.518   6.900  22.716 -0.0738 -0.1423 -0.1522
11830ION     NA13980   5.314   3.642   6.217 -0.1957 -0.1349  0.0860
11831ION     NA13981  10.024   6.698  22.295  0.2755  0.2877 -0.0350
11832ION     NA13982  29.615   0.513  20.021  0.0084  0.0264 -0.4314
11833ION     NA13983  15.354   7.061   2.153 -0.2232  0.1020  0.2920
11834ION     NA13984  17.137   1.727  10.081  0.0323 -0.2644 -0.0325
11835ION     NA13985  20.754   0.399   6.046 -0.0028 -0.1857 -0.2143
11836ION     NA13986  29.847   1.227  22.818 -0.2544 -0.0641  0.2215
11837ION     NA13987  19.944   7.106  20.200 -0.2231 -0.1225 -0.1962
11838ION     NA13988  20.802   4.026   1.637  0.2164  0.0981 -0.2560
11839ION     NA13989   7.925   6.161   4.941 -0.2513  0.2044 -0.1484
11840ION     NA13990  14.976   0.638  20.195  0.2679  0.1061  0.1985
11841ION     NA13991  26.774   3.261  15.531 -0.1657 -0.1955  0.3673
11842ION     NA13992  23.192   0.047   9.691  0.0886  0.1961  0.0319
11843ION     NA13993  13.880   5.419   6.005 -0.0288  0.2953 -0.2078
11844ION     NA13994  11.113   7.322  25.837 -0.0930 -0.1598  0.0330
11845ION     NA13995   8.647   7.643   8.724 -0.0381  0.1097  0.1438
11846ION     NA13996   4.592   4.061   2.963 -0.1061 -0.2363 -0.5253
11847ION     NA13997   1.309   5.526  23.860  0.3367 -0.3825 -0.3188
11848ION     NA13998  10.081   2.328   2.710 -0.1878  0.1173 -0.0899
11849ION     NA13999  24.145   0.510  19.247  0.2359 -0.1119 -0.1769
11850ION     NA14000  17.308   2.492  26.080 -0.6535 -0.0975 -0.0372
11851ION     NA14001   7.577   6.402   8.125 -0.1207  0.0370  0.0897
11852ION     NA14002  13.159   1.680   8.960 -0.2126  0.1160  0.0117
11853ION     NA14003   7.652   3.301  23.195  0.0714 -0.1915 -0.0178
11854ION     NA14004  20.097   3.945  24.087 -0.1687 -0.1891 -0.3028
11855ION     NA14005  13.487   7.677   2.877 -0.3385 -0.0404 -0.2200
11856ION     NA14006   8.392   5.808   2.767  0.2347 -0.1204  0.2681
11857ION     NA14007  19.192   5.785  18.774  0.3016  0.4124 -0.0502
11858ION     NA14008   0.022   1.315  10.074 -0.4266  0.4266 -0.3848
11859ION     NA14009  16.001   3.186   2.295  0.2781  0.1999  0.3192
11860ION     NA14010  28.719   0.287  20.025  0.3061 -0.1531 -0.0539
11861ION     NA14011  11.978   6.857  25.345 -0.3772  0.1943 -0.3141
11862ION     NA14012  30.822   5.280   8.020  0.4582 -0.3756  0.0315
11863ION     NA14013  22.636   3.091   8.183 -0.0984 -0.2315 -0.2134
11864ION     NA14014  13.602   7.495   1.257 -0.1437  0.0143 -0.0309
11865ION     NA14015   4.366   0.180   3.196  0.3756  0.2590  0.0035
11866ION     NA14016  31.041   6.532   3.454 -0.2692  0.2505 -0.1065
11867ION     NA14017  13.841   1.286   8.848 -0.1618 -0.0574  0.2388
11868ION     NA14018  12.360   7.168  21.793  0.1899 -0.1660 -0.0864
11869ION     NA14019  24.927   7.286   6.396 -0.3840  0.2413  0.3622
11870ION     NA14020  27.052   3.587   0.031 -0.0333 -0.2149 -0.3586
11871ION     NA14021  27.944   2.138  25.357 -0.7384 -0.0719 -0.1035
11872ION     NA14022  15.208   0.440   8.187  0.4926  0.1978  0.2667
11873ION     NA14023  15.609   0.513   7.208  0.3575  0.3563 -0.6475
11874ION     NA14024  27.435   2.634   7.187  0.0212  0.0703  0.1661
11875ION     NA14025  26.459   2.921  19.277  0.0318  0.1115 -0.2758
11876ION     NA14026  14.278   6.362  24.372 -0.0715  0.0321 -0.0376
11877ION     NA14027  28.436   4.014  15.290 -0.0929  0.1860  0.2811
11878ION     NA14028   1.634   6.482   2.400 -0.1974 -0.1880  0.1355
11879ION     NA14029   5.612   2.719   0.306 -0.2837 -0.2149 -0.1831
11880ION     NA14030   2.769   4.465  21.224  0.1549  0.0081 -0.0476
11881ION     NA14031  10.100   4.922  23.599  0.4379 -0.0825  0.0997
11882ION     NA14032  17.336   4.635  19.698  0.2389  0.0174 -0.0579
11883ION     NA14033  30.975   2.638   2.778  0.4120 -0.1064 -0.1637
11884ION     NA14034  23.422   4.518   4.619  0.0329  0.0106 -0.1020
11885ION     NA14035  21.684   4.457  17.060 -0.0173  0.5694 -0.4617
11886ION     NA14036  12.011   6.919   6.081 -0.5736 -0.3568 -0.0011
11887ION     NA14037  23.821   7.786  16.462 -0.4022 -0.0805  0.0216
11888ION     NA14038   3.312   3.632   8.718  0.3451 -0.0599 -0.0681
11889ION     NA14039  18.175   7.470   8.725  0.0605  0.2610 -0.3669
11890ION     NA14040   2.564   5.965  15.987 -0.3678 -0.3751 -0.0302
11891ION     NA14041   9.638   7.340   6.555 -0.1923  0.4188 -0.0983
11892ION     NA14042  13.620   2.666   0.813  0.7781  0.3268  0.1349
11893ION     NA14043  22.777   0.885  22.110 -0.3816 -0.2190 -0.0201
11894ION     NA14044  18.121   0.433   9.867 -0.0929  0.1403 -0.1245
11895ION     NA14045  16.188   6.880   5.870 -0.0091 -0.0111  0.1831
11896ION     NA14046  16.881   4.047  20.706 -0.1977 -0.3015 -0.0403
11897ION     NA14047   5.237   3.296   4.876 -0.0352  0.2155 -0.2582
11898ION     NA14048   1.394   4.302  25.291 -0.0927 -0.2309 -0.1994
11899ION     NA14049   4.528   6.887  20.546 -0.1823 -0.1496  0.1760
11900ION     NA14050  30.704   2.662   0.391  0.1806  0.0491 -0.2524
11901ION     NA14051  22.347   0.490   5.148 -0.2064 -0.1996 -0.0595
11902ION     NA14052   1.112   0.468  20.204  0.0869  0.0408  0.2860
11903ION     NA14053  21.629   2.861  24.137 -0.1620  0.3320 -0.1582
11904ION     NA14054   1.268   5.782   5.242 -0.5105  0.1813 -0.1750
11905ION     NA14055   8.245   2.441  25.963 -0.0394  0.0767  0.2034
11906ION     NA14056  26.512   1.651   4.963  0.1005 -0.1502 -0.1715
11907ION     NA14057  20.127   6.272  18.504 -0.0642 -0.0725  0.0292
11908ION     NA14058  28.770   4.863  25.436 -0.3029  0.3775 -0.5579
11909ION     NA14059  30.282   3.650   5.933 -0.0115  0.0008 -0.0774
11910ION     NA14060  26.401   4.180   8.460 -0.2135  0.0882 -0.0879
11911ION     NA14061   0.247   3.967  23.464 -0.1499  0.0990 -0.0923
11912ION     NA14062  30.208   3.838   1.660 -0.2203  0.1193  0.1942
11913ION     NA14063  26.794   4.754  24.101 -0.2318  0.4438  0.4213
11914ION     NA14064   0.264   0.176  25.210  0.2905 -0.1011 -0.1027
11915ION     NA14065  14.048   2.435  15.755 -0.0549  0.1635 -0.3707
11916ION     NA14066  21.005   5.917  20.849  0.0457 -0.2058 -0.3183
11917ION     NA14067  20.871   2.378  20.704  0.2395 -0.0610  0.4212
11918ION     NA14068  22.780   1.856   3.684  0.5584 -0.6582  0.5401
11919ION     NA14069  25.858   7.296  22.039 -0.5019  0.1450  0.1356
11920ION     NA14070  13.583   3.442  15.837  0.2429 -0.2226 -0.3779
11921ION     NA14071   7.718   5.048  15.858 -0.1441  0.3408 -0.5881
11922ION     NA14072   3.909   5.832  19.655 -0.1750  0.1133  0.3913
11923ION     NA14073  13.526   1.519   0.259 -0.2132 -0.2784  0.2193
11924ION     NA14074  19.839   3.318  20.588  0.3934  0.1508 -0.4100
11925ION     NA14075  15.267   3.914  22.042 -0.0686  0.3519  0.2007
11926ION     NA14076  24.867   1.879   7.509 -0.2893 -0.2070  0.4902
11927ION     NA14077   6.082   1.273   7.155 -0.1595  0.0744 -0.4223
11928ION     NA14078   2.550   2.335  21.698 -0.0657  0.1295 -0.0398
11929ION     NA14079   4.834   7.400  26.332  0.2441  0.0892  0.6012
11930ION     NA14080  26.658   1.180   4.467  0.0969 -0.2967 -0.2963
11931ION     NA14081   0.588   4.787  26.118 -0.1188  0.2771 -0.5482
11932ION     NA14082  11.785   4.354  16.846 -0.0666 -0.0722 -0.4418
11933ION     NA14083  18.562   4.984  24.294  0.1424  0.3536 -0.3376
11934ION     NA14084   1.546   0.382  16.060 -0.2212  0.5942 -0.1044
11935ION     NA14085  11.102   3.553  23.525 -0.4256  0.4700 -0.0928
11936ION     NA14086   4.942   2.210  21.128  0.0842 -0.0307 -0.1551
11937ION     NA14087  20.521   1.573   5.091  0.0657  0.1720 -0.5617
11938ION     CL14088  30.235   7.548  19.943 -0.2721 -0.2301  0.0390
11939ION     CL14089   3.647   6.134   1.465 -0.1176  0.0221  0.3358
11940ION     CL14090  30.571   0.019   1.115 -0.4461  0.3603 -0.1633
11941ION     CL14091  12.287   3.706  22.654  0.0018 -0.2715  0.1952
11942ION     CL14092  19.313   3.677  25.010 -0.0426  0.4220 -0.0678
11943ION     CL14093  29.114   4.335   0.191  0.0979 -0.0376  0.2567
11944ION     CL14094  10.380   0.417   5.368 -0.1321  0.1086 -0.5338
11945ION     CL14095  19.163   1.789   2.755  0.0580  0.1136  0.1495
11946ION     CL14096   6.994   3.284  24.212  0.0348 -0.4108 -0.0516
11947ION     CL14097  14.573   6.922   8.045  0.5777  0.2541 -0.3030
11948ION     CL14098  30.592   6.559  18.284 -0.0663  0.1722 -0.4511
11949ION     CL14099  11.048   6.799   1.194  0.5955 -0.2265  0.1500
11950ION     CL14100  21.725   1.630   1.359  0.0893  0.0377  0.0823
11951ION     CL14101  16.282   1.470   1.606 -0.1810  0.1007  0.3369
11952ION     CL14102  27.452   4.821   2.295 -0.0850 -0.1962  0.1343
11953ION     CL14103  19.773   6.552   6.438  0.2971 -0.5982 -0.2483
11954ION     CL14104  14.906   0.256  19.102 -0.3516  0.0648 -0.1133
11955ION     CL14105  12.750   5.727   9.979 -0.4365  0.0654  0.0310
11956ION     CL14106  10.727   4.323   5.143 -0.2358  0.4087  0.4700
11957ION     CL14107  18.727   4.414   3.686 -0.1193 -0.1098  0.1396
11958ION     CL14108   1.514   1.907  16.434 -0.3332 -0.5546 -0.1304
11959ION     CL14109   6.769   3.137   6.052  0.4971  0.0775  0.4465
11960ION     CL14110  25.363   4.389  19.280 -0.4898  0.1897 -0.2232
11961ION     CL14111  21.769   5.754   7.901  0.2639 -0.1733  0.1097
11962ION     CL14112  17.228   2.457  25.683 -0.1530  0.0422  0.7592
11963ION     CL14113  12.159   3.264  20.371 -0.2860 -0.1805 -0.2633
11964ION     CL14114  21.127   2.606   4.408 -0.2230  0.0853 -0.4722
11965ION     CL14115  17.523   0.911   1.186  0.2507 -0.0900 -0.2892
11966ION     CL14116   3.411   1.987  17.067 -0.1252 -0.3220 -0.1711
11967ION     CL14117  10.771   3.699  17.054  0.0819  0.2224 -0.0452
11968ION     CL14118  18.806   1.722   0.266  0.3247 -0.0632 -0.3856
11969ION     CL14119   9.344   2.085   8.427 -0.0128  0.1456  0.3237
11970ION     CL14120   9.366   2.997  10.172  0.0910 -0.4911  0.2785
11971ION     CL14121  14.597   3.655   8.226 -0.2041 -0.0861 -0.3479
11972ION     CL14122   4.044   5.405  18.301  0.5082 -0.2649 -0.2325
11973ION     CL14123  13.186   5.416  24.991 -0.0384  0.3599  0.1280
11974ION     CL14124  11.944   4.533   9.105  0.1707  0.1085 -0.1160
11975ION     CL14125   8.632   4.965  19.875 -0.1205 -0.4721 -0.0703
11976ION     CL14126  19.336   3.367   2.864 -0.1107  0.4259  0.2922
11977ION     CL14127  29.329   4.854   6.491  0.4895 -0.1584 -0.1696
11978ION     CL14128  26.586   7.030  24.232 -0.1211  0.0963 -0.1797
11979ION     CL14129  25.763   4.035  23.946  0.5040 -0.2340  0.1568
11980ION     CL14130  23.152   4.558  25.583  0.0440  0.1939 -0.4357
11981ION     CL14131  15.233   3.355  21.868 -0.2280  0.2368  0.0510
11982ION     CL14132  25.609   3.360  21.348 -0.0784  0.4746  0.2963
11983ION     CL14133   1.856   4.517  24.479 -0.0278  0.2911 -0.1878
11984ION     CL14134  21.019   1.175  17.709 -0.2121  0.6918 -0.0158
11985ION     CL14135  17.135   3.237  24.269 -0.0300 -0.1306 -0.0707
11986ION     CL14136   5.056   0.948  19.891 -0.0164 -0.3009 -0.1061
11987ION     CL14137  16.100   3.263   6.103  0.3118  0.3463 -0.0317
11988ION     CL14138  15.371   1.867  24.337  0.2657  0.1910  0.4199
11989ION     CL14139  26.336   3.459  16.909  0.2978  0.3435 -0.3733
11990ION     CL14140  29.301   6.881  22.152 -0.0725  0.3170  0.0456
11991ION     CL14141  13.607   4.110   8.352 -0.0119 -0.5946  0.0083
11992ION     CL14142  26.980   3.133  16.062 -0.2908 -0.1630 -0.3706
11993ION     CL14143  25.358   0.656  19.613 -0.3740 -0.2136 -0.0228
11994ION     CL14144  15.176   7.169  21.614  0.4641  0.0246 -0.1758
11995ION     CL14145  30.767   2.388  17.040 -0.3034  0.0144  0.5112
11996ION     CL14146   0.086   2.121   9.011  0.3203 -0.0936 -0.0719
11997ION     CL14147  23.577   5.144   4.051 -0.4255  0.1197  0.2382
11998ION     CL14148  25.080   2.068  18.825 -0.0925  0.0228  0.4956
11999ION     CL14149   6.295   0.831   4.428  0.0344 -0.2866 -0.3850
12000ION     CL14150  15.670   3.902  26.042 -0.4912  0.7836  0.2236
12001ION     CL14151  25.171   0.530   8.409  0.0227  0.4691 -0.0838
12002ION     CL14152   6.967   6.223   0.333 -0.2320  0.2411 -0.2305
12003ION     CL14153   9.998   7.125   9.896 -0.1624  0.0312 -0.1798
12004ION     CL14154   5.971   5.300  25.439  0.2284 -0.0677 -0.0870
12005ION     CL14155   7.338   6.351   7.536 -0.4641 -0.1914 -0.0185
12006ION     CL14156  24.239   6.912  22.059  0.4613  0.7826  0.2406
12007ION     CL14157  12.742   4.892   5.297 -0.0038 -0.3589 -0.4159
12008ION     CL14158  26.118   4.638  20.217  0.2685 -0.2386  0.1411
12009ION     CL14159  22.561   4.826  26.258 -0.1411  0.1998  0.0845
12010ION     CL14160  24.084   7.116   8.682  0.1023 -0.1551  0.2476
12011ION     CL14161  27.604   2.248  22.787 -0.0036 -0.0149 -0.1050
12012ION     CL14162   3.021   1.147  25.977  0.2308  0.1353 -0.1074
12013ION     CL14163   8.605   2.670  19.862  0.0189  0.1874 -0.4098
12014ION     CL14164  30.335   3.799  22.916 -0.0631  0.0122  0.0741
12015ION     CL14165  17.246   5.967  21.377  0.2771 -0.4361  0.4469
12016ION     CL14166  27.906   4.280  21.821  0.3349 -0.4463  0.4637
12017ION     CL14167  19.008   6.701   9.520  0.3034 -0.2587  0.2667
12018ION     CL14168   0.246   3.694  10.292  0.1617 -0.3232  0.1606
12019ION     CL14169  24.101   3.999  25.521 -0.1785  0.0245 -0.0772
12020ION     CL14170   9.281   4.013  23.479 -0.1751 -0.4658  0.7716
12021ION     CL14171  10.465   1.986  17.708  0.2356 -0.2735  0.1295
12022ION     CL14172   0.288   0.931   5.168  0.0587 -0.4881 -0.1258
12023ION     CL14173  13.842   3.964  23.320 -0.4353 -0.3880 -0.5114
12024ION     CL14174  14.171   0.861  20.080  0.2998  0.0199  0.1084
12025ION     CL14175  26.615   4.051  23.739  0.0168 -0.2162 -0.2121
12026ION     CL14176  12.313   7.412  16.069  0.2421  0.4018 -0.3956
12027ION     CL14177   8.167   5.192  24.404  0.3564  0.2945  0.1968
12028ION     CL14178  14.133   2.131  22.546 -0.0200 -0.0978 -0.2399
12029ION     CL14179   3.743   5.972  19.416 -0.0201 -0.2818  0.1151
12030ION     CL14180   5.825   3.949  18.764  0.3146  0.1593  0.0812
12031ION     CL14181  24.647   4.307  16.993  0.4883  0.0128 -0.1151
12032ION     CL14182   8.169   5.330   8.837 -0.1996 -0.2582 -0.0504
12033ION     CL14183  23.756   1.498  24.715  0.0190  0.2287 -0.3891
12034ION     CL14184  27.029   0.214   9.775  0.1313  0.1029 -0.3028
12035ION     CL14185  10.604   0.570  21.562  0.2341 -0.0315 -0.1663
12036ION     CL14186  30.067   3.764   6.218 -0.3416 -0.6233 -0.5133
12037ION     CL14187  30.777   1.404  10.650 -0.2029 -0.0785 -0.2540
12038ION     CL14188   2.961   0.690   8.935  0.0193  0.2098 -0.0678
12039ION     CL14189  18.233   2.213  20.260 -0.0775  0.2883  0.3152
12040ION     CL14190  24.268   7.214  19.590  0.2183 -0.4345 -0.1104
12041ION     CL14191  25.900   1.499   1.964 -0.1051 -0.5037  0.4162
12042ION     CL14192   0.719   4.945   0.101 -0.5239  0.2575  0.3577
12043ION     CL14193  26.967   3.124  18.658 -0.3168 -0.0347 -0.1134
12044ION     CL14194  17.828   2.235   0.438 -0.0049 -0.1227  0.0631
12045ION     CL14195  29.133   2.386  26.156 -0.1309 -0.0990 -0.0684
12046ION     CL14196  30.355   4.114   1.781 -0.3146 -0.1600 -0.2652
12047ION     CL14197  21.960   3.111   0.062 -0.4668  0.1692 -0.0322
12048ION     CL14198   2.495   2.564  20.054  0.1959 -0.5159 -0.1360
12049ION     CL14199   8.855   2.758   0.561 -0.3050 -0.4058  0.2737
12050ION     CL14200  30.272   3.364  19.759 -0.3800 -0.2923 -0.1986
12051ION     CL14201  22.905   0.859   6.273  0.0204  0.0920  0.0318
12052ION     CL14202  22.631   4.496  20.954  0.0489 -0.1132  0.3379
12053ION     CL14203   7.394   6.768  21.929  0.0709 -0.2707  0.0649
12054ION     CL14204   8.694   0.618  23.336 -0.1527 -0.1596 -0.0589
12055ION     CL14205  22.231   1.856   7.328  0.6922  0.4143  0.1466
12056ION     CL14206  29.232   0.175  21.181  0.0694  0.2424 -0.6973
12057ION     CL14207  20.022   6.746   7.936 -0.0584 -0.2112 -0.3331
12058ION     CL14208  11.048   3.211   0.295  0.1972  0.1143  0.2340
12059ION     CL14209   8.306   5.339   3.037  0.0875 -0.3328 -0.3409
12060ION     CL14210   4.562   4.369  16.682  0.1542 -0.1215 -0.1318
12061ION     CL14211  23.806   6.765  24.467  0.2874  0.3676 -0.5444
12062ION     CL14212  12.440   2.800   2.065 -0.3844 -0.3936 -0.1125
12063ION     CL14213  29.770   0.742   7.399  0.2608 -0.4947  0.1210
12064ION     CL14214  25.575   7.123  21.857  0.2318 -0.2604 -0.0967
12065ION     CL14215  28.389   2.069   6.670  0.4389  0.0554 -0.0483
12066ION     CL14216  18.816   5.209   3.488  0.4354  0.0315  0.0761
12067ION     CL14217   1.629   1.925  20.629 -0.4515  0.1340 -0.1538
12068ION     CL14218  11.667   0.262  18.733  0.3896  0.5237  0.2416
12069ION     CL14219   6.509   4.694   8.339 -0.4022 -0.4588 -0.1912
12070ION     CL14220  16.398   3.903  23.168 -0.0026 -0.1968 -0.4905
12071ION     CL14221  29.751   0.118  22.628 -0.0754  0.3934  0.0840
12072ION     CL14222   1.009   4.447  10.774  0.2183 -0.2491  0.1766
12073ION     CL14223  20.554   2.679  20.806 -0.0879  0.3067 -0.3230
12074ION     CL14224  26.380   5.018  22.370 -0.3317  0.2353 -0.3287
12075ION     CL14225  31.083   0.459   7.542  0.0536 -0.1722 -0.1844
12076ION     CL14226   7.896   0.765   7.664  0.1202  0.1342  0.0647
12077ION     CL14227  16.734   6.372  15.455  0.2498  0.0621 -0.3227
12078ION     CL14228  15.226   4.556   9.439 -0.5764 -0.0745  0.3934
12079ION     CL14229  18.699   7.307   5.517  0.1430 -0.3569 -0.2538
12080ION     CL14230  21.691   4.804  25.298  0.2687  0.2328 -0.1386
12081ION     CL14231  10.510   2.251  21.983 -0.0506  0.3713  0.1209
12082ION     CL14232  18.872   6.629  19.635 -0.7662  0.0575  0.1472
12083DOPC   NC314233   4.300   7.640  15.385 -0.0536  0.1960 -0.2031
12083DOPC   PO414234   4.217   7.984  15.223  0.0877 -0.2333 -0.0627
12083DOPC   GL114235   4.398   8.233  14.960  0.1124  0.0765  0.0183
12083DOPC   GL214236   4.637   8.029  14.904 -0.1789 -0.2064 -0.2595
12083DOPC   C1A14237   4.435   8.591  14.672  0.0595 -0.0843  0.1782
12083DOPC   D2A14238   4.545   8.822  14.238 -0.0175  0.2419 -0.0018
12083DOPC   C3A14239   4.690   9.157  14.000 -0.1552  0.2001  0.2618
12083DOPC   C4A14240   4.846   9.343  13.559  0.0830 -0.2023 -0.1196
12083DOPC   C1B14241   4.567   7.997  14.515 -0.0557  0.0887  0.1474
12083DOPC   D2B14242   4.347   7.920  14.096 -0.0375  0.3042  0.0890
12083DOPC   C3B14243   4.038   8.099  13.803  0.2736 -0.1544  0.2540
12083DOPC   C4B14244   3.814   8.000  13.370  0.1981 -0.2416  0.2280
12084DOPC   NC314245  26.758   7.293  16.041 -0.0419 -0.3102 -0.3130
12084DOPC   PO414246  26.747   7.239  15.685 -0.1088 -0.0433 -0.2274
12084DOPC   GL114247  26.631   7.413  15.337  0.0027  0.3987 -0.1062
12084DOPC   GL214248  26.862   7.519  15.230 -0.2482 -0.3511  0.0422
12084DOPC   C1A14249  26.379   7.162  15.106 -0.0134  0.0630 -0.1709
12084DOPC   D2A14250  26.047   6.769  15.032  0.2156 -0.0101  0.2108
12084DOPC   C3A14251  25.572   6.908  15.051 -0.1083  0.0304 -0.0915
12084DOPC   C4A14252  25.126   6.742  15.096  0.0429  0.0761  0.1201
12084DOPC   C1B14253  26.720   7.370  14.858  0.3730  0.3294 -0.1085
12084DOPC   D2B14254  26.335   7.315  14.590 -0.3333 -0.0556  0.2174
12084DOPC   C3B14255  26.382   7.407  14.204 -0.2213  0.2199 -0.2355
12084DOPC   C4B14256  26.499   7.743  13.823  0.1227  0.0003 -0.1184
12085DOPC   NC314257  16.965   4.138  14.794 -0.1850  0.3223  0.0635
12085DOPC   PO414258  16.723   3.872  14.591 -0.0465 -0.0637  0.2669
12085DOPC   GL114259  16.483   3.893  14.269  0.0026  0.4051 -0.2728
12085DOPC   GL214260  16.569   3.619  14.208 -0.2390 -0.0029  0.2672
12085DOPC   C1A14261  16.238   4.157  14.021 -0.2278  0.0648 -0.4942
12085DOPC   D2A14262  15.939   4.417  13.637 -0.1026  0.0369 -0.1152
12085DOPC   C3A14263  15.803   4.109  13.326 -0.1190 -0.1647  0.0031
12085DOPC   C4A14264  15.773   3.715  13.038  0.0986 -0.0595  0.1799
12085DOPC   C1B14265  16.628   3.501  13.779 -0.0678  0.1177  0.1268
12085DOPC   D2B14266  16.644   3.405  13.317 -0.2177 -0.0085  0.1128
12085DOPC   C3B14267  16.906   3.464  12.916 -0.0132  0.0959 -0.0827
12085DOPC   C4B14268  16.958   3.182  12.514 -0.3064  0.1969  0.0788
12086DOPC   NC314269   5.657   5.461  15.424 -0.1208 -0.2828  0.0010
12086DOPC   PO414270   5.383   5.225  15.269  0.2889 -0.4926  0.2450
12086DOPC   GL114271   5.541   5.050  14.896 -0.1036 -0.0749  0.0050
12086DOPC   GL214272   5.814   5.251  14.955  0.0074 -0.0705  0.1069
12086DOPC   C1A14273   5.346   4.834  14.487  0.0821 -0.1695 -0.0692
12086DOPC   D2A14274   5.223   4.574  14.111  0.1262 -0.1523 -0.0229
12086DOPC   C3A14275   5.215   4.567  13.595  0.0167 -0.1040  0.1367
12086DOPC   C4A14276   5.240   4.376  13.154 -0.2347  0.1479  0.1841
12086DOPC   C1B14277   5.930   5.372  14.608  0.1430 -0.1949  0.0675
12086DOPC   D2B14278   6.138   5.527  14.247 -0.1362  0.2034  0.0121
12086DOPC   C3B14279   6.015   5.676  13.803 -0.1108 -0.0970 -0.0636
12086DOPC   C4B14280   5.746   5.834  13.411 -0.0765 -0.1236  0.1597
12087DOPC   NC314281  20.760   2.569  15.748 -0.1395 -0.0006 -0.1108
12087DOPC   PO414282  20.583   2.464  15.412 -0.0569 -0.2048 -0.0552
12087DOPC   GL114283  20.649   2.555  15.074  0.5471 -0.1021 -0.1550
12087DOPC   GL214284  20.488   2.839  15.096 -0.1702  0.0033 -0.2534
12087DOPC   C1A14285  21.015   2.455  14.844 -0.0525 -0.0678  0.1913
12087DOPC   D2A14286  21.097   1.963  14.664  0.0500 -0.2969 -0.2657
12087DOPC   C3A14287  21.021   1.558  14.918 -0.0084 -0.0602 -0.0003
12087DOPC   C4A14288  21.202   1.097  14.828  0.0184  0.1380 -0.0205
12087DOPC   C1B14289  20.233   2.851  14.733  0.0616 -0.1784 -0.1818
12087DOPC   D2B14290  20.094   2.912  14.246  0.1971 -0.0182 -0.0639
12087DOPC   C3B14291  19.946   2.965  13.794  0.0453  0.2180  0.0778
12087DOPC   C4B14292  19.691   2.947  13.400 -0.3031 -0.1815  0.0536
12088DOPC   NC314293   2.182   0.279  15.421 -0.2989  0.1251 -0.3475
12088DOPC   PO414294   1.962   0.527  15.258  0.1172 -0.0990 -0.0617
12088DOPC   GL114295   2.029   0.581  14.849  0.0579 -0.2240  0.0807
12088DOPC   GL214296   2.176   0.307  14.870  0.0851  0.0114 -0.1670
12088DOPC   C1A14297   1.784   0.774  14.502 -0.1157 -0.0347 -0.0784
12088DOPC   D2A14298   1.674   1.132  14.184 -0.0980 -0.2050  0.1340
12088DOPC   C3A14299   1.994   1.232  13.833 -0.1422  0.2166 -0.3193
12088DOPC   C4A14300   2.216   1.250  13.471  0.1586  0.0141  0.1929
12088DOPC   C1B14301   2.262   0.169  14.462  0.1889 -0.1152 -0.1704
12088DOPC   D2B14302   2.606   0.368  14.154  0.1329  0.1743 -0.1402
12088DOPC   C3B14303   2.693   0.250  13.720  0.2039  0.0502  0.1317
12088DOPC   C4B14304   3.076   0.332  13.431 -0.0182 -0.1024 -0.1392
12089DOPC   NC314305  12.258   7.779  15.481 -0.0720  0.0636 -0.1860
12089DOPC   PO414306  12.215   8.105  15.242 -0.4624  0.1567  0.2677
12089DOPC   GL114307  12.150   8.163  14.819  0.1380 -0.0469 -0.0245
12089DOPC   GL214308  12.476   7.952  14.788 -0.0848  0.2382  0.0656
12089DOPC   C1A14309  12.032   8.444  14.524  0.3036 -0.0018 -0.1639
12089DOPC   D2A14310  11.843   8.726  14.189 -0.0040  0.1343 -0.0213
12089DOPC   C3A14311  12.036   8.716  13.735  0.0609  0.0725  0.0932
12089DOPC   C4A14312  12.061   8.816  13.184 -0.0954  0.2511  0.3117
12089DOPC   C1B14313  12.601   7.589  14.501  0.0810  0.2584  0.0175
12089DOPC   D2B14314  12.470   7.328  14.061  0.0579  0.0769  0.0829
12089DOPC   C3B14315  12.503   7.426  13.680  0.0037  0.2655 -0.0447
12089DOPC   C4B14316  12.443   7.482  13.198  0.3452  0.0234 -0.3337
12090DOPC   NC314317   2.832   2.307  14.987 -0.0315 -0.2151  0.0760
12090DOPC   PO414318   2.902   2.696  15.034  0.1150  0.0958  0.0540
12090DOPC   GL114319   3.137   2.930  14.672 -0.1680  0.1907  0.1317
12090DOPC   GL214320   2.856   3.085  14.660 -0.1886 -0.2188 -0.1312
12090DOPC   C1A14321   3.352   2.805  14.271  0.1962  0.1117 -0.0229
12090DOPC   D2A14322   3.414   2.878  13.806 -0.2595 -0.2193 -0.0644
12090DOPC   C3A14323   3.463   2.512  13.559  0.1011 -0.1746  0.0961
12090DOPC   C4A14324   3.344   2.057  13.362 -0.0768  0.1204  0.1432
12090DOPC   C1B14325   2.768   3.035  14.296  0.0117  0.2493  0.1310
12090DOPC   D2B14326   2.426   3.055  13.946  0.1687  0.1648 -0.0105
12090DOPC   C3B14327   2.752   3.022  13.587 -0.2880  0.3831  0.0733
12090DOPC   C4B14328   3.137   2.878  13.305 -0.0797 -0.1965  0.0802
12091DOPC   NC314329  23.658   2.876  15.576 -0.2351  0.0066  0.1934
12091DOPC   PO414330  24.035   2.789  15.471 -0.1275  0.0664 -0.2127
12091DOPC   GL114331  24.178   2.778  15.102  0.1344  0.1468  0.2902
12091DOPC   GL214332  24.181   3.062  15.066 -0.2693 -0.2346 -0.0305
12091DOPC   C1A14333  24.229   2.617  14.668 -0.1364  0.0225  0.1474
12091DOPC   D2A14334  24.010   2.485  14.252  0.2928 -0.2828  0.0422
12091DOPC   C3A14335  24.232   2.250  13.912 -0.0339  0.0505 -0.2576
12091DOPC   C4A14336  24.233   1.850  13.681 -0.0897 -0.2454 -0.0206
12091DOPC   C1B14337  24.423   3.178  14.679  0.2084 -0.0534 -0.0599
12091DOPC   D2B14338  24.783   3.083  14.433  0.0743 -0.0666 -0.0257
12091DOPC   C3B14339  24.819   2.885  14.030  0.0793 -0.0491 -0.1439
12091DOPC   C4B14340  25.087   3.112  13.691  0.3481  0.3550  0.4168
12092DOPC   NC314341  13.859   2.573  15.078 -0.0915  0.0918  0.2826
12092DOPC   PO414342  13.529   2.371  15.131 -0.0863 -0.0689  0.2161
12092DOPC   GL114343  13.332   2.170  14.818  0.3643 -0.0224 -0.0160
12092DOPC   GL214344  13.618   2.136  14.712  0.1086  0.0596  0.0881
12092DOPC   C1A14345  13.035   2.090  14.491  0.1315  0.1041 -0.5678
12092DOPC   D2A14346  12.624   1.890  14.204  0.0957 -0.2190  0.2235
12092DOPC   C3A14347  12.554   1.428  14.143 -0.1394 -0.3614  0.1864
12092DOPC   C4A14348  12.418   0.998  13.979  0.3025 -0.0449 -0.1892
12092DOPC   C1B14349  13.625   2.469  14.463 -0.0942  0.3212  0.4245
12092DOPC   D2B14350  13.519   2.519  13.967 -0.0787 -0.1310 -0.0903
12092DOPC   C3B14351  13.124   2.585  13.701  0.4847  0.2191 -0.1382
12092DOPC   C4B14352  12.714   2.524  13.408  0.2066 -0.0348 -0.2993
12093DOPC   NC314353  20.368   4.995  15.633 -0.0455 -0.1221 -0.0568
12093DOPC   PO414354  20.698   4.862  15.438  0.1162 -0.1077  0.3889
12093DOPC   GL114355  21.031   4.900  15.160  0.0084 -0.5797  0.2111
12093DOPC   GL214356  20.873   4.835  14.900  0.0671 -0.1553 -0.1964
12093DOPC   C1A14357  21.401   4.919  14.900  0.1715 -0.1286  0.0514
12093DOPC   D2A14358  21.473   4.866  14.429 -0.2517 -0.3537 -0.1039
12093DOPC   C3A14359  21.567   4.928  13.911  0.0519 -0.0918  0.1123
12093DOPC   C4A14360  21.866   4.680  13.591  0.0190 -0.0360  0.2091
12093DOPC   C1B14361  21.023   4.978  14.545 -0.1449  0.0226 -0.1061
12093DOPC   D2B14362  21.077   5.095  14.087  0.1437  0.0266 -0.4303
12093DOPC   C3B14363  20.840   4.918  13.723 -0.0126 -0.0705 -0.1443
12093DOPC   C4B14364  20.560   4.582  13.466  0.1153 -0.2816 -0.0782
12094DOPC   NC314365  12.171   3.679  14.745  0.0175  0.1222 -0.3092
12094DOPC   PO414366  12.514   3.534  14.806 -0.1497  0.0326  0.0409
12094DOPC   GL114367  12.784   3.468  14.447 -0.1573  0.3528 -0.2662
12094DOPC   GL214368  12.521   3.207  14.442 -0.0532  0.1011  0.0816
12094DOPC   C1A14369  12.886   3.701  14.117  0.0743 -0.0484 -0.3884
12094DOPC   D2A14370  12.889   4.033  13.718 -0.1209  0.0956 -0.1269
12094DOPC   C3A14371  12.764   4.013  13.252  0.3142  0.1823  0.0074
12094DOPC   C4A14372  13.063   3.970  12.899 -0.0188  0.1021  0.0673
12094DOPC   C1B14373  12.507   3.205  13.990 -0.2004  0.0302  0.1953
12094DOPC   D2B14374  12.310   3.222  13.538 -0.0217 -0.0773  0.0651
12094DOPC   C3B14375  12.437   2.890  13.191 -0.1165 -0.4118 -0.0328
12094DOPC   C4B14376  12.627   2.602  12.857 -0.1225  0.2180  0.0349
12095DOPC   NC314377   8.851   5.327  15.315 -0.1567  0.2772  0.2603
12095DOPC   PO414378   8.834   4.925  15.391  0.2038 -0.0633  0.0151
12095DOPC   GL114379   8.959   4.652  15.146 -0.0442 -0.1796 -0.1254
12095DOPC   GL214380   8.696   4.674  15.034 -0.0387 -0.0355 -0.0869
12095DOPC   C1A14381   9.296   4.656  14.833  0.0248  0.0651  0.0253
12095DOPC   D2A14382   9.619   4.609  14.518  0.4293 -0.1636  0.3991
12095DOPC   C3A14383   9.435   4.406  14.102  0.3930 -0.0774  0.0640
12095DOPC   C4A14384   9.505   4.202  13.665 -0.3045 -0.2717 -0.0788
12095DOPC   C1B14385   8.856   4.876  14.674 -0.1529  0.4081 -0.0145
12095DOPC   D2B14386   9.238   4.850  14.300  0.2535  0.0796 -0.1146
12095DOPC   C3B14387   9.351   4.936  13.893  0.0821  0.0383 -0.1412
12095DOPC   C4B14388   9.266   4.885  13.413 -0.0664  0.0358 -0.0106
12096DOPC   NC314389   4.733   7.089  15.006  0.1859  0.1882  0.2792
12096DOPC   PO414390   4.940   6.823  15.214 -0.2530 -0.0528 -0.1531
12096DOPC   GL114391   5.184   6.828  14.873 -0.0283  0.0742 -0.1085
12096DOPC   GL214392   5.295   6.548  14.926 -0.5001 -0.3841 -0.0259
12096DOPC   C1A14393   5.351   6.830  14.438 -0.0924 -0.1552  0.0911
12096DOPC   D2A14394   5.566   6.761  13.946 -0.1013  0.0968 -0.2304
12096DOPC   C3A14395   5.815   6.774  13.544  0.0902  0.1278 -0.0714
12096DOPC   C4A14396   6.294   6.612  13.352 -0.1256  0.2326  0.1214
12096DOPC   C1B14397   5.255   6.325  14.564  0.2745  0.0240  0.0482
12096DOPC   D2B14398   5.187   6.093  14.208  0.0247  0.0186  0.0124
12096DOPC   C3B14399   5.235   5.972  13.806  0.3579  0.1218  0.2226
12096DOPC   C4B14400   5.175   5.799  13.306  0.2714  0.4259 -0.1282
12097DOPC   NC314401  29.805   1.782  14.795 -0.1026  0.1054  0.3178
12097DOPC   PO414402  29.475   1.897  14.838  0.1404  0.0139 -0.0498
12097DOPC   GL114403  29.409   1.688  14.526  0.1647  0.3004  0.3847
12097DOPC   GL214404  29.249   1.457  14.569  0.1127 -0.0923  0.1316
12097DOPC   C1A14405  29.483   1.714  14.088 -0.0230  0.0578  0.4017
12097DOPC   D2A14406  29.248   1.922  13.663 -0.2043 -0.0759  0.2556
12097DOPC   C3A14407  29.154   1.619  13.297 -0.0208 -0.1958 -0.1289
12097DOPC   C4A14408  29.019   1.298  12.997 -0.0199 -0.3276  0.2487
12097DOPC   C1B14409  29.022   1.558  14.208  0.1183 -0.1620 -0.2232
12097DOPC   D2B14410  28.895   1.621  13.778  0.1699 -0.0611  0.1337
12097DOPC   C3B14411  28.862   1.179  13.482 -0.3905 -0.0287 -0.0834
12097DOPC   C4B14412  28.680   0.733  13.308  0.0296  0.0778 -0.2206
12098DOPC   NC314413   7.818   2.818  15.595  0.1954  0.1751 -0.0681
12098DOPC   PO414414   7.445   2.932  15.494  0.1196 -0.1214  0.1380
12098DOPC   GL114415   7.289   3.110  15.076  0.0786 -0.1227  0.1487
12098DOPC   GL214416   7.486   2.869  15.014  0.0686  0.0809  0.2270
12098DOPC   C1A14417   7.220   3.175  14.639 -0.2460  0.1521  0.0235
12098DOPC   D2A14418   7.049   3.135  14.149  0.3065  0.1985 -0.2714
12098DOPC   C3A14419   7.131   3.154  13.681  0.0395 -0.1096 -0.0099
12098DOPC   C4A14420   7.003   3.023  13.248  0.1902 -0.2371  0.0161
12098DOPC   C1B14421   7.407   2.617  14.663  0.1039  0.2642 -0.1009
12098DOPC   D2B14422   7.166   2.403  14.283  0.3130  0.1849  0.2505
12098DOPC   C3B14423   6.843   2.280  14.005 -0.0204  0.0902 -0.0282
12098DOPC   C4B14424   6.618   2.219  13.589  0.0224 -0.0042  0.1747
12099DOPC   NC314425  26.876   2.468  15.685 -0.0877  0.1726 -0.0612
12099DOPC   PO414426  26.833   2.207  15.386  0.1714 -0.3020 -0.2426
12099DOPC   GL114427  27.229   2.109  15.124 -0.0166  0.1085  0.3823
12099DOPC   GL214428  27.114   1.937  14.968  0.0044 -0.1065 -0.0005
12099DOPC   C1A14429  27.434   2.222  14.752 -0.5158  0.1300  0.2021
12099DOPC   D2A14430  27.511   2.479  14.287  0.1086 -0.2233  0.0041
12099DOPC   C3A14431  27.574   2.396  13.832 -0.3632 -0.0426  0.1999
12099DOPC   C4A14432  27.838   2.522  13.469 -0.2582 -0.0378  0.2355
12099DOPC   C1B14433  27.293   1.616  14.842 -0.2314 -0.0464  0.0249
12099DOPC   D2B14434  27.307   1.433  14.382 -0.0773 -0.1068 -0.3036
12099DOPC   C3B14435  27.223   1.633  13.948 -0.4451  0.2627  0.1039
12099DOPC   C4B14436  27.477   1.643  13.511  0.1269  0.0189 -0.1399
12100DOPC   NC314437  30.364   6.536  14.913 -0.0246 -0.0030  0.0299
12100DOPC   PO414438  30.711   6.428  15.087  0.0042 -0.0563  0.1586
12100DOPC   GL114439  30.790   6.280  14.730  0.2350  0.2019  0.2408
12100DOPC   GL214440  30.508   6.123  14.732 -0.1610  0.0755 -0.1039
12100DOPC   C1A14441  31.021   6.400  14.391 -0.1468  0.0137 -0.0874
12100DOPC   D2A14442  31.304   6.668  14.041 -0.0616  0.3343  0.2074
12100DOPC   C3A14443  31.531   6.793  13.641  0.1104  0.0877  0.0553
12100DOPC   C4A14444  31.887   7.138  13.433 -0.1018 -0.3775  0.1440
12100DOPC   C1B14445  30.403   6.045  14.320  0.1639  0.0299  0.1718
12100DOPC   D2B14446  30.341   5.750  13.928  0.2886  0.2064 -0.1067
12100DOPC   C3B14447  30.265   5.385  13.645 -0.2420  0.0555 -0.0918
12100DOPC   C4B14448  30.105   5.032  13.310 -0.0622  0.1196 -0.0036
12101DOPC   NC314449  15.501   0.156  14.582 -0.0023  0.0958  0.1994
12101DOPC   PO414450  15.621   0.539  14.663 -0.0514 -0.1958  0.1315
12101DOPC   GL114451  15.832   0.575  14.279  0.2693  0.0766  0.2179
12101DOPC   GL214452  15.914   0.840  14.273 -0.1716 -0.1191 -0.2744
12101DOPC   C1A14453  15.691   0.463  13.891 -0.0550  0.4107  0.1544
12101DOPC   D2A14454  15.522   0.385  13.389 -0.0421 -0.0660 -0.0213
12101DOPC   C3A14455  15.277   0.100  13.080 -0.1184  0.0762 -0.1453
12101DOPC   C4A14456  15.051  -0.289  12.916 -0.1845 -0.2525 -0.0341
12101DOPC   C1B14457  15.916   0.989  13.854  0.3049 -0.0161  0.3185
12101DOPC   D2B14458  15.860   1.094  13.325  0.0965  0.0139 -0.2679
12101DOPC   C3B14459  15.591   0.999  12.954  0.3174  0.0111  0.1379
12101DOPC   C4B14460  15.386   0.852  12.558 -0.1064 -0.2573 -0.1103
12102DOPC   NC314461  13.492   0.901  15.121  0.3668 -0.0143 -0.3110
12102DOPC   PO414462  13.785   1.123  15.068  0.1326  0.1721 -0.0405
12102DOPC   GL114463  13.898   1.150  14.655  0.3622 -0.1118 -0.1587
12102DOPC   GL214464  14.170   1.016  14.743 -0.0917  0.1945  0.0164
12102DOPC   C1A14465  13.851   1.119  14.215  0.0990  0.2710  0.1791
12102DOPC   D2A14466  13.857   1.072  13.738 -0.0937 -0.1225  0.2418
12102DOPC   C3A14467  13.713   0.807  13.419 -0.0262 -0.0058  0.2172
12102DOPC   C4A14468  13.846   0.604  12.946 -0.3510  0.2278 -0.4852
12102DOPC   C1B14469  14.075   0.735  14.445  0.1375  0.0314  0.1004
12102DOPC   D2B14470  14.104   0.630  13.960  0.1138 -0.3545  0.1470
12102DOPC   C3B14471  14.244   0.633  13.529  0.0601  0.0774 -0.0902
12102DOPC   C4B14472  14.323   0.685  13.085 -0.1232  0.1691 -0.0594
12103DOPC   NC314473   8.446   2.335  15.472  0.1764 -0.1918 -0.1689
12103DOPC   PO414474   8.053   2.403  15.547  0.1087 -0.1923  0.0645
12103DOPC   GL114475   7.948   2.614  15.177  0.0258  0.1561  0.0630
12103DOPC   GL214476   8.212   2.435  15.085  0.2269 -0.3310  0.1847
12103DOPC   C1A14477   8.015   2.971  14.869 -0.1848  0.2044 -0.0931
12103DOPC   D2A14478   8.135   3.060  14.406  0.0892  0.1119  0.1732
12103DOPC   C3A14479   8.104   2.646  14.179 -0.1591 -0.2323  0.1943
12103DOPC   C4A14480   8.278   2.247  13.896  0.1894  0.1091 -0.1094
12103DOPC   C1B14481   8.357   2.571  14.678  0.1101 -0.0930 -0.1092
12103DOPC   D2B14482   8.759   2.544  14.484  0.1131 -0.3281  0.0587
12103DOPC   C3B14483   9.135   2.678  14.236 -0.0824  0.2277 -0.1763
12103DOPC   C4B14484   9.608   2.748  14.101  0.0371  0.0527 -0.0289
12104DOPC   NC314485  30.464   1.508  15.365 -0.1462 -0.1746 -0.0431
12104DOPC   PO414486  30.709   1.825  15.243 -0.3622  0.1561  0.0045
12104DOPC   GL114487  30.967   1.899  14.932  0.3830  0.2397  0.0247
12104DOPC   GL214488  30.702   2.020  14.755 -0.2267  0.4254 -0.3153
12104DOPC   C1A14489  31.254   1.646  14.660 -0.0664 -0.0223  0.3934
12104DOPC   D2A14490  31.518   1.275  14.565 -0.1594 -0.1918 -0.0900
12104DOPC   C3A14491  31.319   0.951  14.277  0.0631 -0.1470  0.1226
12104DOPC   C4A14492  31.191   0.642  13.986 -0.0813  0.0093  0.1521
12104DOPC   C1B14493  30.746   1.972  14.351 -0.0918 -0.0320  0.0470
12104DOPC   D2B14494  30.636   1.911  13.941  0.1395 -0.0352  0.0397
12104DOPC   C3B14495  30.256   2.236  13.802  0.2776 -0.0250  0.0337
12104DOPC   C4B14496  29.881   2.597  13.748  0.2107 -0.1180  0.1124
12105DOPC   NC314497   9.524   5.617  14.745 -0.1011  0.0137  0.0144
12105DOPC   PO414498   9.688   5.324  14.920  0.0635  0.3914 -0.2931
12105DOPC   GL114499   9.818   5.014  14.635  0.0346  0.3391 -0.1131
12105DOPC   GL214500   9.473   5.020  14.658 -0.1376  0.3364 -0.3696
12105DOPC   C1A14501   9.830   4.955  14.204 -0.1892 -0.2160 -0.4269
12105DOPC   D2A14502   9.920   4.711  13.803  0.1471 -0.1456  0.2800
12105DOPC   C3A14503  10.212   4.776  13.392  0.0314  0.1384 -0.1118
12105DOPC   C4A14504  10.080   5.060  13.012 -0.2513 -0.3335  0.1621
12105DOPC   C1B14505   9.522   5.288  14.274  0.0133  0.0155 -0.0950
12105DOPC   D2B14506   9.298   5.544  13.860  0.1044  0.1677 -0.1639
12105DOPC   C3B14507   9.410   5.414  13.460  0.6571  0.2473  0.0307
12105DOPC   C4B14508   9.531   5.694  13.080 -0.0710  0.1060  0.2165
12106DOPC   NC314509   2.529   3.444  15.226 -0.1656 -0.2051 -0.3214
12106DOPC   PO414510   2.121   3.544  15.213  0.3065  0.0530  0.0182
12106DOPC   GL114511   2.115   3.314  14.747 -0.2695 -0.0439 -0.1668
12106DOPC   GL214512   2.056   3.589  14.714 -0.1658 -0.2803  0.2312
12106DOPC   C1A14513   2.315   3.100  14.446  0.0911  0.0377  0.2264
12106DOPC   D2A14514   2.266   2.645  14.266  0.0922 -0.0820 -0.0690
12106DOPC   C3A14515   2.424   2.470  13.882  0.0795 -0.1752  0.2605
12106DOPC   C4A14516   2.398   2.220  13.479  0.1724 -0.1775  0.3247
12106DOPC   C1B14517   2.414   3.557  14.428 -0.0229  0.2514  0.0415
12106DOPC   D2B14518   2.614   3.530  13.982 -0.1974 -0.2887 -0.2976
12106DOPC   C3B14519   2.848   3.755  13.687  0.0647  0.0788 -0.0775
12106DOPC   C4B14520   3.132   3.988  13.337 -0.0183  0.0003  0.1811
12107DOPC   NC314521   5.329   0.987  15.512  0.0570 -0.1115 -0.0840
12107DOPC   PO414522   5.695   1.051  15.410  0.2266 -0.1165  0.1003
12107DOPC   GL114523   5.846   1.040  15.030 -0.1188  0.0795 -0.4261
12107DOPC   GL214524   5.606   0.919  15.003  0.0774  0.1561 -0.3014
12107DOPC   C1A14525   5.842   1.234  14.634 -0.0005 -0.1404 -0.1339
12107DOPC   D2A14526   5.877   1.009  14.177 -0.4838 -0.0274 -0.1589
12107DOPC   C3A14527   5.999   1.048  13.719  0.0422  0.0850 -0.2053
12107DOPC   C4A14528   6.037   1.400  13.357  0.1370  0.1610  0.1949
12107DOPC   C1B14529   5.302   0.938  14.674  0.1097  0.2462  0.0362
12107DOPC   D2B14530   5.060   1.127  14.252 -0.0011  0.2587  0.1256
12107DOPC   C3B14531   5.157   1.199  13.849 -0.0148  0.2299  0.0259
12107DOPC   C4B14532   5.122   1.243  13.340 -0.0593  0.0695  0.1166
12108DOPC   NC314533  20.426   4.667  15.123 -0.1454  0.2106  0.0327
12108DOPC   PO414534  20.061   4.659  15.253  0.2123 -0.1209  0.2877
12108DOPC   GL114535  19.982   4.397  14.922 -0.0842 -0.0146  0.0445
12108DOPC   GL214536  19.842   4.139  15.103 -0.0692  0.1246  0.0642
12108DOPC   C1A14537  20.178   4.291  14.556 -0.2965 -0.0921 -0.0650
12108DOPC   D2A14538  20.602   4.124  14.352  0.1915  0.2502  0.4610
12108DOPC   C3A14539  20.776   4.117  13.934  0.2690  0.1263  0.0418
12108DOPC   C4A14540  20.992   4.343  13.546 -0.2306 -0.1799  0.0901
12108DOPC   C1B14541  19.778   3.895  14.715 -0.0496 -0.2944  0.1203
12108DOPC   D2B14542  19.671   3.709  14.231  0.0601 -0.1020 -0.0693
12108DOPC   C3B14543  19.577   3.925  13.843  0.1095  0.0994  0.1366
12108DOPC   C4B14544  19.690   4.334  13.658 -0.1300 -0.2144  0.0063
12109DOPC   NC314545  14.828   1.891  15.209  0.3900  0.1954 -0.0991
12109DOPC   PO414546  15.118   2.004  14.958  0.2715  0.0080  0.0139
12109DOPC   GL114547  14.922   2.123  14.610 -0.0285 -0.2688  0.1375
12109DOPC   GL214548  15.135   2.353  14.596  0.1461 -0.1062 -0.0409
12109DOPC   C1A14549  14.788   1.886  14.270 -0.1270  0.1087 -0.0596
12109DOPC   D2A14550  15.007   1.703  13.852 -0.2915  0.0079 -0.2373
12109DOPC   C3A14551  14.907   1.956  13.510  0.0133 -0.3217  0.0147
12109DOPC   C4A14552  14.811   2.288  13.151 -0.0042  0.0166  0.0992
12109DOPC   C1B14553  14.972   2.402  14.221 -0.0796  0.1377  0.0065
12109DOPC   D2B14554  14.968   2.364  13.795 -0.1525  0.2513  0.0776
12109DOPC   C3B14555  14.732   2.639  13.483  0.2558 -0.0816 -0.2613
12109DOPC   C4B14556  14.347   2.979  13.493  0.0781 -0.2714  0.0400
12110DOPC   NC314557   9.630   0.148  15.381 -0.3477  0.2923  0.0756
12110DOPC   PO414558   9.260   0.131  15.233  0.0160 -0.0061  0.1938
12110DOPC   GL114559   9.403   0.330  14.916  0.1984  0.3723 -0.0329
12110DOPC   GL214560   9.077   0.440  14.960 -0.1937 -0.1568 -0.1760
12110DOPC   C1A14561   9.462   0.367  14.475 -0.0496 -0.1489 -0.2026
12110DOPC   D2A14562   9.592   0.551  14.049 -0.0584 -0.2983  0.1643
12110DOPC   C3A14563   9.694   0.224  13.732 -0.3097 -0.1280 -0.3070
12110DOPC   C4A14564   9.779   0.071  13.321 -0.1625 -0.0831 -0.1528
12110DOPC   C1B14565   8.826   0.451  14.612 -0.1616  0.2110  0.1267
12110DOPC   D2B14566   8.589   0.587  14.206 -0.2377  0.2232 -0.3847
12110DOPC   C3B14567   8.382   0.578  13.795 -0.1220  0.2136 -0.1736
12110DOPC   C4B14568   7.962   0.545  13.475  0.2627  0.2827 -0.1668
12111DOPC   NC314569  21.437   2.079  15.889 -0.0336  0.2895  0.0480
12111DOPC   PO414570  21.540   1.713  15.764 -0.0090  0.0279 -0.0317
12111DOPC   GL114571  21.819   1.556  15.488  0.4710 -0.3270 -0.1206
12111DOPC   GL214572  21.794   1.286  15.492 -0.5362 -0.3704 -0.1819
12111DOPC   C1A14573  21.966   1.710  15.114  0.1506  0.1980 -0.0772
12111DOPC   D2A14574  22.046   1.986  14.776  0.2074 -0.0653  0.1392
12111DOPC   C3A14575  22.135   2.144  14.333  0.1727  0.1263 -0.2190
12111DOPC   C4A14576  22.402   2.389  14.037  0.0639 -0.1585  0.5328
12111DOPC   C1B14577  21.710   1.306  15.008 -0.1527 -0.1910  0.1605
12111DOPC   D2B14578  21.540   1.437  14.614  0.3730 -0.3028  0.0877
12111DOPC   C3B14579  21.351   1.692  14.290  0.1772 -0.0383 -0.3020
12111DOPC   C4B14580  21.138   2.047  13.982 -0.0306  0.1247 -0.0533
12112DOPC   NC314581  22.874   3.797  15.156 -0.0407 -0.0081  0.2634
12112DOPC   PO414582  23.069   3.499  15.187  0.1034 -0.1482 -0.1572
12112DOPC   GL114583  23.078   3.373  14.749 -0.4284 -0.3396  0.0197
12112DOPC   GL214584  23.238   3.721  14.852 -0.5836  0.1219 -0.3251
12112DOPC   C1A14585  22.941   3.226  14.436 -0.0000  0.0687 -0.2274
12112DOPC   D2A14586  22.846   3.263  13.969  0.2265  0.0616  0.1116
12112DOPC   C3A14587  22.424   3.287  13.740  0.4302 -0.0541  0.0766
12112DOPC   C4A14588  22.268   3.783  13.565  0.3372 -0.2528  0.2052
12112DOPC   C1B14589  23.496   3.886  14.501  0.0657  0.1036 -0.1142
12112DOPC   D2B14590  23.819   3.955  14.143  0.2664 -0.1230  0.0856
12112DOPC   C3B14591  24.225   3.810  13.948 -0.0263  0.1596 -0.0688
12112DOPC   C4B14592  24.409   3.780  13.466  0.1638 -0.1821  0.0298
12113DOPC   NC314593   9.881   6.690  15.219  0.0557  0.5424 -0.1633
12113DOPC   PO414594   9.650   7.006  15.181  0.1708  0.0441  0.1926
12113DOPC   GL114595   9.589   7.081  14.744 -0.0605 -0.3641 -0.0502
12113DOPC   GL214596   9.346   7.266  14.833  0.3440 -0.1085 -0.1841
12113DOPC   C1A14597   9.755   7.122  14.363  0.0424  0.0080 -0.0357
12113DOPC   D2A14598   9.856   7.083  13.893 -0.3254  0.0325  0.0167
12113DOPC   C3A14599   9.805   7.113  13.465 -0.0283 -0.1652  0.3520
12113DOPC   C4A14600   9.781   7.038  12.954  0.0154  0.2027 -0.0371
12113DOPC   C1B14601   9.198   7.280  14.403  0.1607 -0.1486 -0.0080
12113DOPC   D2B14602   8.903   7.428  14.066 -0.0137 -0.1094  0.0930
12113DOPC   C3B14603   8.921   7.565  13.629 -0.3333  0.2525 -0.2833
12113DOPC   C4B14604   9.038   7.492  13.152  0.2048  0.1441 -0.0281
12114DOPC   NC314605   2.024   4.231  15.406 -0.1461 -0.2519  0.0903
12114DOPC   PO414606   2.378   4.060  15.305 -0.1043  0.1152 -0.2058
12114DOPC   GL114607   2.469   4.409  15.061 -0.0727  0.2058  0.0147
12114DOPC   GL214608   2.176   4.513  15.048 -0.1770  0.2068  0.3325
12114DOPC   C1A14609   2.471   4.298  14.629  0.2252  0.0615  0.0674
12114DOPC   D2A14610   2.154   4.026  14.391 -0.1146 -0.0392 -0.1245
12114DOPC   C3A14611   1.952   4.064  14.004  0.0570 -0.1116  0.0081
12114DOPC   C4A14612   1.919   4.108  13.531  0.0853  0.1365 -0.1218
12114DOPC   C1B14613   2.235   4.805  14.625  0.2568  0.0926 -0.0984
12114DOPC   D2B14614   2.387   4.625  14.257  0.1468  0.3173  0.2148
12114DOPC   C3B14615   2.277   4.503  13.801 -0.2926  0.0931  0.0670
12114DOPC   C4B14616   2.319   4.472  13.340 -0.0038  0.0450  0.1440
12115DOPC   NC314617  30.072   4.547  15.271 -0.2396 -0.0685  0.0342
12115DOPC   PO414618  30.226   4.730  14.960  0.0336 -0.0305 -0.2065
12115DOPC   GL114619  30.059   4.653  14.558 -0.1834 -0.2090  0.1750
12115DOPC   GL214620  30.147   4.380  14.561  0.1165 -0.2677 -0.2142
12115DOPC   C1A14621  30.276   4.924  14.239 -0.1144 -0.0371  0.1690
12115DOPC   D2A14622  30.694   4.947  13.943 -0.2287 -0.1134 -0.1603
12115DOPC   C3A14623  30.889   4.966  14.304  0.2578  0.0390  0.1519
12115DOPC   C4A14624  31.085   4.590  14.588 -0.0131 -0.2196  0.2178
12115DOPC   C1B14625  30.274   4.174  14.201  0.2307  0.2431 -0.1529
12115DOPC   D2B14626  30.345   4.240  13.736  0.4089  0.5333 -0.1892
12115DOPC   C3B14627  30.483   4.001  13.358 -0.2273 -0.0284 -0.0272
12115DOPC   C4B14628  30.539   3.715  12.947  0.2214  0.0200  0.0756
12116DOPC   NC314629   2.813   4.273  15.420 -0.0214 -0.2287  0.3822
12116DOPC   PO414630   3.187   4.233  15.310  0.0658  0.1983  0.2957
12116DOPC   GL114631   3.391   4.059  14.994  0.0591  0.1203 -0.2344
12116DOPC   GL214632   3.583   4.167  14.861 -0.3615 -0.3175 -0.1994
12116DOPC   C1A14633   3.077   4.179  14.680  0.1229  0.1269 -0.0506
12116DOPC   D2A14634   3.009   4.420  14.280  0.0175 -0.0070 -0.0850
12116DOPC   C3A14635   3.241   4.670  13.913  0.2816 -0.1821  0.0073
12116DOPC   C4A14636   3.349   5.096  14.025  0.0438  0.2222  0.2692
12116DOPC   C1B14637   3.541   4.435  14.542  0.1942 -0.0519  0.0537
12116DOPC   D2B14638   3.725   4.659  14.034  0.0955  0.0427  0.0378
12116DOPC   C3B14639   3.702   4.978  13.704 -0.0568  0.0526 -0.1847
12116DOPC   C4B14640   3.323   5.045  13.384 -0.0029  0.2037 -0.0478
12117DOPC   NC314641  16.557   6.379  14.852  0.1759 -0.0463  0.2363
12117DOPC   PO414642  16.391   6.038  14.656  0.0349 -0.1996 -0.0637
12117DOPC   GL114643  16.271   6.122  14.291  0.0696 -0.0106  0.0752
12117DOPC   GL214644  16.090   5.836  14.224  0.1316 -0.0593 -0.2911
12117DOPC   C1A14645  16.582   6.334  13.975  0.1951  0.0613  0.0730
12117DOPC   D2A14646  16.758   6.196  13.548  0.1807  0.1307 -0.2105
12117DOPC   C3A14647  17.180   6.141  13.512 -0.0254 -0.3417 -0.0687
12117DOPC   C4A14648  17.720   5.959  13.412  0.0742  0.2315 -0.3541
12117DOPC   C1B14649  16.464   5.755  13.983  0.1494 -0.0013  0.0639
12117DOPC   D2B14650  16.891   5.589  13.741  0.0606  0.1005  0.2313
12117DOPC   C3B14651  17.028   5.720  13.323 -0.1085  0.2486  0.0033
12117DOPC   C4B14652  17.143   5.960  13.013 -0.0557  0.0607 -0.0283
12118DOPC   NC314653  24.655   6.007  15.777  0.0587 -0.0555 -0.2051
12118DOPC   PO414654  24.461   6.278  15.583  0.0554 -0.1889  0.0005
12118DOPC   GL114655  24.460   6.261  15.229 -0.0619 -0.2780 -0.0875
12118DOPC   GL214656  24.221   6.147  15.134  0.2923 -0.0263  0.0660
12118DOPC   C1A14657  24.808   6.333  14.986  0.4821  0.4541 -0.0366
12118DOPC   D2A14658  25.119   6.578  14.654 -0.0132  0.1634 -0.1993
12118DOPC   C3A14659  25.087   6.521  14.143 -0.1090  0.1988 -0.0120
12118DOPC   C4A14660  25.273   6.858  13.908 -0.1524  0.3363 -0.0490
12118DOPC   C1B14661  24.286   6.160  14.715 -0.3588 -0.0665 -0.1510
12118DOPC   D2B14662  24.279   6.132  14.180 -0.1850 -0.0633 -0.1289
12118DOPC   C3B14663  24.101   6.481  13.900 -0.0129 -0.0017  0.2764
12118DOPC   C4B14664  24.077   6.933  13.771  0.3447  0.0007 -0.0772
12119DOPC   NC314665  25.697   2.885  15.913 -0.0854 -0.2647  0.1601
12119DOPC   PO414666  25.321   2.967  15.751 -0.0905  0.3572 -0.0958
12119DOPC   GL114667  25.325   2.909  15.275 -0.1274 -0.0532 -0.0383
12119DOPC   GL214668  25.513   3.112  15.292 -0.2224 -0.1716  0.1457
12119DOPC   C1A14669  25.151   2.812  14.947 -0.1411 -0.1417 -0.2964
12119DOPC   D2A14670  25.000   2.635  14.488 -0.0136 -0.1521  0.0344
12119DOPC   C3A14671  25.033   2.257  14.215  0.1495  0.3182 -0.0345
12119DOPC   C4A14672  24.996   2.043  13.825  0.2810  0.0516 -0.2137
12119DOPC   C1B14673  25.489   3.134  14.836 -0.1084  0.1566  0.3977
12119DOPC   D2B14674  25.265   3.115  14.446 -0.0454  0.1291 -0.0781
12119DOPC   C3B14675  25.411   3.262  13.996 -0.0716  0.1143  0.0350
12119DOPC   C4B14676  25.539   3.267  13.482 -0.0698  0.0068 -0.1495
12120DOPC   NC314677  13.088   5.454  14.860 -0.1839  0.2061  0.0873
12120DOPC   PO414678  13.216   5.099  14.692  0.1097  0.0006  0.2677
12120DOPC   GL114679  13.467   5.070  14.283  0.3729 -0.1215  0.1376
12120DOPC   GL214680  13.377   4.790  14.212 -0.2458 -0.0687 -0.0218
12120DOPC   C1A14681  13.803   5.289  14.107  0.0093  0.1961 -0.1375
12120DOPC   D2A14682  13.961   5.511  13.709  0.2688  0.1639  0.0112
12120DOPC   C3A14683  13.866   5.544  13.235 -0.1249 -0.1553  0.1507
12120DOPC   C4A14684  13.715   5.677  12.776  0.1738 -0.2446 -0.0851
12120DOPC   C1B14685  13.513   4.729  13.769  0.0855 -0.1717  0.0446
12120DOPC   D2B14686  13.295   4.897  13.343 -0.1921 -0.2283 -0.2437
12120DOPC   C3B14687  13.073   5.238  13.154  0.0151  0.0334 -0.0371
12120DOPC   C4B14688  12.903   5.646  12.895 -0.1964 -0.0917 -0.1954
12121DOPC   NC314689  14.088   0.564  15.610  0.0480 -0.0204  0.0171
12121DOPC   PO414690  14.091   0.601  15.237 -0.1724  0.1732  0.0885
12121DOPC   GL114691  13.807   0.658  14.867  0.4456 -0.1816  0.2646
12121DOPC   GL214692  13.741   0.386  15.075  0.3544  0.3589 -0.0026
12121DOPC   C1A14693  13.573   0.816  14.492 -0.0439 -0.1195  0.1188
12121DOPC   D2A14694  13.371   0.853  14.062 -0.4638  0.0926 -0.2167
12121DOPC   C3A14695  13.302   0.863  13.609  0.1380  0.2320 -0.1947
12121DOPC   C4A14696  13.248   0.928  13.178 -0.3189  0.0205  0.0584
12121DOPC   C1B14697  13.617   0.216  14.668  0.0206  0.0919  0.0554
12121DOPC   D2B14698  13.532   0.265  14.186  0.0980 -0.2306  0.1140
12121DOPC   C3B14699  13.654   0.260  13.763 -0.2657  0.3012  0.1376
12121DOPC   C4B14700  13.884   0.284  13.299  0.0161 -0.0249  0.1368
12122DOPC   NC314701   8.848   2.684  15.617 -0.2108  0.0642 -0.2141
12122DOPC   PO414702   8.899   2.434  15.347  0.0789 -0.0728  0.3072
12122DOPC   GL114703   8.922   2.470  14.964 -0.2973 -0.0377 -0.1702
12122DOPC   GL214704   9.080   2.240  14.968 -0.1515 -0.1063 -0.2031
12122DOPC   C1A14705   9.233   2.725  14.742 -0.0808  0.2860  0.3784
12122DOPC   D2A14706   9.626   3.015  14.510  0.0597  0.1728  0.1475
12122DOPC   C3A14707  10.004   3.220  14.582  0.0539  0.1057  0.0872
12122DOPC   C4A14708  10.480   3.393  14.693 -0.0894 -0.1332 -0.1306
12122DOPC   C1B14709   9.130   2.178  14.511 -0.3075 -0.1603 -0.3352
12122DOPC   D2B14710   9.276   2.255  14.069  0.0055  0.1244  0.4218
12122DOPC   C3B14711   9.272   2.487  13.656 -0.1142  0.1049  0.1109
12122DOPC   C4B14712   9.448   2.611  13.171  0.1507 -0.0416 -0.1279
12123DOPC   NC314713  29.920   5.108  14.778 -0.0406  0.1635 -0.1526
12123DOPC   PO414714  29.964   5.447  14.977  0.0938 -0.2680 -0.2414
12123DOPC   GL114715  29.905   5.725  14.678  0.1339 -0.1514 -0.0870
12123DOPC   GL214716  30.072   5.917  14.658 -0.1400 -0.4092  0.2338
12123DOPC   C1A14717  30.147   5.538  14.349  0.1259  0.1005 -0.3501
12123DOPC   D2A14718  30.571   5.318  14.227  0.2313  0.2330  0.1301
12123DOPC   C3A14719  30.753   5.421  13.755 -0.0732 -0.3728  0.1074
12123DOPC   C4A14720  31.044   5.415  13.328  0.2399  0.1314 -0.1435
12123DOPC   C1B14721  29.890   6.069  14.311  0.4592  0.2362 -0.1817
12123DOPC   D2B14722  29.912   5.947  13.813 -0.2066 -0.0586 -0.1930
12123DOPC   C3B14723  30.127   5.848  13.433  0.0176  0.2519 -0.2854
12123DOPC   C4B14724  30.105   5.541  13.091 -0.3783 -0.0905 -0.0164
12124DOPC   NC314725  25.461   1.030  16.085  0.0966 -0.1811 -0.1957
12124DOPC   PO414726  25.767   0.995  15.779  0.1290 -0.2411  0.3022
12124DOPC   GL114727  25.582   0.939  15.381 -0.2109  0.0200  0.1415
12124DOPC   GL214728  25.445   0.665  15.391  0.1568  0.1160  0.3348
12124DOPC   C1A14729  25.516   1.234  15.055 -0.3551 -0.0514  0.2114
12124DOPC   D2A14730  25.468   1.305  14.567  0.1879 -0.2972  0.0987
12124DOPC   C3A14731  25.635   1.202  14.143 -0.0687  0.0699  0.1252
12124DOPC   C4A14732  25.953   0.926  13.937 -0.0157  0.0223 -0.2979
12124DOPC   C1B14733  25.601   0.442  15.114 -0.0049  0.1297 -0.1524
12124DOPC   D2B14734  25.790   0.269  14.633  0.2329  0.2379  0.0806
12124DOPC   C3B14735  25.565   0.006  14.301  0.0891  0.0035  0.0434
12124DOPC   C4B14736  25.540  -0.325  13.821 -0.1357 -0.0321 -0.0336
12125DOPC   NC314737  28.128   6.205  15.556 -0.0218  0.0658 -0.1059
12125DOPC   PO414738  27.874   5.922  15.442 -0.1631  0.2164 -0.4147
12125DOPC   GL114739  27.950   5.751  15.045  0.1209 -0.1695 -0.2247
12125DOPC   GL214740  27.665   5.782  14.994  0.2356 -0.0065 -0.1331
12125DOPC   C1A14741  28.089   5.648  14.651 -0.0004 -0.2035  0.1813
12125DOPC   D2A14742  27.953   5.680  14.182  0.3683  0.0267  0.1724
12125DOPC   C3A14743  27.784   5.950  13.862 -0.1298  0.1025  0.0358
12125DOPC   C4A14744  27.649   6.147  13.428 -0.2693 -0.2699 -0.1318
12125DOPC   C1B14745  27.617   5.690  14.560 -0.0884  0.1776  0.0796
12125DOPC   D2B14746  27.410   5.686  14.103 -0.0564  0.2491  0.1809
12125DOPC   C3B14747  26.975   5.638  14.058 -0.1708  0.1439 -0.2380
12125DOPC   C4B14748  26.729   5.491  13.708 -0.1238  0.1908 -0.0492
12126DOPC   NC314749  30.586   1.512  14.745  0.0801 -0.0888  0.0295
12126DOPC   PO414750  30.305   1.786  14.804 -0.1546  0.0535 -0.0626
12126DOPC   GL114751  30.324   1.823  14.366  0.1837  0.1638  0.4341
12126DOPC   GL214752  30.168   1.652  14.456 -0.2665  0.0805  0.0321
12126DOPC   C1A14753  30.623   1.449  14.220 -0.2901 -0.0275 -0.1646
12126DOPC   D2A14754  30.706   1.428  13.778 -0.1896  0.0310 -0.0930
12126DOPC   C3A14755  31.103   1.622  13.652 -0.0092 -0.0023 -0.2888
12126DOPC   C4A14756  31.323   1.939  13.325  0.0028  0.1325  0.0652
12126DOPC   C1B14757  29.884   1.473  14.311  0.0524 -0.0348 -0.0900
12126DOPC   D2B14758  29.754   1.353  13.905 -0.2514 -0.0857 -0.2519
12126DOPC   C3B14759  30.007   1.328  13.507 -0.3233 -0.1372 -0.2478
12126DOPC   C4B14760  29.850   1.690  13.147 -0.0993  0.0158  0.2171
12127DOPC   NC314761  24.622   1.552  15.330  0.3108  0.0254 -0.0117
12127DOPC   PO414762  24.749   1.362  15.617  0.3628  0.3724 -0.1029
12127DOPC   GL114763  24.937   1.030  15.390  0.2780 -0.2914 -0.3742
12127DOPC   GL214764  24.683   1.127  15.230  0.1014  0.2792 -0.0350
12127DOPC   C1A14765  25.165   0.839  15.083 -0.0320 -0.2623 -0.0554
12127DOPC   D2A14766  25.456   0.729  14.699  0.0009 -0.0593 -0.2706
12127DOPC   C3A14767  25.345   0.518  14.356  0.1423  0.1243  0.2417
12127DOPC   C4A14768  25.263   0.510  13.813 -0.0051 -0.3277 -0.3112
12127DOPC   C1B14769  24.723   0.949  14.860  0.1191  0.1970 -0.0729
12127DOPC   D2B14770  24.814   0.599  14.463  0.1340 -0.1320 -0.1588
12127DOPC   C3B14771  24.717   0.478  13.967 -0.1604  0.0992  0.1654
12127DOPC   C4B14772  24.405   0.420  13.603 -0.0345  0.0739  0.1631
12128DOPC   NC314773  24.994   2.690  15.543  0.2694 -0.0954 -0.1219
12128DOPC   PO414774  24.670   2.603  15.326  0.0357  0.1607 -0.0753
12128DOPC   GL114775  24.743   2.936  15.023  0.0529  0.2621  0.0878
12128DOPC   GL214776  24.662   2.703  14.797 -0.2169 -0.0588  0.1878
12128DOPC   C1A14777  24.833   3.315  14.863 -0.1745  0.0019  0.1908
12128DOPC   D2A14778  24.860   3.754  14.621 -0.1568  0.0275  0.1737
12128DOPC   C3A14779  24.874   3.957  14.148 -0.0116 -0.3096  0.0648
12128DOPC   C4A14780  25.020   3.763  13.748  0.1091  0.1521 -0.0211
12128DOPC   C1B14781  24.559   2.545  14.343 -0.1831  0.0948 -0.3948
12128DOPC   D2B14782  24.671   2.425  13.976 -0.0486 -0.2668 -0.0580
12128DOPC   C3B14783  25.087   2.490  13.722  0.2946 -0.1436  0.0182
12128DOPC   C4B14784  25.448   2.795  13.455  0.1676 -0.0802  0.2586
12129DOPC   NC314785  15.245   2.772  15.144  0.0146 -0.0472 -0.3916
12129DOPC   PO414786  15.472   2.504  15.010 -0.1301  0.1325  0.0112
12129DOPC   GL114787  15.565   2.308  14.619  0.1329  0.2623 -0.1416
12129DOPC   GL214788  15.694   2.544  14.608  0.0440  0.1190 -0.5050
12129DOPC   C1A14789  15.513   2.304  14.166 -0.1576 -0.0593 -0.2008
12129DOPC   D2A14790  15.485   2.416  13.685 -0.1264 -0.2565  0.0540
12129DOPC   C3A14791  15.211   2.449  13.352 -0.0030 -0.1252 -0.1184
12129DOPC   C4A14792  15.091   2.754  13.015  0.2581  0.0966 -0.0999
12129DOPC   C1B14793  15.523   2.793  14.288 -0.0768  0.0443 -0.1782
12129DOPC   D2B14794  15.316   2.829  13.894 -0.0124 -0.1479  0.3776
12129DOPC   C3B14795  15.098   3.033  13.514 -0.1597 -0.0941 -0.1689
12129DOPC   C4B14796  14.788   3.169  13.140 -0.1130  0.0076  0.2408
12130DOPC   NC314797  27.884   3.257  15.063 -0.3988  0.4536  0.0938
12130DOPC   PO414798  27.558   3.452  15.127  0.3147  0.1022  0.2992
12130DOPC   GL114799  27.468   3.564  14.710 -0.0401  0.0072 -0.0281
12130DOPC   GL214800  27.775   3.511  14.671 -0.3674  0.2204  0.3626
12130DOPC   C1A14801  27.201   3.301  14.554 -0.2598  0.1499  0.1737
12130DOPC   D2A14802  27.355   2.910  14.313  0.2806  0.1542  0.1203
12130DOPC   C3A14803  27.350   2.856  13.840  0.0372  0.2128 -0.1840
12130DOPC   C4A14804  27.288   2.560  13.461 -0.0860  0.2254  0.0078
12130DOPC   C1B14805  27.989   3.695  14.302  0.0700 -0.2056 -0.0868
12130DOPC   D2B14806  28.165   3.927  13.845 -0.0222 -0.1794 -0.0502
12130DOPC   C3B14807  28.313   3.665  13.502 -0.1952 -0.2695 -0.2262
12130DOPC   C4B14808  28.491   3.566  13.090  0.1366  0.2712 -0.2408
12131DOPC   NC314809   3.844   3.982  15.182  0.0449  0.1237  0.0210
12131DOPC   PO414810   3.720   4.359  15.306 -0.0078  0.1367  0.0963
12131DOPC   GL114811   3.492   4.667  14.951 -0.2490  0.2432 -0.0635
12131DOPC   GL214812   3.753   4.654  14.915  0.0304 -0.2750  0.1506
12131DOPC   C1A14813   3.206   4.775  14.653  0.2454  0.0189  0.0529
12131DOPC   D2A14814   2.917   4.893  14.260  0.0404  0.0303 -0.0947
12131DOPC   C3A14815   2.766   4.968  13.818 -0.1073  0.1679 -0.1807
12131DOPC   C4A14816   2.802   4.876  13.378  0.1080  0.3019  0.3708
12131DOPC   C1B14817   3.670   4.886  14.519  0.2284 -0.1226 -0.2630
12131DOPC   D2B14818   3.984   5.053  14.177  0.0187  0.0860  0.1063
12131DOPC   C3B14819   3.980   5.365  13.826 -0.2295 -0.3294 -0.0691
12131DOPC   C4B14820   3.883   5.827  13.681  0.0566 -0.1295 -0.1477
12132DOPC   NC314821   9.344   4.242  15.375  0.0989 -0.0297  0.1485
12132DOPC   PO414822   9.721   4.273  15.268 -0.0195 -0.0460 -0.1080
12132DOPC   GL114823   9.827   4.165  14.876 -0.2067 -0.1647  0.1516
12132DOPC   GL214824   9.504   4.223  14.888  0.2594 -0.2513 -0.0259
12132DOPC   C1A14825   9.809   4.031  14.477 -0.0191  0.0601  0.0527
12132DOPC   D2A14826   9.490   3.908  14.113  0.1626 -0.1567  0.2051
12132DOPC   C3A14827   9.082   3.752  14.043 -0.0560 -0.2883  0.1005
12132DOPC   C4A14828   8.668   3.677  13.823  0.1937 -0.1243 -0.1391
12132DOPC   C1B14829   9.277   4.227  14.549  0.6258 -0.1150 -0.0132
12132DOPC   D2B14830   8.972   4.258  14.223  0.0860  0.3980  0.1331
12132DOPC   C3B14831   9.022   4.156  13.773 -0.0672  0.2438  0.3580
12132DOPC   C4B14832   9.201   4.043  13.270 -0.0989 -0.3835 -0.0812
12133DOPC   NC314833  30.325   6.867  15.626 -0.0813  0.0685 -0.1050
12133DOPC   PO414834  30.647   6.924  15.438 -0.0431 -0.3090 -0.0462
12133DOPC   GL114835  30.748   6.886  15.050 -0.1140  0.1401  0.3759
12133DOPC   GL214836  31.004   6.977  15.003 -0.4771 -0.3147  0.1077
12133DOPC   C1A14837  30.658   6.906  14.617 -0.2368  0.0089  0.0561
12133DOPC   D2A14838  30.838   6.926  14.150  0.0008 -0.1760  0.1446
12133DOPC   C3A14839  30.915   6.987  13.660  0.1395 -0.0375 -0.5268
12133DOPC   C4A14840  31.196   7.158  13.282  0.4148 -0.0569  0.0600
12133DOPC   C1B14841  31.209   6.980  14.581  0.2413 -0.3317 -0.0273
12133DOPC   D2B14842  31.244   7.205  14.156  0.3961  0.1113 -0.1244
12133DOPC   C3B14843  31.457   7.285  13.720  0.3259 -0.0159  0.1352
12133DOPC   C4B14844  31.466   7.557  13.316  0.0043 -0.0539 -0.2408
12134DOPC   NC314845  17.914   5.830  15.028 -0.0219  0.1813  0.0533
12134DOPC   PO414846  17.727   5.670  14.742  0.0389 -0.0401  0.1920
12134DOPC   GL114847  17.789   5.805  14.356  0.0905 -0.1435 -0.1883
12134DOPC   GL214848  17.591   5.614  14.244 -0.1626  0.0444 -0.0274
12134DOPC   C1A14849  18.213   5.626  14.252  0.1990  0.0921  0.1803
12134DOPC   D2A14850  18.383   5.510  13.817  0.1204 -0.0867 -0.1327
12134DOPC   C3A14851  18.503   5.201  13.497  0.2784 -0.0983  0.0463
12134DOPC   C4A14852  18.544   4.966  13.024  0.3458 -0.0615 -0.1984
12134DOPC   C1B14853  17.854   5.302  14.161 -0.0679  0.1917 -0.0137
12134DOPC   D2B14854  17.986   4.801  14.250 -0.0074  0.1859  0.0554
12134DOPC   C3B14855  18.076   4.523  13.868 -0.1766 -0.0354  0.3240
12134DOPC   C4B14856  18.193   4.248  13.438 -0.1059 -0.1458 -0.0704
12135DOPC   NC314857   4.098   4.754  15.215 -0.1054  0.2599 -0.0584
12135DOPC   PO414858   3.829   5.008  15.182  0.0121  0.1177 -0.0384
12135DOPC   GL114859   3.914   5.189  14.782 -0.3248 -0.5894  0.1368
12135DOPC   GL214860   4.120   4.962  14.704 -0.0799  0.1597 -0.2994
12135DOPC   C1A14861   3.920   5.475  14.484  0.0279  0.0369 -0.1561
12135DOPC   D2A14862   4.031   5.785  14.133 -0.0391 -0.2071  0.1613
12135DOPC   C3A14863   4.049   6.182  13.954 -0.3082 -0.2831 -0.1043
12135DOPC   C4A14864   4.047   6.734  13.903 -0.2053 -0.2988  0.2653
12135DOPC   C1B14865   4.382   4.955  14.406  0.2471 -0.1233  0.0426
12135DOPC   D2B14866   4.719   4.978  14.012  0.2467 -0.1647 -0.1180
12135DOPC   C3B14867   4.485   5.198  13.646  0.0246  0.2552 -0.2472
12135DOPC   C4B14868   4.187   5.471  13.361  0.3353  0.1074  0.1330
12136DOPC   NC314869  19.966   1.752  15.438  0.0189 -0.0032 -0.1003
12136DOPC   PO414870  19.554   1.771  15.370 -0.0845 -0.1583  0.0084
12136DOPC   GL114871  19.597   1.570  14.968 -0.2423 -0.2527  0.2969
12136DOPC   GL214872  19.878   1.738  14.999 -0.2487  0.1178 -0.1891
12136DOPC   C1A14873  19.512   1.527  14.557  0.2510  0.2249  0.0892
12136DOPC   D2A14874  19.278   1.691  14.121  0.0219  0.1238  0.0263
12136DOPC   C3A14875  19.387   1.690  13.685 -0.3098  0.0220 -0.1757
12136DOPC   C4A14876  19.258   1.976  13.311  0.3237  0.1887 -0.1086
12136DOPC   C1B14877  20.120   1.896  14.622  0.1885  0.0026  0.4168
12136DOPC   D2B14878  20.326   1.832  14.177 -0.0142 -0.4118  0.1001
12136DOPC   C3B14879  20.183   1.661  13.780 -0.0161  0.0443 -0.1461
12136DOPC   C4B14880  19.780   1.414  13.614  0.1288 -0.3715  0.5864
12137DOPC   NC314881  12.743   7.571  14.984  0.0861 -0.0105  0.2663
12137DOPC   PO414882  12.832   7.198  14.992 -0.3598 -0.0378  0.0184
12137DOPC   GL114883  12.986   7.016  14.678 -0.2429 -0.0287  0.0495
12137DOPC   GL214884  13.292   7.054  14.686  0.0862  0.0762  0.2537
12137DOPC   C1A14885  12.801   7.003  14.273 -0.1754 -0.0599 -0.1127
12137DOPC   D2A14886  12.767   7.052  13.784  0.1400  0.0598 -0.1645
12137DOPC   C3A14887  12.904   7.311  13.357 -0.0661  0.0940  0.1209
12137DOPC   C4A14888  12.987   6.949  12.956  0.3823  0.3036 -0.0434
12137DOPC   C1B14889  13.323   7.179  14.189 -0.1556 -0.0367  0.0275
12137DOPC   D2B14890  13.293   7.267  13.677 -0.0843  0.0998 -0.0172
12137DOPC   C3B14891  13.378   7.166  13.249  0.1603  0.0571 -0.2160
12137DOPC   C4B14892  13.633   6.969  12.887 -0.0445 -0.1536 -0.0995
12138DOPC   NC314893  16.425   4.256  14.511  0.0114  0.2058 -0.1701
12138DOPC   PO414894  16.688   4.516  14.702  0.1227 -0.0094 -0.4095
12138DOPC   GL114895  16.909   4.455  14.390 -0.0181  0.3756  0.0371
12138DOPC   GL214896  16.840   4.186  14.282 -0.0376 -0.2687  0.0102
12138DOPC   C1A14897  17.164   4.667  14.052  0.0180  0.1149 -0.1075
12138DOPC   D2A14898  17.381   4.651  13.652  0.2446 -0.0628 -0.1972
12138DOPC   C3A14899  17.363   5.082  13.421 -0.0249  0.1353 -0.0198
12138DOPC   C4A14900  17.503   5.484  13.264  0.0231 -0.0052  0.0722
12138DOPC   C1B14901  16.718   4.029  13.917 -0.2512 -0.0168 -0.1090
12138DOPC   D2B14902  16.612   3.964  13.426  0.0527  0.0018 -0.0805
12138DOPC   C3B14903  17.009   3.957  13.101  0.0831 -0.1799 -0.0841
12138DOPC   C4B14904  17.369   4.120  12.816  0.0780  0.1374 -0.2351
12139DOPC   NC314905  28.078   7.112  15.579 -0.1328  0.2499 -0.0431
12139DOPC   PO414906  28.058   6.711  15.491  0.1724  0.0191 -0.1184
12139DOPC   GL114907  28.206   6.440  15.136  0.1204 -0.1591 -0.0459
12139DOPC   GL214908  28.368   6.687  15.184  0.1963 -0.1675  0.1414
12139DOPC   C1A14909  28.092   6.502  14.731 -0.0885  0.0985  0.0382
12139DOPC   D2A14910  28.151   6.620  14.220  0.1467  0.1225  0.3274
12139DOPC   C3A14911  28.143   6.870  13.876  0.4341 -0.1547 -0.2420
12139DOPC   C4A14912  28.173   7.284  13.612  0.0924  0.2426  0.1235
12139DOPC   C1B14913  28.445   6.883  14.788  0.0095  0.0268 -0.2032
12139DOPC   D2B14914  28.039   7.112  14.477 -0.1494 -0.1310  0.1448
12139DOPC   C3B14915  27.906   7.262  14.124 -0.1608  0.0541  0.1916
12139DOPC   C4B14916  27.999   7.729  13.921 -0.2245 -0.1066  0.2032
12140DOPC   NC314917   2.655   7.020  15.446 -0.0622  0.0964 -0.0417
12140DOPC   PO414918   2.852   6.939  15.126 -0.2308  0.0479  0.3112
12140DOPC   GL114919   3.023   7.054  14.795 -0.1062 -0.1725  0.2455
12140DOPC   GL214920   3.235   7.218  14.867  0.0041 -0.1285 -0.1231
12140DOPC   C1A14921   2.961   7.167  14.401 -0.0020 -0.2538  0.0109
12140DOPC   D2A14922   2.964   7.563  14.150  0.2514  0.2144  0.0429
12140DOPC   C3A14923   3.001   7.661  13.612 -0.0045  0.0003 -0.2199
12140DOPC   C4A14924   2.802   7.790  13.185 -0.0327  0.2863  0.0919
12140DOPC   C1B14925   3.217   7.599  14.602  0.0816  0.1478  0.2029
12140DOPC   D2B14926   3.347   7.904  14.343  0.1762  0.0053 -0.0043
12140DOPC   C3B14927   3.424   7.821  13.871  0.2925  0.0221  0.2724
12140DOPC   C4B14928   3.517   7.633  13.387 -0.1522 -0.2492 -0.0505
12141DOPC   NC314929   9.771   1.983  15.372  0.1683  0.1938  0.3221
12141DOPC   PO414930  10.159   1.973  15.483 -0.0050  0.0389  0.1819
12141DOPC   GL114931  10.285   1.973  15.132  0.1121 -0.0030 -0.0058
12141DOPC   GL214932  10.219   1.698  15.015  0.3221  0.0107 -0.1464
12141DOPC   C1A14933  10.621   1.919  14.878  0.1553 -0.2371  0.0910
12141DOPC   D2A14934  10.936   1.872  14.509 -0.1723 -0.2118 -0.0718
12141DOPC   C3A14935  11.015   2.193  14.118 -0.0955  0.0851  0.0590
12141DOPC   C4A14936  10.766   2.472  13.799  0.3563  0.2363  0.1872
12141DOPC   C1B14937  10.161   1.810  14.595  0.3889  0.1643  0.0315
12141DOPC   D2B14938  10.206   1.873  14.103 -0.2678 -0.2763  0.1740
12141DOPC   C3B14939  10.047   1.676  13.763 -0.1232  0.1291 -0.0036
12141DOPC   C4B14940   9.835   1.387  13.424 -0.0084 -0.0857  0.0219
12142DOPC   NC314941  18.632   6.766  15.124 -0.0117 -0.0370 -0.1933
12142DOPC   PO414942  18.530   7.102  14.941  0.4216  0.0761  0.1382
12142DOPC   GL114943  18.865   7.275  14.698  0.1196 -0.2705 -0.0149
12142DOPC   GL214944  18.682   7.532  14.760 -0.1645  0.0943 -0.3008
12142DOPC   C1A14945  18.894   7.101  14.270  0.0826  0.3485 -0.0110
12142DOPC   D2A14946  18.777   6.805  13.808  0.0185 -0.0796 -0.0543
12142DOPC   C3A14947  19.138   6.644  13.586  0.0076  0.2168  0.0381
12142DOPC   C4A14948  19.474   6.255  13.519  0.0116 -0.0508 -0.0563
12142DOPC   C1B14949  18.486   7.475  14.370  0.0571  0.1226  0.0894
12142DOPC   D2B14950  18.701   7.344  13.867 -0.1103  0.1051 -0.1491
12142DOPC   C3B14951  18.936   7.467  13.437  0.2237  0.0785 -0.0259
12142DOPC   C4B14952  19.157   7.470  12.963 -0.1194 -0.0311 -0.0602
12143DOPC   NC314953   4.719   4.279  15.114 -0.1343  0.1069  0.1946
12143DOPC   PO414954   4.327   4.217  15.260  0.4369  0.0138  0.2260
12143DOPC   GL114955   4.102   4.369  14.969 -0.1363 -0.2550  0.1837
12143DOPC   GL214956   4.168   4.060  14.860  0.1805  0.1156  0.1577
12143DOPC   C1A14957   4.062   4.538  14.625 -0.1341  0.0803 -0.0647
12143DOPC   D2A14958   4.153   4.532  14.195 -0.0203 -0.0761 -0.1602
12143DOPC   C3A14959   4.261   4.744  13.773  0.4042 -0.0960 -0.0348
12143DOPC   C4A14960   4.120   4.920  13.374  0.0609 -0.1318 -0.3333
12143DOPC   C1B14961   3.905   4.098  14.460 -0.2837 -0.2628 -0.0944
12143DOPC   D2B14962   3.515   4.192  14.102 -0.0545 -0.1245  0.0192
12143DOPC   C3B14963   3.519   4.335  13.679  0.0040  0.1371 -0.0018
12143DOPC   C4B14964   3.202   4.486  13.361 -0.3658 -0.3726  0.0592
12144DOPC   NC314965  22.241   0.574  15.753  0.1570 -0.0400  0.0382
12144DOPC   PO414966  22.573   0.445  15.546 -0.0672  0.0723 -0.2059
12144DOPC   GL114967  22.340   0.541  15.175 -0.0130 -0.1486 -0.0881
12144DOPC   GL214968  22.344   0.813  15.303 -0.0709 -0.0920 -0.1197
12144DOPC   C1A14969  22.188   0.502  14.729 -0.1044 -0.1557 -0.2963
12144DOPC   D2A14970  21.964   0.618  14.312  0.1369  0.0951  0.0327
12144DOPC   C3A14971  22.082   0.766  13.905  0.0968 -0.0682 -0.3694
12144DOPC   C4A14972  22.085   1.072  13.590 -0.2360  0.0444  0.0916
12144DOPC   C1B14973  22.381   0.951  14.883 -0.2111 -0.1087 -0.2538
12144DOPC   D2B14974  22.269   1.022  14.392 -0.3638 -0.0991  0.0957
12144DOPC   C3B14975  22.076   1.298  14.084  0.0957  0.0247  0.2835
12144DOPC   C4B14976  21.764   1.583  13.821  0.2913  0.0594 -0.1123
12145DOPC   NC314977  14.575   2.517  14.542  0.1430 -0.0273  0.1932
12145DOPC   PO414978  14.318   2.806  14.351 -0.3601 -0.0071 -0.1220
12145DOPC   GL114979  13.897   2.761  14.215  0.2032 -0.0944 -0.0922
12145DOPC   GL214980  13.982   2.452  14.150  0.3887 -0.3612 -0.1218
12145DOPC   C1A14981  13.804   2.909  13.837  0.1206 -0.0143  0.2194
12145DOPC   D2A14982  13.862   3.033  13.371  0.2030 -0.3133 -0.0808
12145DOPC   C3A14983  14.212   3.313  13.155  0.0774  0.3419  0.2069
12145DOPC   C4A14984  14.535   3.521  12.928  0.1296  0.1866 -0.0558
12145DOPC   C1B14985  13.941   2.285  13.687 -0.1765  0.0203 -0.1578
12145DOPC   D2B14986  13.900   2.039  13.241 -0.0355  0.1038 -0.0730
12145DOPC   C3B14987  13.937   1.631  13.431  0.1143  0.1759 -0.0400
12145DOPC   C4B14988  13.604   1.266  13.337  0.3549 -0.1356 -0.1867
12146DOPC   NC314989  17.969   6.561  15.346 -0.3381 -0.1030 -0.2374
12146DOPC   PO414990  17.828   6.312  15.062  0.3201 -0.2304  0.1535
12146DOPC   GL114991  18.042   6.244  14.751  0.1270 -0.3295  0.2626
12146DOPC   GL214992  17.888   6.137  14.590 -0.0721  0.0185  0.0344
12146DOPC   C1A14993  18.398   6.458  14.637  0.1784  0.1539 -0.1360
12146DOPC   D2A14994  18.486   6.791  14.291  0.0098  0.0235 -0.0350
12146DOPC   C3A14995  18.197   7.144  14.045 -0.2346  0.4584 -0.1172
12146DOPC   C4A14996  18.019   7.321  13.664  0.0806  0.2006  0.2312
12146DOPC   C1B14997  17.846   6.258  14.193 -0.1520 -0.0821  0.1314
12146DOPC   D2B14998  17.627   6.396  13.743  0.3243  0.0058  0.1455
12146DOPC   C3B14999  17.882   6.458  13.355  0.2780  0.0521  0.3017
12146DOPC   C4B15000  18.004   6.570  12.859 -0.1119  0.1532 -0.0194
12147DOPC   NC315001  17.121   7.302  15.116 -0.0615 -0.0229  0.2368
12147DOPC   PO415002  16.743   7.388  15.039  0.3463  0.0924  0.3287
12147DOPC   GL115003  16.726   7.493  14.628 -0.1784 -0.0756 -0.2854
12147DOPC   GL215004  16.610   7.766  14.656 -0.3504 -0.2321  0.0337
12147DOPC   C1A15005  16.715   7.667  14.206 -0.0444 -0.1450 -0.1820
12147DOPC   D2A15006  16.728   7.686  13.711  0.0259 -0.0364 -0.1628
12147DOPC   C3A15007  16.597   7.606  13.298  0.0470  0.0924  0.0275
12147DOPC   C4A15008  16.482   7.321  12.813 -0.1318 -0.0244 -0.0612
12147DOPC   C1B15009  16.455   8.098  14.312  0.0426  0.1356 -0.1641
12147DOPC   D2B15010  16.267   8.364  13.994 -0.1408 -0.0581  0.0284
12147DOPC   C3B15011  16.357   8.621  13.572 -0.1153  0.0751 -0.0661
12147DOPC   C4B15012  16.370   8.879  13.145  0.1365  0.0846 -0.0383
12148DOPC   NC315013   4.397   0.681  15.466  0.3217  0.2000 -0.2990
12148DOPC   PO415014   4.778   0.651  15.300  0.0343  0.0238 -0.3731
12148DOPC   GL115015   4.835   0.812  14.925 -0.0716 -0.0306  0.2106
12148DOPC   GL215016   4.833   0.573  14.738 -0.3098 -0.0337 -0.1606
12148DOPC   C1A15017   4.811   1.147  14.693 -0.0267 -0.3129 -0.0327
12148DOPC   D2A15018   4.750   1.580  14.463  0.0515 -0.1759 -0.0100
12148DOPC   C3A15019   5.034   1.758  14.138  0.1208  0.0789  0.0384
12148DOPC   C4A15020   5.279   1.690  13.719 -0.1352 -0.1084 -0.1442
12148DOPC   C1B15021   4.884   0.654  14.310 -0.1983  0.1700 -0.0582
12148DOPC   D2B15022   4.852   0.785  13.844 -0.1318 -0.0789  0.2715
12148DOPC   C3B15023   4.657   1.067  13.619  0.1937 -0.1097  0.2250
12148DOPC   C4B15024   4.316   1.404  13.423  0.0902  0.0376 -0.2900
12149DOPC   NC315025  28.335   0.930  15.334 -0.0607 -0.2963 -0.2128
12149DOPC   PO415026  28.396   1.276  15.193  0.0159 -0.3876 -0.2039
12149DOPC   GL115027  28.593   1.379  14.858  0.4870  0.0131  0.4197
12149DOPC   GL215028  28.541   1.684  14.896  0.4196  0.0729  0.0837
12149DOPC   C1A15029  28.688   1.276  14.492  0.0000  0.0425 -0.0792
12149DOPC   D2A15030  28.890   1.117  13.968  0.1137  0.1629 -0.0652
12149DOPC   C3A15031  28.592   0.799  13.783  0.1584  0.0109 -0.4263
12149DOPC   C4A15032  28.254   0.399  13.635  0.0594  0.3374 -0.0101
12149DOPC   C1B15033  28.258   1.607  14.537  0.3204  0.3069 -0.0132
12149DOPC   D2B15034  28.209   1.719  14.051 -0.1378  0.0682 -0.5032
12149DOPC   C3B15035  27.962   1.384  13.849  0.1073 -0.2840  0.0543
12149DOPC   C4B15036  27.545   1.150  13.765 -0.3904 -0.0862 -0.4602
12150DOPC   NC315037  29.738   3.898  15.122  0.0083  0.1817  0.0679
12150DOPC   PO415038  29.801   4.266  14.934 -0.2104 -0.2549  0.0940
12150DOPC   GL115039  29.656   4.380  14.547  0.1385  0.0473  0.1493
12150DOPC   GL215040  29.353   4.400  14.626 -0.1968 -0.3492 -0.3088
12150DOPC   C1A15041  29.846   4.509  14.162 -0.0312 -0.3003 -0.0552
12150DOPC   D2A15042  30.199   4.713  13.803 -0.1153 -0.2978 -0.0382
12150DOPC   C3A15043  30.119   4.551  13.378 -0.0320 -0.1546 -0.2233
12150DOPC   C4A15044  30.405   4.646  12.982 -0.0274  0.3102 -0.1130
12150DOPC   C1B15045  29.179   4.604  14.354 -0.0317  0.0711  0.1956
12150DOPC   D2B15046  28.988   4.844  13.951 -0.1127 -0.1329 -0.1706
12150DOPC   C3B15047  28.907   4.934  13.434  0.0490  0.0438 -0.3747
12150DOPC   C4B15048  28.704   4.962  12.992 -0.1613 -0.3479 -0.3258
12151DOPC   NC315049   5.715   2.463  15.271  0.1800  0.2363  0.3397
12151DOPC   PO415050   5.341   2.545  15.265  0.1216  0.2131  0.0332
12151DOPC   GL115051   5.267   2.521  14.778  0.1247  0.1011  0.1998
12151DOPC   GL215052   5.000   2.641  14.826 -0.0977  0.1627 -0.0773
12151DOPC   C1A15053   5.190   2.575  14.396 -0.0688  0.0151  0.3632
12151DOPC   D2A15054   5.251   2.747  13.902 -0.2608 -0.2103 -0.1105
12151DOPC   C3A15055   4.975   2.701  13.554  0.1638  0.3216  0.1743
12151DOPC   C4A15056   4.740   2.512  13.122 -0.3290 -0.1076  0.0161
12151DOPC   C1B15057   4.635   2.692  14.527  0.2986 -0.0585 -0.2445
12151DOPC   D2B15058   4.272   2.623  14.194 -0.0988  0.0401  0.1051
12151DOPC   C3B15059   4.415   2.649  13.702 -0.0324 -0.0670  0.1548
12151DOPC   C4B15060   4.282   2.727  13.271  0.2009 -0.1651 -0.0719
12152DOPC   NC315061   9.514   5.365  15.375  0.0151  0.0381 -0.1265
12152DOPC   PO415062   9.245   5.618  15.266 -0.0673  0.0410 -0.0829
12152DOPC   GL115063   9.125   5.760  14.825 -0.1361 -0.0124 -0.3857
12152DOPC   GL215064   9.009   5.471  14.871 -0.0507 -0.0190  0.2532
12152DOPC   C1A15065   9.167   5.820  14.406 -0.0745  0.3895  0.2330
12152DOPC   D2A15066   9.373   6.039  14.038 -0.1392  0.1486 -0.3907
12152DOPC   C3A15067   9.457   5.943  13.595  0.2537 -0.2646  0.1550
12152DOPC   C4A15068   9.362   6.213  13.135  0.0808 -0.0368  0.3361
12152DOPC   C1B15069   9.124   5.315  14.510 -0.1524  0.2826 -0.2162
12152DOPC   D2B15070   8.825   5.070  14.194  0.2476  0.3752  0.1510
12152DOPC   C3B15071   8.742   4.667  13.898 -0.0453  0.1907  0.1950
12152DOPC   C4B15072   8.817   4.410  13.433  0.0468 -0.1618 -0.2981
12153DOPC   NC315073  20.551   3.801  15.336  0.2680 -0.0301  0.2151
12153DOPC   PO415074  20.359   4.153  15.233 -0.2584  0.1229 -0.1489
12153DOPC   GL115075  20.594   4.265  14.910  0.1568 -0.0387  0.3644
12153DOPC   GL215076  20.774   4.056  15.023 -0.0298 -0.1910  0.0777
12153DOPC   C1A15077  20.584   4.655  14.662 -0.0394 -0.1461 -0.0213
12153DOPC   D2A15078  20.482   5.042  14.481  0.0191  0.0326 -0.0770
12153DOPC   C3A15079  20.387   5.055  14.035 -0.0590  0.0239  0.1575
12153DOPC   C4A15080  20.182   4.755  13.696  0.0195 -0.1139 -0.1751
12153DOPC   C1B15081  20.877   3.737  14.795 -0.0886  0.2727 -0.2324
12153DOPC   D2B15082  21.002   3.326  14.550 -0.0268  0.0065  0.0752
12153DOPC   C3B15083  21.067   3.138  14.137  0.3051  0.1050  0.2708
12153DOPC   C4B15084  21.272   2.932  13.669  0.3442 -0.1181  0.2161
12154DOPC   NC315085  19.231   5.829  15.433 -0.1395  0.2619 -0.1746
12154DOPC   PO415086  18.992   5.512  15.385  0.0859  0.0467 -0.1615
12154DOPC   GL115087  19.017   5.456  14.979  0.0624 -0.2272  0.3513
12154DOPC   GL215088  19.027   5.255  14.909 -0.1601  0.2554 -0.0179
12154DOPC   C1A15089  19.152   5.638  14.620  0.2747  0.0568 -0.0674
12154DOPC   D2A15090  19.217   5.788  14.167 -0.3735 -0.0440 -0.2333
12154DOPC   C3A15091  19.216   5.772  13.695  0.2759 -0.1924  0.0480
12154DOPC   C4A15092  19.169   5.958  13.216  0.1678  0.0623  0.2535
12154DOPC   C1B15093  19.447   5.153  14.752 -0.1482  0.1732 -0.0016
12154DOPC   D2B15094  19.834   5.114  14.369 -0.0902 -0.1943 -0.0049
12154DOPC   C3B15095  19.929   5.151  13.941  0.2405 -0.1689  0.0896
12154DOPC   C4B15096  19.811   5.117  13.481  0.1979 -0.0035 -0.2471
12155DOPC   NC315097  16.273   0.077  14.952  0.0925 -0.2885 -0.2506
12155DOPC   PO415098  15.943  -0.041  14.740 -0.0547 -0.3237 -0.0511
12155DOPC   GL115099  15.863   0.039  14.300 -0.0143  0.2108  0.2640
12155DOPC   GL215100  15.615  -0.174  14.289 -0.2373 -0.3125  0.3221
12155DOPC   C1A15101  16.056   0.063  13.898  0.2117  0.2168 -0.0417
12155DOPC   D2A15102  16.089   0.370  13.545 -0.1982  0.1309  0.0378
12155DOPC   C3A15103  16.099   0.581  13.174 -0.0447 -0.0446  0.2437
12155DOPC   C4A15104  16.090   0.919  12.787 -0.0676  0.0359 -0.1412
12155DOPC   C1B15105  15.797  -0.313  13.974 -0.0414  0.0991  0.0753
12155DOPC   D2B15106  16.186  -0.322  13.592  0.1010  0.1848  0.1799
12155DOPC   C3B15107  16.076  -0.490  13.146 -0.0030  0.0179 -0.0745
12155DOPC   C4B15108  16.035  -0.448  12.628  0.3246  0.0300  0.0049
12156DOPC   NC315109  18.583   5.479  15.134 -0.1361 -0.0611  0.0445
12156DOPC   PO415110  18.438   5.869  15.074  0.0244 -0.0219 -0.3837
12156DOPC   GL115111  18.500   5.850  14.701 -0.1871 -0.3102  0.0012
12156DOPC   GL215112  18.692   5.653  14.704 -0.0486  0.1798 -0.4517
12156DOPC   C1A15113  18.367   6.132  14.280  0.1936  0.0619 -0.0190
12156DOPC   D2A15114  18.195   6.450  13.871 -0.0308  0.1077  0.2235
12156DOPC   C3A15115  18.291   6.827  13.624 -0.0765  0.0436 -0.1158
12156DOPC   C4A15116  18.624   6.890  13.287 -0.1186  0.0875 -0.0690
12156DOPC   C1B15117  18.726   5.455  14.306 -0.0905  0.1958  0.2361
12156DOPC   D2B15118  18.901   5.319  13.793  0.2476  0.0732 -0.4118
12156DOPC   C3B15119  18.765   5.639  13.456  0.0929  0.3982 -0.1086
12156DOPC   C4B15120  18.683   6.006  13.137 -0.3559 -0.1851  0.1176
12157DOPC   NC315121  30.631   7.622  15.154 -0.1146  0.1949 -0.1370
12157DOPC   PO415122  30.308   7.785  14.975 -0.0092  0.1734  0.0194
12157DOPC   GL115123  30.380   7.829  14.567 -0.2641  0.1354  0.3525
12157DOPC   GL215124  30.584   7.624  14.543  0.2330 -0.0646 -0.3139
12157DOPC   C1A15125  30.302   7.983  14.165  0.1048  0.0271  0.1098
12157DOPC   D2A15126  30.148   7.939  13.735 -0.1948 -0.0856  0.0282
12157DOPC   C3A15127  30.324   7.998  13.327 -0.2026  0.1026  0.1805
12157DOPC   C4A15128  30.430   8.269  12.940 -0.2014  0.1435  0.3645
12157DOPC   C1B15129  30.496   7.354  14.315 -0.0097 -0.0888 -0.0205
12157DOPC   D2B15130  30.254   6.973  14.124 -0.1738 -0.0628 -0.3223
12157DOPC   C3B15131  30.425   6.767  13.740  0.0233 -0.0433 -0.2586
12157DOPC   C4B15132  30.678   6.567  13.299  0.1082 -0.0338  0.0416
12158DOPA   PO415133   5.443   3.241  15.130  0.0047 -0.1109  0.0434
12158DOPA   GL115134   5.161   3.316  14.893 -0.0457  0.0595 -0.0648
12158DOPA   GL215135   5.211   3.003  14.746  0.1930  0.3648  0.1383
12158DOPA   C1A15136   4.930   3.516  14.540 -0.2435  0.0153  0.0350
12158DOPA   D2A15137   4.847   3.623  14.117  0.0558 -0.2415  0.2178
12158DOPA   C3A15138   4.823   3.617  13.649  0.0649  0.0485 -0.4167
12158DOPA   C4A15139   4.890   3.531  13.166 -0.1585 -0.0793  0.0948
12158DOPA   C1B15140   5.093   3.062  14.337 -0.2494  0.0514 -0.1158
12158DOPA   D2B15141   5.051   3.153  13.878 -0.1191 -0.1176  0.4047
12158DOPA   C3B15142   5.204   3.138  13.422  0.0338  0.1276 -0.0009
12158DOPA   C4B15143   5.323   3.197  12.899 -0.0778  0.0449 -0.0567
12159DOPA   PO415144   2.101   7.696  15.091 -0.2582 -0.0385 -0.1444
12159DOPA   GL115145   1.845   7.458  14.794 -0.1865  0.1205 -0.2109
12159DOPA   GL215146   2.069   7.570  14.606  0.1500 -0.2328 -0.2515
12159DOPA   C1A15147   1.624   7.556  14.367  0.1423  0.1293 -0.2201
12159DOPA   D2A15148   1.462   7.506  13.872  0.0536  0.2036  0.1168
12159DOPA   C3A15149   1.206   7.288  13.531 -0.0264  0.3086  0.1632
12159DOPA   C4A15150   1.059   7.103  13.082  0.0253  0.2559 -0.3515
12159DOPA   C1B15151   2.041   7.662  14.148 -0.3259 -0.1651  0.0164
12159DOPA   D2B15152   1.922   7.587  13.704 -0.2485 -0.2618  0.0274
12159DOPA   C3B15153   1.948   7.849  13.330 -0.0491 -0.1912  0.1498
12159DOPA   C4B15154   1.903   8.041  12.831  0.1315  0.1628  0.0416
12160DOPA   PO415155  30.272   7.299  15.341 -0.5059  0.1165  0.0463
12160DOPA   GL115156  30.437   7.207  14.993 -0.0784 -0.2064 -0.2394
12160DOPA   GL215157  30.265   6.998  15.075  0.2598 -0.0329 -0.0240
12160DOPA   C1A15158  30.809   7.325  14.770 -0.1266 -0.0579 -0.0610
12160DOPA   D2A15159  31.298   7.435  14.779 -0.1928 -0.0365 -0.2176
12160DOPA   C3A15160  31.438   7.800  14.494 -0.4758 -0.1058 -0.2206
12160DOPA   C4A15161  31.601   8.222  14.280  0.0089 -0.0084  0.2617
12160DOPA   C1B15162  30.155   7.095  14.633  0.1535  0.2018  0.1098
12160DOPA   D2B15163  30.019   7.543  14.440 -0.3932 -0.0856  0.1483
12160DOPA   C3B15164  30.036   7.525  13.970  0.0548  0.0815  0.4173
12160DOPA   C4B15165  30.092   7.517  13.486 -0.1518 -0.2355 -0.0699
12161DOPA   PO415166  11.763   6.519  15.162 -0.1895 -0.1866 -0.0179
12161DOPA   GL115167  11.735   6.518  14.755 -0.3188 -0.1823  0.0057
12161DOPA   GL215168  11.588   6.222  14.756 -0.1478  0.0161 -0.0729
12161DOPA   C1A15169  11.511   6.568  14.366 -0.1742 -0.0493 -0.0306
12161DOPA   D2A15170  11.777   6.704  13.919 -0.1137 -0.2411  0.4032
12161DOPA   C3A15171  11.639   6.852  13.510  0.0431 -0.0093  0.1167
12161DOPA   C4A15172  11.555   6.903  13.061 -0.3209 -0.0487 -0.3035
12161DOPA   C1B15173  11.909   6.185  14.490 -0.0102 -0.3285 -0.4648
12161DOPA   D2B15174  12.154   6.110  14.063 -0.1072 -0.0469 -0.0143
12161DOPA   C3B15175  12.135   6.432  13.668 -0.0035  0.2448  0.1150
12161DOPA   C4B15176  12.034   6.685  13.232  0.0184 -0.2725  0.0732
12162DOPA   PO415177  13.451   3.810  15.098 -0.0168  0.0594 -0.0628
12162DOPA   GL115178  13.461   3.850  14.712  0.4609 -0.1598  0.0338
12162DOPA   GL215179  13.326   3.612  14.722  0.0154 -0.3669 -0.0401
12162DOPA   C1A15180  13.611   3.814  14.255  0.3463  0.1678  0.1047
12162DOPA   D2A15181  13.794   3.992  13.825  0.0291 -0.1299  0.1230
12162DOPA   C3A15182  13.741   3.964  13.342 -0.0062 -0.1850 -0.0033
12162DOPA   C4A15183  13.598   3.922  12.877 -0.1574 -0.1990  0.2344
12162DOPA   C1B15184  13.289   3.394  14.314  0.0355 -0.2053  0.0148
12162DOPA   D2B15185  13.275   3.069  13.889 -0.0283 -0.0855 -0.2643
12162DOPA   C3B15186  12.935   3.378  13.724 -0.3219  0.0569 -0.1314
12162DOPA   C4B15187  12.551   3.641  13.732  0.0841  0.0338 -0.2557
12163DOPA   PO415188  20.055   3.773  15.406 -0.1646  0.2119  0.0274
12163DOPA   GL115189  20.218   3.481  15.131 -0.0556  0.0478  0.1145
12163DOPA   GL215190  20.140   3.675  14.973  0.4090  0.0631 -0.1070
12163DOPA   C1A15191  20.450   3.293  14.811 -0.0057 -0.1328  0.1008
12163DOPA   D2A15192  20.523   3.135  14.362  0.0679 -0.1901 -0.0152
12163DOPA   C3A15193  20.557   2.782  14.037  0.0236 -0.0597 -0.3780
12163DOPA   C4A15194  20.672   2.660  13.556  0.1097  0.2836 -0.0069
12163DOPA   C1B15195  20.385   3.765  14.696 -0.0480  0.4327  0.0280
12163DOPA   D2B15196  20.609   3.652  14.301  0.0515  0.3135 -0.0276
12163DOPA   C3B15197  20.874   3.634  13.918 -0.3176  0.0176  0.2775
12163DOPA   C4B15198  21.128   3.757  13.506 -0.1768  0.0318  0.1427
12164DOPA   PO415199  15.419   7.392  14.667  0.0690 -0.1033 -0.1171
12164DOPA   GL115200  15.084   7.560  14.400 -0.3185 -0.3791 -0.1087
12164DOPA   GL215201  14.880   7.373  14.577 -0.1116 -0.1968  0.0884
12164DOPA   C1A15202  15.194   7.481  13.992  0.0560  0.0711 -0.0072
12164DOPA   D2A15203  15.391   7.356  13.529  0.0403 -0.2993  0.0466
12164DOPA   C3A15204  15.552   7.354  13.082 -0.1585 -0.0270  0.0064
12164DOPA   C4A15205  15.502   7.427  12.634 -0.0082  0.0592 -0.1095
12164DOPA   C1B15206  14.745   7.346  14.157 -0.0335  0.2180 -0.0621
12164DOPA   D2B15207  14.803   7.406  13.673 -0.0737  0.1748  0.1827
12164DOPA   C3B15208  14.968   7.170  13.265  0.3464 -0.0742 -0.0561
12164DOPA   C4B15209  15.239   6.976  12.938  0.0133  0.0110 -0.2020
12165DOPA   PO415210  13.118   0.645  15.405  0.4935  0.2708  0.1719
12165DOPA   GL115211  13.039   0.547  15.058 -0.2163 -0.4028  0.0943
12165DOPA   GL215212  13.260   0.578  14.948 -0.3696 -0.0810  0.2757
12165DOPA   C1A15213  12.751   0.535  14.723  0.1950 -0.2691  0.0818
12165DOPA   D2A15214  12.471   0.618  14.313 -0.0865  0.2123  0.3262
12165DOPA   C3A15215  12.384   0.459  13.800  0.3027  0.0085  0.0135
12165DOPA   C4A15216  12.283   0.062  13.437  0.0076 -0.1330 -0.1599
12165DOPA   C1B15217  13.169   0.525  14.495  0.3636 -0.0468 -0.0846
12165DOPA   D2B15218  12.934   0.596  14.057 -0.3680 -0.0991  0.2478
12165DOPA   C3B15219  12.879   0.610  13.612  0.2316  0.1978  0.3954
12165DOPA   C4B15220  12.489   0.813  13.446  0.0895 -0.4269  0.3017
12166DOPA   PO415221  27.144   4.238  15.535 -0.1576  0.1801  0.1580
12166DOPA   GL115222  27.283   4.225  15.121 -0.1074  0.3274  0.1148
12166DOPA   GL215223  27.019   4.316  15.042 -0.2369  0.0715 -0.0105
12166DOPA   C1A15224  27.423   4.017  14.784 -0.1208  0.0409  0.0308
12166DOPA   D2A15225  27.390   3.790  14.331 -0.0154 -0.3218  0.2370
12166DOPA   C3A15226  27.347   3.680  13.909 -0.5360  0.3152  0.1812
12166DOPA   C4A15227  27.394   3.286  13.547 -0.0394 -0.3666  0.0323
12166DOPA   C1B15228  26.812   4.148  14.681 -0.0877 -0.0605 -0.2309
12166DOPA   D2B15229  26.722   4.027  14.222 -0.4576  0.2330 -0.1290
12166DOPA   C3B15230  26.871   3.748  13.981 -0.3941  0.1236  0.2378
12166DOPA   C4B15231  26.522   3.627  13.725  0.1432  0.2530  0.1547
12167DOPA   PO415232   6.470   1.647  15.408  0.2007 -0.0869 -0.3992
12167DOPA   GL115233   6.454   1.656  15.012  0.1507  0.0711  0.0386
12167DOPA   GL215234   6.694   1.717  14.882  0.0342 -0.0913 -0.1378
12167DOPA   C1A15235   6.148   1.626  14.652 -0.0451  0.0677 -0.1167
12167DOPA   D2A15236   6.001   1.516  14.155  0.0838  0.1962  0.2277
12167DOPA   C3A15237   6.293   1.416  13.848 -0.3878 -0.1110 -0.0801
12167DOPA   C4A15238   6.439   1.183  13.464 -0.0321 -0.1829 -0.1842
12167DOPA   C1B15239   6.621   1.853  14.435  0.0431  0.0406  0.1047
12167DOPA   D2B15240   6.492   1.890  13.971  0.0146  0.3847  0.0198
12167DOPA   C3B15241   6.397   1.818  13.543  0.0514 -0.0646  0.2818
12167DOPA   C4B15242   6.060   1.843  13.155 -0.1163  0.0999  0.0764
12168DOPA   PO415243  28.117   3.587  15.368 -0.2241  0.1077  0.0462
12168DOPA   GL115244  28.193   3.819  15.012  0.1507 -0.2854  0.1016
12168DOPA   GL215245  28.272   3.501  14.848 -0.0943 -0.2193 -0.1354
12168DOPA   C1A15246  27.991   4.046  14.707 -0.0784 -0.1378 -0.0336
12168DOPA   D2A15247  27.743   4.262  14.335 -0.0627 -0.4134  0.3118
12168DOPA   C3A15248  27.550   4.115  13.894  0.0955  0.0573  0.1478
12168DOPA   C4A15249  27.795   3.959  13.517  0.1245 -0.2586 -0.0248
12168DOPA   C1B15250  28.484   3.432  14.414  0.1659  0.1472  0.0466
12168DOPA   D2B15251  28.678   3.586  13.957  0.1304  0.0556  0.2079
12168DOPA   C3B15252  28.803   3.657  13.543 -0.1503 -0.2080 -0.0375
12168DOPA   C4B15253  28.951   3.891  13.165 -0.2842 -0.0870 -0.2022
12169DOPA   PO415254  15.061   7.733  14.828 -0.2521 -0.1427  0.0154
12169DOPA   GL115255  14.885   7.925  14.498 -0.1151  0.2450  0.2147
12169DOPA   GL215256  15.128   8.133  14.489 -0.0249 -0.2506  0.2750
12169DOPA   C1A15257  14.865   7.839  14.029 -0.1243 -0.2762  0.1128
12169DOPA   D2A15258  15.029   8.107  13.593  0.1930 -0.0652 -0.0719
12169DOPA   C3A15259  14.808   8.194  13.216 -0.0767 -0.0910  0.0432
12169DOPA   C4A15260  14.391   7.988  13.014  0.0149 -0.1626  0.2837
12169DOPA   C1B15261  15.295   8.045  14.076 -0.1969  0.1940  0.2105
12169DOPA   D2B15262  15.498   7.807  13.721  0.0444 -0.0089  0.0190
12169DOPA   C3B15263  15.799   7.724  13.390  0.0253  0.0463 -0.0607
12169DOPA   C4B15264  16.168   7.866  13.160  0.1258 -0.3283 -0.1365
12170DOPA   PO415265  26.790   2.770  15.315  0.2838 -0.1678  0.0898
12170DOPA   GL115266  26.640   2.921  14.999 -0.2292  0.3593  0.4609
12170DOPA   GL215267  26.944   2.957  14.928  0.1816 -0.2735  0.0820
12170DOPA   C1A15268  26.455   2.760  14.657  0.3138 -0.1628  0.0939
12170DOPA   D2A15269  26.267   2.792  14.204  0.1241 -0.0599 -0.2225
12170DOPA   C3A15270  26.354   2.994  13.794 -0.0619 -0.3169 -0.2698
12170DOPA   C4A15271  26.538   3.228  13.429 -0.0938  0.1812  0.0357
12170DOPA   C1B15272  26.885   2.956  14.516  0.2833 -0.0653 -0.0647
12170DOPA   D2B15273  26.791   2.797  14.093 -0.0331  0.0789  0.3237
12170DOPA   C3B15274  26.887   2.859  13.665  0.1466  0.0473 -0.0196
12170DOPA   C4B15275  26.906   2.920  13.235  0.1552 -0.1169 -0.1157
12171DOPA   PO415276   2.934   0.607  15.269 -0.0210  0.1436 -0.1407
12171DOPA   GL115277   3.101   0.587  14.836 -0.0502 -0.1348 -0.1266
12171DOPA   GL215278   3.343   0.656  14.939 -0.1715 -0.1419 -0.2917
12171DOPA   C1A15279   3.003   0.545  14.393  0.1524  0.1474  0.2492
12171DOPA   D2A15280   3.054   0.416  13.960  0.1669 -0.2854  0.2536
12171DOPA   C3A15281   3.185   0.830  13.643 -0.0531  0.1911  0.1310
12171DOPA   C4A15282   3.377   1.221  13.474  0.1841  0.1078 -0.3819
12171DOPA   C1B15283   3.637   0.657  14.635 -0.0012  0.1013  0.1148
12171DOPA   D2B15284   3.686   0.495  14.110 -0.0850 -0.3160 -0.1764
12171DOPA   C3B15285   3.537   0.489  13.706  0.1527  0.1674 -0.1630
12171DOPA   C4B15286   3.460   0.644  13.231 -0.2064 -0.1232 -0.0808
12172DOPA   PO415287  22.787   4.402  15.301  0.0611  0.0343  0.1118
12172DOPA   GL115288  22.741   4.202  14.955  0.1122  0.0826  0.0030
12172DOPA   GL215289  23.033   4.224  14.839 -0.0438  0.0442  0.0044
12172DOPA   C1A15290  22.494   4.036  14.741 -0.4805  0.0035  0.0267
12172DOPA   D2A15291  22.179   3.810  14.425 -0.1299  0.0923 -0.0261
12172DOPA   C3A15292  21.781   3.994  14.363 -0.1062  0.0077 -0.0090
12172DOPA   C4A15293  21.343   4.267  14.393  0.1192  0.0242 -0.0409
12172DOPA   C1B15294  23.127   4.262  14.429  0.3485  0.1791 -0.0422
12172DOPA   D2B15295  23.377   4.105  14.014  0.2126 -0.1549  0.0382
12172DOPA   C3B15296  23.132   3.949  13.674 -0.0052  0.1096  0.0875
12172DOPA   C4B15297  22.882   3.963  13.226 -0.1426 -0.2552  0.3863
12173DOPA   PO415298  15.358   6.204  14.645  0.0177 -0.0018 -0.0503
12173DOPA   GL115299  15.579   6.500  14.443 -0.0398  0.3442 -0.1014
12173DOPA   GL215300  15.582   6.312  14.213  0.0086 -0.2024 -0.2264
12173DOPA   C1A15301  15.875   6.834  14.291  0.0341  0.2908  0.1162
12173DOPA   D2A15302  16.111   7.009  13.930 -0.1757 -0.1475  0.1557
12173DOPA   C3A15303  15.906   6.978  13.508  0.2489 -0.0747  0.1996
12173DOPA   C4A15304  15.833   6.889  13.029 -0.0690  0.0978  0.1081
12173DOPA   C1B15305  15.489   6.469  13.853  0.0948  0.2556  0.1944
12173DOPA   D2B15306  15.799   6.484  13.537  0.0968 -0.0281 -0.1475
12173DOPA   C3B15307  15.954   6.388  13.098  0.2295 -0.1854 -0.2924
12173DOPA   C4B15308  15.737   5.991  12.830 -0.1555  0.0776 -0.1786
12174DOPA   PO415309   3.437   3.684  15.304 -0.2257 -0.1416 -0.3862
12174DOPA   GL115310   3.581   3.620  14.962  0.1669 -0.0025 -0.0984
12174DOPA   GL215311   3.376   3.341  14.910  0.0738 -0.2448  0.0308
12174DOPA   C1A15312   3.485   3.776  14.535  0.0014 -0.0889  0.2647
12174DOPA   D2A15313   3.197   3.793  14.134  0.1578  0.1742 -0.5085
12174DOPA   C3A15314   3.054   4.141  13.858 -0.2815 -0.2602  0.0970
12174DOPA   C4A15315   2.788   4.504  13.791 -0.2423 -0.1381 -0.0401
12174DOPA   C1B15316   3.541   3.230  14.545 -0.1178  0.0871  0.1389
12174DOPA   D2B15317   3.753   3.212  14.135 -0.0392 -0.2255  0.3033
12174DOPA   C3B15318   3.689   3.315  13.695  0.1668 -0.0566 -0.1069
12174DOPA   C4B15319   4.087   3.136  13.441  0.0665 -0.1701  0.0099
12175DOPA   PO415320   9.843   3.799  15.546  0.0868  0.0504 -0.0567
12175DOPA   GL115321  10.015   3.898  15.182 -0.1142  0.2665 -0.0259
12175DOPA   GL215322  10.232   3.706  15.160 -0.1988  0.0531 -0.1401
12175DOPA   C1A15323   9.925   3.714  14.786 -0.4051  0.2519 -0.1803
12175DOPA   D2A15324  10.209   3.708  14.398  0.1919 -0.0865  0.0996
12175DOPA   C3A15325  10.418   3.360  14.173 -0.1056  0.1035  0.1332
12175DOPA   C4A15326  10.548   2.943  14.009  0.0142 -0.2644  0.2694
12175DOPA   C1B15327  10.187   3.243  15.067  0.1369  0.0705  0.2857
12175DOPA   D2B15328  10.195   2.772  15.130  0.0575 -0.1405 -0.3183
12175DOPA   C3B15329   9.956   2.703  14.737 -0.3539 -0.0133  0.2576
12175DOPA   C4B15330   9.650   2.389  14.441 -0.3145  0.1325 -0.3007
12176DOPA   PO415331  20.995   3.361  15.573  0.0094  0.2609  0.1786
12176DOPA   GL115332  21.257   3.210  15.233  0.0149 -0.2128 -0.0373
12176DOPA   GL215333  21.016   3.255  15.091  0.1127  0.0610 -0.2735
12176DOPA   C1A15334  21.455   3.406  14.865  0.0219  0.1151 -0.0243
12176DOPA   D2A15335  21.828   3.567  14.693 -0.1156 -0.2612 -0.1714
12176DOPA   C3A15336  21.438   3.571  14.337 -0.2558 -0.0329 -0.0800
12176DOPA   C4A15337  21.442   3.435  13.932 -0.0965  0.1137  0.0444
12176DOPA   C1B15338  20.810   2.912  14.813  0.2461  0.0822 -0.0682
12176DOPA   D2B15339  21.036   2.705  14.420 -0.0132 -0.2473 -0.0232
12176DOPA   C3B15340  21.000   2.561  13.942  0.2431  0.0398 -0.0389
12176DOPA   C4B15341  21.125   2.467  13.469 -0.1508  0.2282 -0.1985
12177DOPA   PO415342  16.891   5.394  14.516  0.0898  0.1424  0.0132
12177DOPA   GL115343  16.829   5.169  14.160  0.2129 -0.4838 -0.2250
12177DOPA   GL215344  16.706   4.908  14.313  0.3219  0.2594  0.0614
12177DOPA   C1A15345  16.774   5.085  13.771 -0.0803  0.0845  0.1606
12177DOPA   D2A15346  16.670   5.343  13.301  0.0599  0.0800  0.1524
12177DOPA   C3A15347  16.539   5.791  13.374  0.1792 -0.0547  0.2152
12177DOPA   C4A15348  16.182   5.961  13.672  0.4089  0.1471  0.1344
12177DOPA   C1B15349  16.625   4.607  14.005  0.3085  0.0172  0.0964
12177DOPA   D2B15350  16.507   4.390  13.615  0.2204 -0.1743 -0.0875
12177DOPA   C3B15351  16.658   4.402  13.141 -0.2026  0.0547  0.0259
12177DOPA   C4B15352  16.660   4.716  12.724  0.1278 -0.2242  0.0820
12178DOPA   PO415353   6.038   2.784  15.512  0.0937 -0.1191 -0.0112
12178DOPA   GL115354   5.881   2.902  15.163 -0.1742 -0.3996 -0.3404
12178DOPA   GL215355   5.695   2.858  15.076  0.1859  0.1039 -0.3545
12178DOPA   C1A15356   6.041   3.096  14.811  0.0982  0.2853  0.0816
12178DOPA   D2A15357   6.420   3.107  14.515  0.0728 -0.0335  0.0705
12178DOPA   C3A15358   6.455   3.294  14.071 -0.2778  0.0670 -0.2913
12178DOPA   C4A15359   6.602   3.312  13.631 -0.4121  0.1468  0.1325
12178DOPA   C1B15360   5.838   2.583  14.839  0.0451 -0.1822  0.1013
12178DOPA   D2B15361   5.981   2.120  14.755  0.2860 -0.0096  0.0492
12178DOPA   C3B15362   6.149   1.987  14.288 -0.1425  0.0814 -0.1882
12178DOPA   C4B15363   5.922   1.867  13.832 -0.0220  0.0542  0.0426
12179DOPA   PO415364   7.074   6.202  14.998  0.0346  0.0083 -0.0421
12179DOPA   GL115365   6.796   6.129  14.660 -0.1941  0.2880 -0.0998
12179DOPA   GL215366   6.950   5.872  14.632  0.1487 -0.1134  0.1836
12179DOPA   C1A15367   6.590   6.415  14.440 -0.0482  0.0345  0.1266
12179DOPA   D2A15368   6.424   6.863  14.289  0.2254  0.0062 -0.2464
12179DOPA   C3A15369   6.381   6.998  13.868  0.1280  0.0990  0.0393
12179DOPA   C4A15370   6.724   6.905  13.443  0.1012 -0.2807  0.0826
12179DOPA   C1B15371   6.949   5.829  14.192  0.1516  0.2862 -0.0889
12179DOPA   D2B15372   7.036   5.714  13.641 -0.0186  0.1771 -0.4372
12179DOPA   C3B15373   6.830   5.377  13.484  0.0734  0.0225  0.0233
12179DOPA   C4B15374   6.729   4.898  13.532  0.3257  0.2521  0.0931
12180DOPA   PO415375  17.731   1.763  15.246  0.0655  0.1842 -0.0301
12180DOPA   GL115376  17.518   2.147  15.021 -0.0438  0.0212  0.1888
12180DOPA   GL215377  17.382   1.860  14.873  0.2855 -0.0001  0.1347
12180DOPA   C1A15378  17.560   2.411  14.669 -0.0651  0.1380 -0.3644
12180DOPA   D2A15379  17.535   2.443  14.197  0.1551 -0.1135 -0.0879
12180DOPA   C3A15380  17.504   2.237  13.783  0.4135  0.0830  0.1612
12180DOPA   C4A15381  17.466   1.842  13.450 -0.2216  0.1150 -0.4822
12180DOPA   C1B15382  17.434   1.935  14.472  0.0567 -0.0192 -0.1227
12180DOPA   D2B15383  17.719   1.913  14.092  0.0445  0.2427  0.0805
12180DOPA   C3B15384  17.978   2.002  13.716  0.2181 -0.2995  0.0133
12180DOPA   C4B15385  17.898   2.096  13.300 -0.0105 -0.0166 -0.0714
12181DOPA   PO415386  29.056   3.534  15.284 -0.0345 -0.0940  0.0868
12181DOPA   GL115387  29.344   3.499  15.035  0.0733 -0.2880 -0.0477
12181DOPA   GL215388  29.172   3.166  14.922  0.1532 -0.4454  0.0238
12181DOPA   C1A15389  29.387   3.727  14.645  0.0709 -0.0541  0.0430
12181DOPA   D2A15390  29.450   4.070  14.302 -0.1201  0.1368  0.0147
12181DOPA   C3A15391  29.360   4.348  13.943 -0.0418 -0.2926  0.0635
12181DOPA   C4A15392  29.272   4.637  13.567  0.0144  0.0304 -0.1708
12181DOPA   C1B15393  29.011   3.187  14.469  0.3333  0.2635  0.0685
12181DOPA   D2B15394  28.728   3.074  14.081 -0.1293  0.1812  0.1582
12181DOPA   C3B15395  28.369   3.218  13.847 -0.0496  0.0559  0.2226
12181DOPA   C4B15396  27.932   3.412  13.806 -0.0934  0.0201 -0.3062
12182DOPA   PO415397  27.118   5.163  15.408 -0.4083 -0.0811 -0.1111
12182DOPA   GL115398  27.015   5.255  15.055  0.0139  0.0494 -0.3308
12182DOPA   GL215399  26.982   4.981  15.045  0.1714  0.2692  0.0434
12182DOPA   C1A15400  26.995   5.208  14.633  0.0434  0.0639 -0.1476
12182DOPA   D2A15401  27.320   5.210  14.238 -0.0305  0.3577  0.3637
12182DOPA   C3A15402  27.333   5.242  13.759  0.2575  0.0044  0.0854
12182DOPA   C4A15403  27.425   5.216  13.319  0.1081  0.3570  0.0615
12182DOPA   C1B15404  27.109   4.661  14.742  0.0639  0.2817  0.1173
12182DOPA   D2B15405  27.252   4.314  14.396  0.0630 -0.0043 -0.0204
12182DOPA   C3B15406  27.049   4.372  13.925 -0.0712 -0.0716 -0.0199
12182DOPA   C4B15407  26.872   4.482  13.523 -0.1700 -0.0616 -0.1617
12183DOPC   NC315408  30.289   4.619  10.808  0.0346  0.0833  0.2837
12183DOPC   PO415409  30.245   4.978  10.969  0.2886  0.2396 -0.1073
12183DOPC   GL115410  29.835   5.023  11.316 -0.1480  0.0165 -0.1444
12183DOPC   GL215411  29.998   5.283  11.310 -0.0013  0.0416  0.1250
12183DOPC   C1A15412  29.760   5.014  11.727  0.0687 -0.0485  0.0044
12183DOPC   D2A15413  29.492   5.132  12.150 -0.1302  0.2480  0.3036
12183DOPC   C3A15414  29.641   5.389  12.471 -0.0199 -0.2332  0.0580
12183DOPC   C4A15415  29.937   5.738  12.638  0.0463 -0.1158 -0.0064
12183DOPC   C1B15416  30.328   5.141  11.578  0.0363  0.1275 -0.2508
12183DOPC   D2B15417  30.199   5.125  12.074  0.0643 -0.0888  0.1495
12183DOPC   C3B15418  29.889   4.880  12.301 -0.1130  0.0316  0.1155
12183DOPC   C4B15419  29.482   4.869  12.625 -0.0740  0.0651 -0.1283
12184DOPC   NC315420  11.956   2.356  11.066 -0.5642  0.2464 -0.0534
12184DOPC   PO415421  11.731   2.598  11.313  0.1559 -0.0049 -0.0357
12184DOPC   GL115422  11.780   2.599  11.668 -0.0822 -0.0052 -0.0356
12184DOPC   GL215423  11.663   2.869  11.768 -0.2850  0.3383 -0.0729
12184DOPC   C1A15424  11.772   2.417  12.079  0.4270  0.2162  0.2229
12184DOPC   D2A15425  11.778   2.410  12.591 -0.1579  0.1563  0.1138
12184DOPC   C3A15426  12.064   2.558  12.925  0.2121 -0.1069 -0.0801
12184DOPC   C4A15427  12.229   2.413  13.367 -0.3436  0.0770 -0.2865
12184DOPC   C1B15428  11.271   2.783  11.969 -0.2216  0.1219  0.0708
12184DOPC   D2B15429  11.219   2.606  12.443  0.2442  0.0662  0.0394
12184DOPC   C3B15430  11.348   2.363  12.816  0.1307 -0.0507 -0.0325
12184DOPC   C4B15431  11.610   1.947  12.899  0.1823 -0.1150  0.3605
12185DOPC   NC315432   7.299   5.500  11.176 -0.1913  0.0510  0.1494
12185DOPC   PO415433   7.491   5.177  11.322 -0.0955  0.0303  0.0761
12185DOPC   GL115434   7.388   5.204  11.729  0.0342  0.3640  0.2220
12185DOPC   GL215435   7.160   5.348  11.717  0.0142  0.1675 -0.1280
12185DOPC   C1A15436   7.362   5.153  12.183  0.2872  0.0323  0.0112
12185DOPC   D2A15437   7.198   5.159  12.700 -0.1067  0.0983  0.0496
12185DOPC   C3A15438   7.391   4.964  13.044  0.2067  0.1291 -0.2021
12185DOPC   C4A15439   7.433   5.002  13.499 -0.2829  0.0463  0.2631
12185DOPC   C1B15440   7.333   5.669  11.912  0.1579 -0.2264 -0.0595
12185DOPC   D2B15441   7.206   5.585  12.395 -0.2897 -0.1424  0.0763
12185DOPC   C3B15442   7.346   5.810  12.819  0.2391  0.2603  0.2715
12185DOPC   C4B15443   7.278   6.010  13.277 -0.0671 -0.0870  0.0959
12186DOPC   NC315444  19.755   7.512  10.932 -0.1198 -0.1354  0.0592
12186DOPC   PO415445  19.731   7.310  11.289  0.1373  0.1043 -0.1021
12186DOPC   GL115446  19.525   7.340  11.673 -0.0662 -0.0315  0.1895
12186DOPC   GL215447  19.522   7.568  11.757  0.3380 -0.0853 -0.0193
12186DOPC   C1A15448  19.598   7.060  11.958 -0.1619 -0.1517 -0.1233
12186DOPC   D2A15449  19.748   6.775  12.313  0.1220 -0.1972 -0.1325
12186DOPC   C3A15450  19.413   6.413  12.204 -0.1984  0.0781  0.1578
12186DOPC   C4A15451  19.121   5.971  12.264  0.0356 -0.1103 -0.1901
12186DOPC   C1B15452  19.586   7.600  12.147 -0.0423 -0.2299 -0.0997
12186DOPC   D2B15453  19.570   7.747  12.623  0.1325 -0.1365 -0.3892
12186DOPC   C3B15454  19.571   7.999  13.026 -0.0041 -0.2163 -0.1274
12186DOPC   C4B15455  19.281   7.883  13.503  0.1932 -0.1377 -0.0176
12187DOPC   NC315456   3.627   4.290  11.202 -0.1356  0.1741 -0.0037
12187DOPC   PO415457   3.765   4.684  11.294  0.0956 -0.1520  0.1414
12187DOPC   GL115458   3.946   4.675  11.683  0.3642 -0.2300  0.0724
12187DOPC   GL215459   4.017   4.938  11.754 -0.3285  0.2704  0.3244
12187DOPC   C1A15460   4.103   4.593  12.065 -0.0161 -0.0563  0.1692
12187DOPC   D2A15461   4.179   4.633  12.539 -0.0274  0.1689  0.0035
12187DOPC   C3A15462   4.028   4.897  12.869  0.0278 -0.0555 -0.1736
12187DOPC   C4A15463   3.802   5.234  13.140  0.1570 -0.2555 -0.1609
12187DOPC   C1B15464   3.938   5.030  12.167  0.5107 -0.2411 -0.1114
12187DOPC   D2B15465   3.618   5.029  12.539 -0.0308 -0.1265 -0.0586
12187DOPC   C3B15466   3.313   5.193  12.879 -0.1148 -0.1074 -0.1085
12187DOPC   C4B15467   2.932   5.413  13.179 -0.0840  0.0630  0.1550
12188DOPC   NC315468  26.240   4.832  11.698 -0.3815  0.3035  0.2596
12188DOPC   PO415469  25.961   5.078  11.839  0.4869 -0.1930 -0.2827
12188DOPC   GL115470  25.938   4.951  12.215 -0.1158  0.2874  0.2081
12188DOPC   GL215471  26.252   4.985  12.354  0.0497 -0.1498 -0.0501
12188DOPC   C1A15472  25.771   4.880  12.607 -0.0127  0.2243  0.1924
12188DOPC   D2A15473  25.635   4.880  13.112 -0.1498 -0.1972 -0.0338
12188DOPC   C3A15474  25.602   4.592  13.455 -0.0474  0.2829  0.0850
12188DOPC   C4A15475  25.614   4.362  13.819 -0.3281 -0.0400  0.1640
12188DOPC   C1B15476  26.250   4.960  12.751 -0.0312  0.0196  0.2862
12188DOPC   D2B15477  26.162   5.036  13.214  0.3212 -0.2461  0.2555
12188DOPC   C3B15478  26.299   5.295  13.565  0.3630 -0.0754 -0.1709
12188DOPC   C4B15479  26.376   5.556  13.994 -0.3751 -0.1197 -0.1076
12189DOPC   NC315480   8.276   2.675  11.451  0.2870  0.2642  0.0528
12189DOPC   PO415481   8.435   2.465  11.130  0.0896 -0.2034  0.0111
12189DOPC   GL115482   8.559   2.220  11.486 -0.0915  0.0997  0.0678
12189DOPC   GL215483   8.766   2.417  11.558  0.0220 -0.0231 -0.1444
12189DOPC   C1A15484   8.225   2.176  11.851  0.0169  0.2129 -0.3734
12189DOPC   D2A15485   8.019   2.187  12.292  0.1055  0.1848 -0.2287
12189DOPC   C3A15486   7.780   2.187  12.691 -0.1969  0.0421 -0.0637
12189DOPC   C4A15487   8.036   2.172  13.117  0.1773 -0.2164 -0.1273
12189DOPC   C1B15488   8.857   2.283  11.977  0.0278 -0.0041  0.0320
12189DOPC   D2B15489   8.777   2.012  12.424 -0.2619  0.0892  0.0038
12189DOPC   C3B15490   8.846   2.012  12.860 -0.1061 -0.0913 -0.0312
12189DOPC   C4B15491   8.869   1.783  13.242  0.2752 -0.0068  0.1500
12190DOPC   NC315492  25.499   0.715  11.570 -0.1394  0.0617  0.0157
12190DOPC   PO415493  25.411   0.433  11.319 -0.0519 -0.2660  0.1403
12190DOPC   GL115494  25.728   0.196  11.495  0.2498  0.1564 -0.5876
12190DOPC   GL215495  25.884   0.463  11.448 -0.3578 -0.0511  0.0058
12190DOPC   C1A15496  25.697   0.152  11.964 -0.0501 -0.0733  0.0650
12190DOPC   D2A15497  25.513   0.013  12.422  0.1557  0.1048 -0.1283
12190DOPC   C3A15498  25.653  -0.163  12.841 -0.2780 -0.2447  0.1736
12190DOPC   C4A15499  25.737  -0.563  13.154  0.1216  0.1450 -0.0903
12190DOPC   C1B15500  25.912   0.561  11.843  0.1007  0.2243 -0.4498
12190DOPC   D2B15501  26.178   0.406  12.224 -0.2978  0.2334 -0.2130
12190DOPC   C3B15502  26.005   0.193  12.640 -0.0862  0.0094  0.3636
12190DOPC   C4B15503  25.900   0.282  13.152 -0.1194  0.0556  0.0944
12191DOPC   NC315504   2.035   7.789  11.527  0.0358  0.0859 -0.1306
12191DOPC   PO415505   1.674   7.781  11.372 -0.0204  0.2915  0.1307
12191DOPC   GL115506   1.491   7.776  11.698 -0.3746 -0.1953 -0.1097
12191DOPC   GL215507   1.557   8.023  11.854  0.1294  0.2084 -0.2705
12191DOPC   C1A15508   1.555   7.355  11.887 -0.2737  0.1909 -0.0313
12191DOPC   D2A15509   1.643   6.994  12.162 -0.0104 -0.0433 -0.3160
12191DOPC   C3A15510   1.875   7.013  12.586  0.1468  0.0442 -0.2902
12191DOPC   C4A15511   2.134   7.249  12.873 -0.0983  0.2547  0.1751
12191DOPC   C1B15512   1.943   7.953  12.142  0.0763 -0.0982  0.3099
12191DOPC   D2B15513   2.292   7.856  12.509  0.1659 -0.1491  0.1419
12191DOPC   C3B15514   2.496   7.615  12.835 -0.2162 -0.0993 -0.0713
12191DOPC   C4B15515   2.555   7.217  13.109  0.0926 -0.1687 -0.1464
12192DOPC   NC315516  19.366   3.629  11.300 -0.1104 -0.0620 -0.4834
12192DOPC   PO415517  19.324   4.038  11.459 -0.2052  0.3092  0.0004
12192DOPC   GL115518  19.383   4.179  11.787 -0.0625 -0.2144  0.3475
12192DOPC   GL215519  19.640   4.243  11.821  0.0533 -0.2231 -0.3694
12192DOPC   C1A15520  19.128   4.069  12.110  0.1066  0.2312 -0.0380
12192DOPC   D2A15521  19.210   3.803  12.515  0.1085 -0.1504 -0.2742
12192DOPC   C3A15522  19.336   3.796  12.898 -0.3707  0.1557  0.1481
12192DOPC   C4A15523  19.562   3.896  13.369  0.1848 -0.0359  0.1591
12192DOPC   C1B15524  19.721   3.879  12.100  0.1462  0.1189 -0.0732
12192DOPC   D2B15525  19.615   3.504  12.422  0.0646  0.2986 -0.0760
12192DOPC   C3B15526  19.275   3.347  12.647  0.1035  0.2578  0.1629
12192DOPC   C4B15527  18.886   3.599  12.805 -0.2536 -0.0554  0.3719
12193DOPC   NC315528  24.020   1.537  11.704 -0.1848 -0.1763 -0.2258
12193DOPC   PO415529  24.236   1.221  11.669 -0.1433 -0.0393  0.0279
12193DOPC   GL115530  24.493   1.070  12.035  0.1847 -0.3192 -0.0243
12193DOPC   GL215531  24.443   1.342  12.137  0.0157  0.0776  0.1221
12193DOPC   C1A15532  24.653   1.003  12.446 -0.2630  0.1817  0.1364
12193DOPC   D2A15533  24.899   1.179  12.807 -0.0503  0.1435  0.3693
12193DOPC   C3A15534  24.760   1.260  13.212 -0.1366 -0.2339  0.2893
12193DOPC   C4A15535  24.525   1.485  13.523 -0.1183  0.2888 -0.1114
12193DOPC   C1B15536  24.441   1.500  12.584  0.1853  0.1245 -0.0198
12193DOPC   D2B15537  24.428   1.553  13.024 -0.1359 -0.1313 -0.0570
12193DOPC   C3B15538  24.020   1.737  13.221  0.3204  0.0962 -0.1103
12193DOPC   C4B15539  23.586   1.892  13.425  0.2511  0.1480 -0.1269
12194DOPC   NC315540  12.404   1.639  10.940  0.0664  0.0981  0.3610
12194DOPC   PO415541  12.699   1.766  11.191 -0.0562  0.1786 -0.0074
12194DOPC   GL115542  12.748   1.627  11.547 -0.0848 -0.0355  0.2897
12194DOPC   GL215543  12.940   1.426  11.562 -0.0132 -0.0671 -0.4565
12194DOPC   C1A15544  12.481   1.797  11.831 -0.2546  0.1820  0.4545
12194DOPC   D2A15545  12.293   1.949  12.279  0.3240  0.0491  0.0571
12194DOPC   C3A15546  12.377   1.831  12.677  0.1768 -0.0710 -0.1007
12194DOPC   C4A15547  12.708   1.589  13.001 -0.1836  0.0069 -0.1494
12194DOPC   C1B15548  13.244   1.559  11.735 -0.0144  0.2315  0.2410
12194DOPC   D2B15549  13.499   1.793  12.104  0.0702  0.0160 -0.0583
12194DOPC   C3B15550  13.471   2.054  12.473  0.0579  0.1306  0.2549
12194DOPC   C4B15551  13.505   2.274  12.920 -0.2981  0.2553 -0.0121
12195DOPC   NC315552  12.833   0.038  11.299  0.0135 -0.1102 -0.1046
12195DOPC   PO415553  12.938   0.354  11.119 -0.2212  0.1368  0.3052
12195DOPC   GL115554  12.995   0.390  11.562  0.0528 -0.1979  0.3312
12195DOPC   GL215555  12.839   0.276  11.708  0.4510 -0.0358 -0.1391
12195DOPC   C1A15556  13.258   0.582  11.862  0.6357  0.0461 -0.0163
12195DOPC   D2A15557  13.520   0.848  12.154 -0.0986 -0.2351 -0.0371
12195DOPC   C3A15558  13.650   0.671  12.497  0.0897  0.0695  0.3159
12195DOPC   C4A15559  13.375   0.538  12.882 -0.0784  0.1422 -0.1301
12195DOPC   C1B15560  12.857   0.351  12.145 -0.0178 -0.2798 -0.3224
12195DOPC   D2B15561  13.202   0.492  12.410 -0.0375  0.1594  0.3183
12195DOPC   C3B15562  13.154   0.110  12.653 -0.2262 -0.3316  0.1319
12195DOPC   C4B15563  13.273  -0.304  12.817 -0.0357  0.1728 -0.1593
12196DOPC   NC315564  16.426   5.407  10.283  0.1442 -0.3456 -0.0925
12196DOPC   PO415565  16.538   5.229  10.635  0.0653  0.2850 -0.0315
12196DOPC   GL115566  16.348   5.172  10.998  0.1296 -0.0323  0.1082
12196DOPC   GL215567  16.224   4.962  11.084 -0.0874 -0.2814  0.2727
12196DOPC   C1A15568  16.235   5.608  11.190 -0.0552  0.1171 -0.2785
12196DOPC   D2A15569  16.267   6.021  11.458 -0.0403 -0.2124 -0.2309
12196DOPC   C3A15570  16.316   5.835  11.948 -0.1658 -0.0847 -0.2569
12196DOPC   C4A15571  16.535   5.544  12.254  0.0349 -0.1432  0.0981
12196DOPC   C1B15572  16.278   5.203  11.536 -0.0381 -0.1339  0.2048
12196DOPC   D2B15573  16.218   5.356  11.961  0.1376 -0.2047  0.0850
12196DOPC   C3B15574  16.098   5.394  12.440  0.1049 -0.3200  0.1738
12196DOPC   C4B15575  15.901   5.547  12.843  0.2717  0.1596 -0.1165
12197DOPC   NC315576  10.299   6.852  10.915 -0.0707  0.0397 -0.0644
12197DOPC   PO415577  10.146   7.214  10.997  0.1226 -0.1333  0.0695
12197DOPC   GL115578  10.228   7.419  11.411 -0.1375 -0.1780 -0.1087
12197DOPC   GL215579  10.374   7.192  11.414 -0.2614  0.0066  0.2339
12197DOPC   C1A15580   9.955   7.560  11.698 -0.0378 -0.0005 -0.3177
12197DOPC   D2A15581   9.526   7.725  11.885  0.1700 -0.0490  0.0599
12197DOPC   C3A15582   9.484   7.851  12.335 -0.1021 -0.1047  0.1153
12197DOPC   C4A15583   9.509   7.930  12.881 -0.0409  0.2080 -0.1069
12197DOPC   C1B15584  10.224   7.060  11.723 -0.3157 -0.1652  0.0100
12197DOPC   D2B15585  10.303   7.324  12.182  0.0781  0.0682  0.2522
12197DOPC   C3B15586  10.248   7.137  12.547 -0.0802  0.0471 -0.0978
12197DOPC   C4B15587  10.379   7.341  12.919  0.1176 -0.2447 -0.2041
12198DOPC   NC315588   3.409   3.098  11.264 -0.0255  0.1711 -0.3689
12198DOPC   PO415589   3.797   2.974  11.132  0.0356 -0.0234  0.1674
12198DOPC   GL115590   3.913   2.943  11.595  0.2485  0.1816  0.1363
12198DOPC   GL215591   3.832   3.267  11.564  0.0684  0.4518 -0.2132
12198DOPC   C1A15592   4.075   2.773  12.008  0.0491  0.0924  0.3481
12198DOPC   D2A15593   4.171   2.786  12.537  0.0068  0.1666  0.0310
12198DOPC   C3A15594   4.261   3.092  12.862  0.0843  0.0451 -0.1126
12198DOPC   C4A15595   4.409   3.450  13.220  0.2005 -0.0320  0.1014
12198DOPC   C1B15596   3.889   3.553  11.880  0.0422  0.0685 -0.3188
12198DOPC   D2B15597   3.927   3.796  12.351 -0.2272  0.1043 -0.0546
12198DOPC   C3B15598   3.739   4.011  12.721 -0.2810 -0.2918 -0.0358
12198DOPC   C4B15599   3.620   4.215  13.147  0.1594  0.1838  0.3655
12199DOPC   NC315600   2.389   3.035  11.026 -0.2573 -0.0259 -0.3540
12199DOPC   PO415601   2.015   3.026  11.173 -0.1446 -0.2861  0.1502
12199DOPC   GL115602   2.033   3.051  11.574  0.1202  0.2133  0.4204
12199DOPC   GL215603   1.789   2.893  11.590  0.0080  0.0927 -0.0972
12199DOPC   C1A15604   1.991   3.316  11.916 -0.2987  0.0837 -0.1560
12199DOPC   D2A15605   1.933   3.637  12.291 -0.4021 -0.3026  0.3419
12199DOPC   C3A15606   1.888   4.016  12.131 -0.0868  0.2457  0.4259
12199DOPC   C4A15607   1.637   4.423  11.879  0.2915 -0.0429 -0.0527
12199DOPC   C1B15608   1.806   2.765  12.018 -0.0369 -0.0237  0.0275
12199DOPC   D2B15609   1.729   2.799  12.469  0.0980 -0.1107  0.1420
12199DOPC   C3B15610   1.578   3.040  12.838  0.1841  0.1786 -0.1141
12199DOPC   C4B15611   1.746   2.845  13.326  0.3024  0.0421  0.1007
12200DOPC   NC315612  22.663   6.764  11.523 -0.2623  0.0584  0.2453
12200DOPC   PO415613  23.045   6.675  11.513  0.0576  0.2768  0.1960
12200DOPC   GL115614  23.104   6.408  11.905 -0.3017 -0.3234  0.1643
12200DOPC   GL215615  22.870   6.533  11.991 -0.1959  0.1504 -0.1694
12200DOPC   C1A15616  23.163   6.247  12.277 -0.0017  0.2127  0.2588
12200DOPC   D2A15617  23.324   6.039  12.704 -0.2252 -0.1292 -0.4547
12200DOPC   C3A15618  23.545   5.910  13.081 -0.1219  0.1627  0.0610
12200DOPC   C4A15619  23.616   5.637  13.542 -0.1338 -0.0220 -0.3442
12200DOPC   C1B15620  22.821   6.618  12.465  0.0777  0.1616  0.1786
12200DOPC   D2B15621  22.890   6.687  12.972  0.0284  0.2948  0.2243
12200DOPC   C3B15622  22.681   6.910  13.334  0.0865 -0.0265 -0.0767
12200DOPC   C4B15623  22.235   6.870  13.513  0.1183 -0.0652 -0.0590
12201DOPC   NC315624  30.718   3.888  11.308  0.2921  0.0495  0.2365
12201DOPC   PO415625  30.848   3.490  11.241  0.0219  0.1214  0.1744
12201DOPC   GL115626  30.962   3.535  11.662  0.2714  0.0498 -0.0554
12201DOPC   GL215627  31.011   3.329  11.723 -0.0376  0.1927 -0.2946
12201DOPC   C1A15628  30.872   3.934  11.799  0.2905 -0.0993  0.0329
12201DOPC   D2A15629  30.794   4.433  11.978  0.1339  0.2864 -0.1524
12201DOPC   C3A15630  30.575   4.426  12.393  0.2892  0.0583  0.1588
12201DOPC   C4A15631  30.495   4.221  12.785  0.1327  0.1764 -0.0116
12201DOPC   C1B15632  31.185   3.483  12.146 -0.1833  0.0124 -0.1410
12201DOPC   D2B15633  31.475   3.443  12.610  0.3026 -0.2113  0.1943
12201DOPC   C3B15634  31.467   3.222  13.055 -0.0916 -0.0931  0.0378
12201DOPC   C4B15635  31.441   3.318  13.544  0.2535 -0.4984 -0.1099
12202DOPC   NC315636   3.429   5.172  11.004  0.0988  0.0570 -0.3522
12202DOPC   PO415637   3.059   5.212  11.184  0.0967 -0.1611  0.0134
12202DOPC   GL115638   3.136   5.119  11.597 -0.3149  0.2787 -0.0123
12202DOPC   GL215639   3.154   4.826  11.623 -0.1258  0.1848  0.0365
12202DOPC   C1A15640   3.201   5.398  11.900 -0.0981  0.1001  0.0528
12202DOPC   D2A15641   3.249   5.865  11.979  0.0983 -0.0843  0.1019
12202DOPC   C3A15642   3.383   6.008  12.420 -0.1775  0.2797 -0.2235
12202DOPC   C4A15643   3.250   6.120  12.948  0.1962  0.0689 -0.2221
12202DOPC   C1B15644   3.058   4.503  11.987  0.1611 -0.0756  0.1074
12202DOPC   D2B15645   2.651   4.510  12.359  0.0407 -0.0122 -0.0387
12202DOPC   C3B15646   2.371   4.424  12.756 -0.1449 -0.0436 -0.3649
12202DOPC   C4B15647   1.897   4.410  13.079  0.2100  0.0461 -0.1982
12203DOPC   NC315648   2.140   0.729  10.914  0.2795  0.2203 -0.0769
12203DOPC   PO415649   2.198   0.604  11.280  0.0481  0.1886  0.3989
12203DOPC   GL115650   2.436   0.819  11.556  0.3655 -0.0576  0.1206
12203DOPC   GL215651   2.185   0.948  11.600 -0.0111  0.1717 -0.0855
12203DOPC   C1A15652   2.733   0.794  11.880 -0.1968 -0.1107  0.1268
12203DOPC   D2A15653   3.036   0.796  12.242 -0.0779 -0.0106  0.0840
12203DOPC   C3A15654   2.765   0.956  12.651  0.1425 -0.1667 -0.0640
12203DOPC   C4A15655   2.622   1.051  13.087  0.0479 -0.1523 -0.0344
12203DOPC   C1B15656   2.202   1.009  12.068 -0.0846  0.0180 -0.0467
12203DOPC   D2B15657   2.305   0.991  12.536 -0.1149  0.0629 -0.0719
12203DOPC   C3B15658   2.275   0.545  12.762 -0.0082  0.2667 -0.0947
12203DOPC   C4B15659   2.324   0.271  13.160  0.2590 -0.0351  0.0834
12204DOPC   NC315660  29.972   1.497  10.988 -0.1568 -0.1321  0.0867
12204DOPC   PO415661  29.960   1.730  11.325 -0.0730  0.0602 -0.1907
12204DOPC   GL115662  30.020   1.701  11.666  0.3766 -0.1616 -0.1137
12204DOPC   GL215663  30.296   1.844  11.728 -0.2224  0.2223  0.0713
12204DOPC   C1A15664  29.737   1.621  12.036  0.0576  0.0650 -0.3223
12204DOPC   D2A15665  29.369   1.609  12.438  0.0611 -0.0673 -0.1135
12204DOPC   C3A15666  29.406   1.893  12.855 -0.0746  0.0063  0.1496
12204DOPC   C4A15667  29.532   2.102  13.311  0.1449  0.0120 -0.1026
12204DOPC   C1B15668  30.129   1.998  12.081 -0.4302 -0.1803 -0.0303
12204DOPC   D2B15669  29.779   1.944  12.466  0.1671  0.0906 -0.1823
12204DOPC   C3B15670  29.970   2.094  12.855  0.2519 -0.0379  0.1934
12204DOPC   C4B15671  30.053   2.198  13.304 -0.1405 -0.1983 -0.1324
12205DOPC   NC315672  16.534   1.904  10.339 -0.2214 -0.3747 -0.2600
12205DOPC   PO415673  16.216   1.769  10.574  0.1939  0.2407  0.0637
12205DOPC   GL115674  16.049   1.963  10.937  0.1367 -0.2784 -0.1239
12205DOPC   GL215675  15.832   2.090  10.687 -0.4863  0.1864 -0.1154
12205DOPC   C1A15676  15.878   1.839  11.285 -0.1532 -0.0845  0.0925
12205DOPC   D2A15677  15.779   1.516  11.650  0.0980 -0.3526  0.3728
12205DOPC   C3A15678  15.822   1.614  12.120 -0.1820 -0.1479 -0.4386
12205DOPC   C4A15679  15.730   1.770  12.556 -0.3493  0.1651 -0.2122
12205DOPC   C1B15680  15.526   2.034  11.005  0.2268 -0.0302  0.1123
12205DOPC   D2B15681  15.067   2.154  11.251 -0.2099 -0.2486 -0.1900
12205DOPC   C3B15682  14.845   2.413  11.517 -0.2862  0.1269 -0.1243
12205DOPC   C4B15683  14.525   2.669  11.798 -0.0725  0.2696  0.0569
12206DOPC   NC315684  20.830   7.784  11.572 -0.0093 -0.2376  0.2079
12206DOPC   PO415685  21.121   7.505  11.646  0.0533 -0.0472  0.3487
12206DOPC   GL115686  21.076   7.615  12.002 -0.2450  0.0463 -0.0419
12206DOPC   GL215687  21.033   7.464  12.194 -0.0252 -0.1037 -0.0586
12206DOPC   C1A15688  21.381   7.811  12.312  0.0762  0.1011  0.0404
12206DOPC   D2A15689  21.491   8.117  12.705 -0.1507 -0.0475 -0.0432
12206DOPC   C3A15690  21.410   8.147  13.159 -0.2095 -0.1978 -0.1138
12206DOPC   C4A15691  21.111   7.916  13.496  0.6021  0.0755 -0.1853
12206DOPC   C1B15692  21.031   7.483  12.612 -0.0361 -0.0552  0.4794
12206DOPC   D2B15693  21.164   7.543  13.066 -0.1791  0.0292 -0.0496
12206DOPC   C3B15694  21.067   7.447  13.568 -0.0725  0.2057 -0.2501
12206DOPC   C4B15695  20.871   7.675  13.959  0.2287  0.1367 -0.0509
12207DOPC   NC315696   2.398   3.804  10.764  0.0852 -0.2310  0.0792
12207DOPC   PO415697   2.781   3.984  10.812  0.0341 -0.2180  0.1838
12207DOPC   GL115698   3.010   3.988  11.120 -0.0081 -0.2364  0.0571
12207DOPC   GL215699   3.112   4.153  11.246  0.1455  0.1183  0.1303
12207DOPC   C1A15700   3.006   3.626  11.426  0.1514 -0.0343  0.0774
12207DOPC   D2A15701   2.955   3.173  11.688 -0.0320  0.0253  0.1338
12207DOPC   C3A15702   3.340   2.897  11.738 -0.1084  0.0703  0.0755
12207DOPC   C4A15703   3.714   2.550  11.685 -0.0461  0.0918 -0.0550
12207DOPC   C1B15704   3.100   4.085  11.675  0.1434 -0.0142  0.1166
12207DOPC   D2B15705   2.799   4.119  12.084 -0.3338 -0.1576 -0.0775
12207DOPC   C3B15706   2.743   4.066  12.550  0.1401 -0.1033 -0.0061
12207DOPC   C4B15707   2.833   3.791  12.948 -0.1062 -0.1413 -0.5908
12208DOPC   NC315708   7.881   7.428  10.606 -0.0046  0.1225  0.2702
12208DOPC   PO415709   7.522   7.622  10.682  0.0905  0.2555 -0.0550
12208DOPC   GL115710   7.474   7.411  10.982 -0.0981 -0.0306 -0.1377
12208DOPC   GL215711   7.363   7.199  11.039  0.1910  0.0273  0.0408
12208DOPC   C1A15712   7.460   7.552  11.409 -0.0408 -0.2062 -0.1049
12208DOPC   D2A15713   7.357   7.724  11.886 -0.1512  0.0365  0.0283
12208DOPC   C3A15714   7.407   7.901  12.270 -0.1865  0.0223 -0.0524
12208DOPC   C4A15715   7.561   7.797  12.688  0.0435 -0.0164  0.1768
12208DOPC   C1B15716   7.374   7.057  11.515  0.0854 -0.3418 -0.1073
12208DOPC   D2B15717   7.476   6.942  11.984 -0.0502  0.0214  0.1353
12208DOPC   C3B15718   7.273   6.963  12.402  0.3691 -0.1382  0.0601
12208DOPC   C4B15719   7.039   6.997  12.841 -0.2110 -0.0498  0.0597
12209DOPC   NC315720  20.986   5.359  11.054 -0.1033  0.0378  0.0854
12209DOPC   PO415721  20.904   5.742  11.237  0.0465  0.2925 -0.1838
12209DOPC   GL115722  20.732   5.900  11.664  0.0180  0.3566 -0.2368
12209DOPC   GL215723  20.627   6.014  11.445  0.0442  0.3903  0.3841
12209DOPC   C1A15724  20.954   5.931  12.057 -0.0709  0.1576  0.0308
12209DOPC   D2A15725  20.882   6.112  12.526 -0.1085  0.2555  0.0519
12209DOPC   C3A15726  20.707   6.306  12.918 -0.1418 -0.1677 -0.4673
12209DOPC   C4A15727  20.573   6.655  13.187 -0.1763 -0.3731 -0.3412
12209DOPC   C1B15728  20.529   6.228  11.856  0.1801 -0.1075  0.0607
12209DOPC   D2B15729  20.483   6.411  12.319  0.2745 -0.2727 -0.1510
12209DOPC   C3B15730  20.329   6.011  12.480 -0.0338  0.0646 -0.3010
12209DOPC   C4B15731  20.015   5.763  12.798  0.1379 -0.1001  0.1368
12210DOPC   NC315732   0.408   2.631  11.268  0.0162  0.0115 -0.0760
12210DOPC   PO415733   0.202   2.332  11.410  0.0360  0.0450 -0.0416
12210DOPC   GL115734   0.022   2.517  11.711 -0.1002 -0.2019 -0.1821
12210DOPC   GL215735   0.220   2.537  11.848  0.1870  0.0073 -0.3844
12210DOPC   C1A15736  -0.305   2.486  11.938  0.0001 -0.0807  0.3572
12210DOPC   D2A15737  -0.608   2.198  12.186  0.0147 -0.0106 -0.0471
12210DOPC   C3A15738  -0.917   2.517  12.038 -0.2332  0.3036 -0.1257
12210DOPC   C4A15739  -1.244   2.834  11.911 -0.0762 -0.2236 -0.2726
12210DOPC   C1B15740   0.172   2.609  12.296 -0.0205 -0.1059  0.0857
12210DOPC   D2B15741  -0.342   2.733  12.497  0.1382 -0.1383 -0.2180
12210DOPC   C3B15742  -0.718   2.837  12.737 -0.1004 -0.0575  0.1312
12210DOPC   C4B15743  -1.129   2.700  12.964  0.2697 -0.0635  0.3253
12211DOPC   NC315744   8.945   3.813  11.517 -0.1091 -0.3378 -0.1593
12211DOPC   PO415745   8.824   4.205  11.453 -0.2098  0.1456  0.1917
12211DOPC   GL115746   9.062   4.419  11.715 -0.1444  0.0502 -0.3517
12211DOPC   GL215747   8.887   4.636  11.791  0.3522  0.0185  0.2334
12211DOPC   C1A15748   9.447   4.336  11.929 -0.1382 -0.2773  0.1451
12211DOPC   D2A15749   9.790   4.468  12.298 -0.0627 -0.2136  0.1922
12211DOPC   C3A15750   9.791   4.399  12.769  0.3937 -0.0476  0.0835
12211DOPC   C4A15751   9.606   4.366  13.214  0.0809  0.3947 -0.0298
12211DOPC   C1B15752   9.259   4.798  11.980  0.4248 -0.4520 -0.1681
12211DOPC   D2B15753   9.580   5.022  12.203  0.1259 -0.1573 -0.2275
12211DOPC   C3B15754   9.825   4.861  12.577  0.0144 -0.0473 -0.1005
12211DOPC   C4B15755  10.204   4.668  12.800 -0.0950 -0.2249  0.1495
12212DOPC   NC315756  17.333   2.009  10.815 -0.3090 -0.0113  0.0041
12212DOPC   PO415757  17.286   1.641  11.011 -0.1211  0.1638  0.1106
12212DOPC   GL115758  17.362   1.685  11.362  0.0607  0.2506 -0.1637
12212DOPC   GL215759  17.099   1.600  11.546  0.2386 -0.5863 -0.1248
12212DOPC   C1A15760  17.620   1.732  11.705 -0.1315  0.0243  0.1801
12212DOPC   D2A15761  17.556   1.658  12.193  0.0228  0.0582 -0.0717
12212DOPC   C3A15762  17.770   1.705  12.657 -0.2483  0.0801 -0.0155
12212DOPC   C4A15763  17.764   1.596  13.143  0.4231  0.0897  0.1584
12212DOPC   C1B15764  17.075   1.446  11.910 -0.1471 -0.1186 -0.1557
12212DOPC   D2B15765  16.868   1.404  12.336 -0.0615 -0.0093 -0.3860
12212DOPC   C3B15766  16.948   1.383  12.789 -0.0591  0.3960  0.0343
12212DOPC   C4B15767  17.110   1.207  13.239  0.1550 -0.0315  0.0737
12213DOPC   NC315768   4.996   4.512  11.350  0.1985  0.1681  0.1214
12213DOPC   PO415769   4.710   4.710  11.497 -0.0606  0.2209  0.2225
12213DOPC   GL115770   4.463   4.639  11.760  0.0505  0.1541 -0.1034
12213DOPC   GL215771   4.401   4.371  11.806 -0.0389  0.0457 -0.1253
12213DOPC   C1A15772   4.562   4.711  12.196  0.2013 -0.3520  0.0982
12213DOPC   D2A15773   4.625   5.099  12.555 -0.4473 -0.0495  0.2302
12213DOPC   C3A15774   5.042   5.047  12.703 -0.0455 -0.1165 -0.1674
12213DOPC   C4A15775   5.413   4.940  13.006 -0.0238  0.1387  0.1010
12213DOPC   C1B15776   4.311   4.156  12.237  0.2351  0.1906 -0.1259
12213DOPC   D2B15777   4.235   4.167  12.729 -0.4892  0.3778 -0.1547
12213DOPC   C3B15778   4.073   3.890  13.090  0.2508 -0.0149 -0.1126
12213DOPC   C4B15779   3.867   3.469  13.127 -0.3092 -0.2528  0.0082
12214DOPC   NC315780  21.916   1.513  11.027 -0.1739  0.0997 -0.0752
12214DOPC   PO415781  22.122   1.631  11.343 -0.1409 -0.1980  0.2298
12214DOPC   GL115782  22.055   1.766  11.688 -0.1441  0.2476  0.4232
12214DOPC   GL215783  22.262   1.668  11.890  0.1719  0.0643 -0.2814
12214DOPC   C1A15784  21.672   1.976  11.872  0.0772 -0.5415 -0.1318
12214DOPC   D2A15785  21.273   2.172  12.115 -0.0897  0.0363  0.1987
12214DOPC   C3A15786  21.376   2.314  12.545  0.0732  0.0442 -0.0827
12214DOPC   C4A15787  21.294   2.558  12.943  0.2007  0.1374 -0.1348
12214DOPC   C1B15788  22.056   1.684  12.297 -0.2655  0.0073 -0.0596
12214DOPC   D2B15789  21.958   1.698  12.735 -0.3781 -0.1395 -0.0675
12214DOPC   C3B15790  21.714   2.028  12.953 -0.1047  0.1422 -0.0088
12214DOPC   C4B15791  21.589   2.340  13.268 -0.2952 -0.0850  0.0099
12215DOPC   NC315792  24.625   2.812  11.074 -0.0370  0.0410 -0.1628
12215DOPC   PO415793  24.241   2.838  11.212 -0.1604  0.0366 -0.1884
12215DOPC   GL115794  24.297   3.122  11.613  0.3768  0.0832 -0.0801
12215DOPC   GL215795  24.011   3.008  11.638 -0.2716 -0.2268  0.0127
12215DOPC   C1A15796  24.489   3.178  11.990 -0.0492 -0.0015  0.0324
12215DOPC   D2A15797  24.778   3.197  12.394 -0.1559  0.2508 -0.1906
12215DOPC   C3A15798  24.866   3.322  12.862 -0.2052 -0.0746 -0.0616
12215DOPC   C4A15799  24.909   3.537  13.302 -0.1848  0.2991  0.2690
12215DOPC   C1B15800  24.023   2.874  12.042 -0.3128  0.0217  0.1757
12215DOPC   D2B15801  24.246   3.098  12.398 -0.0918  0.0795  0.0371
12215DOPC   C3B15802  24.300   3.225  12.810  0.1768  0.1419 -0.0577
12215DOPC   C4B15803  24.498   3.262  13.269  0.3484 -0.2712 -0.0507
12216DOPC   NC315804   3.389   7.797  11.253 -0.1204  0.3309  0.0103
12216DOPC   PO415805   3.403   8.164  11.115 -0.3219  0.2379 -0.2187
12216DOPC   GL115806   3.564   8.243  11.535  0.2686 -0.1341  0.0394
12216DOPC   GL215807   3.784   8.452  11.462  0.1321  0.1005 -0.0615
12216DOPC   C1A15808   3.592   8.188  11.943  0.1079  0.3557  0.0013
12216DOPC   D2A15809   3.503   8.406  12.327  0.0809 -0.1801 -0.0145
12216DOPC   C3A15810   3.260   8.561  12.676 -0.1590 -0.3299 -0.0036
12216DOPC   C4A15811   3.151   8.938  13.008 -0.5187  0.2605 -0.3880
12216DOPC   C1B15812   3.895   8.698  11.845  0.0069  0.0912 -0.2666
12216DOPC   D2B15813   4.000   9.174  12.015  0.1054  0.1583 -0.1018
12216DOPC   C3B15814   3.938   9.236  12.492 -0.1778  0.2327 -0.0708
12216DOPC   C4B15815   3.684   9.030  12.811  0.1029  0.0643  0.3376
12217DOPC   NC315816  19.937   7.687  11.717 -0.0691 -0.2097 -0.3512
12217DOPC   PO415817  20.339   7.708  11.594 -0.1609  0.1095  0.0901
12217DOPC   GL115818  20.552   7.568  11.952  0.1917 -0.1251 -0.0580
12217DOPC   GL215819  20.675   7.827  12.000 -0.0964  0.0762 -0.0402
12217DOPC   C1A15820  20.392   7.659  12.395  0.1915 -0.1356  0.6078
12217DOPC   D2A15821  20.075   7.789  12.796  0.2035  0.0833 -0.0961
12217DOPC   C3A15822  20.229   7.500  13.170  0.0225  0.0269 -0.1048
12217DOPC   C4A15823  20.392   7.140  13.485 -0.2098  0.0500 -0.1282
12217DOPC   C1B15824  20.862   7.898  12.374  0.0842  0.1021 -0.0809
12217DOPC   D2B15825  20.983   7.978  12.846 -0.1564 -0.1204 -0.1523
12217DOPC   C3B15826  20.898   8.219  13.191 -0.0327 -0.2876 -0.0444
12217DOPC   C4B15827  20.728   8.393  13.545 -0.0745 -0.0502 -0.1193
12218DOPC   NC315828  12.379   3.840  11.174 -0.2614  0.0828 -0.1383
12218DOPC   PO415829  11.997   3.967  11.214 -0.0833 -0.1315  0.0194
12218DOPC   GL115830  11.944   4.318  11.491  0.3291 -0.2339 -0.2224
12218DOPC   GL215831  11.698   4.513  11.360 -0.0114  0.0956  0.1237
12218DOPC   C1A15832  12.074   4.333  11.869  0.1833 -0.1284  0.2700
12218DOPC   D2A15833  12.338   4.472  12.191  0.1086 -0.1052  0.1598
12218DOPC   C3A15834  12.540   4.843  12.420 -0.2537  0.1427 -0.1547
12218DOPC   C4A15835  12.974   5.071  12.579  0.2532 -0.4201 -0.1642
12218DOPC   C1B15836  11.459   4.729  11.583 -0.0817 -0.0739 -0.0581
12218DOPC   D2B15837  11.460   5.072  11.983 -0.1050 -0.1014 -0.3328
12218DOPC   C3B15838  11.454   5.225  12.397 -0.2299 -0.1098 -0.1029
12218DOPC   C4B15839  11.616   5.460  12.848 -0.1187 -0.1777  0.2635
12219DOPC   NC315840   1.397   0.399  11.458 -0.0658 -0.3164 -0.0881
12219DOPC   PO415841   1.784   0.437  11.494  0.1101  0.1133 -0.1393
12219DOPC   GL115842   1.958   0.650  11.927 -0.2265 -0.2233  0.3623
12219DOPC   GL215843   2.203   0.519  11.752 -0.1241  0.1487  0.2538
12219DOPC   C1A15844   1.907   0.687  12.397  0.4129  0.1951  0.2204
12219DOPC   D2A15845   1.877   0.868  12.862 -0.1627  0.1999  0.1958
12219DOPC   C3A15846   1.691   1.000  13.227  0.2592 -0.0040 -0.2481
12219DOPC   C4A15847   1.392   0.924  13.601 -0.0592 -0.1954  0.1666
12219DOPC   C1B15848   2.407   0.564  12.140  0.0214  0.3344 -0.0007
12219DOPC   D2B15849   2.727   0.487  12.467 -0.2135 -0.1190  0.0557
12219DOPC   C3B15850   2.899   0.534  12.946  0.0507  0.1769  0.1368
12219DOPC   C4B15851   2.758   0.656  13.451 -0.2951  0.3754 -0.2884
12220DOPC   NC315852  13.991   0.464  10.717  0.1137  0.3355 -0.1408
12220DOPC   PO415853  13.914   0.840  10.736  0.3994  0.1593 -0.1568
12220DOPC   GL115854  13.960   1.068  11.099  0.1135 -0.4296 -0.3071
12220DOPC   GL215855  13.840   0.792  11.223  0.0826 -0.1348 -0.0744
12220DOPC   C1A15856  14.365   1.226  11.242  0.0574  0.2443  0.1561
12220DOPC   D2A15857  14.659   1.484  11.627 -0.0375 -0.0069  0.1566
12220DOPC   C3A15858  14.720   1.526  12.100 -0.2477 -0.0820  0.1534
12220DOPC   C4A15859  14.800   1.755  12.530 -0.0776 -0.1102 -0.0066
12220DOPC   C1B15860  13.655   0.724  11.621 -0.0159  0.2341 -0.2304
12220DOPC   D2B15861  13.725   0.434  12.038  0.0164 -0.1619 -0.0138
12220DOPC   C3B15862  13.651   0.166  12.458  0.3555 -0.0174  0.2979
12220DOPC   C4B15863  13.647   0.057  12.955  0.0345  0.1042 -0.2313
12221DOPC   NC315864   3.583   1.269  10.909 -0.0425  0.0064 -0.1449
12221DOPC   PO415865   3.786   1.099  11.218 -0.0909 -0.0594 -0.0640
12221DOPC   GL115866   3.876   1.380  11.496 -0.1418  0.1014 -0.3300
12221DOPC   GL215867   4.198   1.364  11.403  0.2319 -0.3267 -0.2593
12221DOPC   C1A15868   3.588   1.565  11.731  0.0602 -0.1211  0.0971
12221DOPC   D2A15869   3.556   1.709  12.253 -0.4780 -0.0063 -0.0100
12221DOPC   C3A15870   3.687   1.902  12.586  0.2102  0.0725 -0.0570
12221DOPC   C4A15871   3.808   1.981  13.056 -0.1846  0.0639 -0.0663
12221DOPC   C1B15872   4.378   1.305  11.768  0.3622 -0.2937 -0.0388
12221DOPC   D2B15873   4.352   0.908  12.039 -0.0908  0.0000 -0.0614
12221DOPC   C3B15874   4.468   1.004  12.423  0.0782  0.0703 -0.3738
12221DOPC   C4B15875   4.294   1.078  12.941 -0.0483 -0.1162  0.0445
12222DOPC   NC315876  22.391   4.540  11.652  0.2513 -0.1506  0.3883
12222DOPC   PO415877  22.772   4.409  11.709 -0.0479  0.0660 -0.1513
12222DOPC   GL115878  22.830   4.283  12.126  0.0277 -0.0638  0.3836
12222DOPC   GL215879  22.514   4.210  12.127 -0.0139 -0.1979  0.1740
12222DOPC   C1A15880  22.890   4.541  12.427 -0.2742 -0.3230 -0.4149
12222DOPC   D2A15881  22.923   4.715  12.917 -0.0896  0.1018  0.0157
12222DOPC   C3A15882  23.225   4.560  13.354  0.0065  0.1594  0.1374
12222DOPC   C4A15883  23.582   4.658  13.711  0.2958 -0.0951  0.0268
12222DOPC   C1B15884  22.371   3.816  12.338  0.3299 -0.0490 -0.0663
12222DOPC   D2B15885  22.153   3.658  12.731 -0.0355  0.1439  0.0522
12222DOPC   C3B15886  21.883   3.556  13.087 -0.0418 -0.0546 -0.0723
12222DOPC   C4B15887  21.466   3.401  13.343 -0.1008  0.1461  0.1494
12223DOPC   NC315888   3.072   2.676  11.013  0.1894 -0.0873 -0.1171
12223DOPC   PO415889   3.131   2.280  11.060  0.0046 -0.1687  0.2320
12223DOPC   GL115890   3.002   2.370  11.412 -0.0767  0.0886  0.1537
12223DOPC   GL215891   3.053   2.697  11.457  0.0556  0.1420  0.2897
12223DOPC   C1A15892   3.181   2.344  11.854  0.0623 -0.1127  0.2140
12223DOPC   D2A15893   3.170   2.661  12.212 -0.0350 -0.1874  0.3426
12223DOPC   C3A15894   3.309   3.072  12.268  0.1328 -0.0473  0.0891
12223DOPC   C4A15895   3.533   3.515  12.254 -0.0987 -0.2461 -0.2456
12223DOPC   C1B15896   2.761   2.713  11.798  0.1047 -0.1083  0.0738
12223DOPC   D2B15897   2.650   2.737  12.230 -0.2180 -0.1165 -0.1525
12223DOPC   C3B15898   2.801   2.837  12.698 -0.0605  0.0988 -0.2629
12223DOPC   C4B15899   2.612   3.037  13.107 -0.0218  0.1802  0.1221
12224DOPC   NC315900   3.349   6.927  10.703  0.0112 -0.0325 -0.0964
12224DOPC   PO415901   3.190   6.672  10.950 -0.2122 -0.0260  0.0422
12224DOPC   GL115902   3.205   6.679  11.365  0.3319 -0.2854  0.2896
12224DOPC   GL215903   3.398   6.472  11.403 -0.0512 -0.2972 -0.3131
12224DOPC   C1A15904   3.201   6.932  11.721 -0.0113  0.0786 -0.0258
12224DOPC   D2A15905   3.180   6.664  12.149 -0.0446 -0.0449 -0.3276
12224DOPC   C3A15906   3.388   6.624  12.616  0.1862 -0.0876 -0.2523
12224DOPC   C4A15907   3.619   6.593  13.064  0.0853 -0.0274 -0.2816
12224DOPC   C1B15908   3.451   6.328  11.844 -0.1888 -0.0416 -0.0698
12224DOPC   D2B15909   3.703   6.357  12.295  0.0121 -0.0221  0.0554
12224DOPC   C3B15910   3.981   6.404  12.670  0.0284 -0.0926 -0.0030
12224DOPC   C4B15911   4.318   6.386  13.066 -0.1472 -0.0798 -0.0562
12225DOPC   NC315912  23.069   5.056  11.274  0.0807 -0.0243  0.1372
12225DOPC   PO415913  22.937   5.362  11.500  0.0914 -0.2622 -0.1686
12225DOPC   GL115914  23.093   5.421  11.891 -0.7856 -0.0084 -0.4346
12225DOPC   GL215915  22.853   5.473  12.033  0.0648 -0.2196 -0.3878
12225DOPC   C1A15916  23.359   5.276  12.165  0.1554 -0.0816 -0.1987
12225DOPC   D2A15917  23.866   5.039  12.361 -0.1060 -0.2394 -0.1126
12225DOPC   C3A15918  23.901   5.234  12.785 -0.0727  0.0312 -0.1820
12225DOPC   C4A15919  23.929   5.565  13.131  0.3546 -0.0891  0.0759
12225DOPC   C1B15920  22.655   5.595  12.404 -0.0899  0.0421  0.0850
12225DOPC   D2B15921  22.408   5.831  12.727 -0.0976 -0.0336 -0.0415
12225DOPC   C3B15922  22.260   6.064  13.060  0.1107 -0.1229  0.1390
12225DOPC   C4B15923  22.081   6.384  13.428  0.1492 -0.2721 -0.0001
12226DOPC   NC315924  28.256   2.783  11.220 -0.2349 -0.1362 -0.0934
12226DOPC   PO415925  28.059   2.458  11.133  0.1984 -0.2186  0.0736
12226DOPC   GL115926  28.027   2.434  11.493  0.2897 -0.1474  0.1439
12226DOPC   GL215927  28.373   2.365  11.465  0.0561 -0.4598 -0.1829
12226DOPC   C1A15928  27.818   2.281  11.840 -0.1825  0.0498  0.0202
12226DOPC   D2A15929  27.965   2.236  12.280 -0.1625 -0.1729  0.1942
12226DOPC   C3A15930  28.154   2.341  12.653 -0.1000  0.0669  0.0768
12226DOPC   C4A15931  28.227   2.537  13.088  0.0067  0.3411 -0.2544
12226DOPC   C1B15932  28.584   2.354  11.859  0.2385 -0.1648 -0.2699
12226DOPC   D2B15933  28.580   2.238  12.365  0.0347 -0.1538 -0.1732
12226DOPC   C3B15934  28.633   2.220  12.880  0.2896 -0.0694 -0.3269
12226DOPC   C4B15935  28.634   1.904  13.286 -0.0622  0.0084 -0.0136
12227DOPC   NC315936  31.133   1.100  11.421 -0.1134  0.0755 -0.0286
12227DOPC   PO415937  30.722   1.070  11.437 -0.0677 -0.1101  0.0000
12227DOPC   GL115938  30.660   1.266  11.813 -0.1195  0.1153  0.0173
12227DOPC   GL215939  30.957   1.214  11.897 -0.1339  0.1007  0.1811
12227DOPC   C1A15940  30.486   1.160  12.206  0.1190 -0.0489 -0.0433
12227DOPC   D2A15941  30.278   1.122  12.657  0.2768 -0.0865 -0.1519
12227DOPC   C3A15942  30.369   1.328  13.101 -0.0563  0.0193  0.0757
12227DOPC   C4A15943  30.768   1.532  13.314  0.1135 -0.2937  0.3362
12227DOPC   C1B15944  30.938   1.304  12.341  0.0728  0.2231  0.1062
12227DOPC   D2B15945  30.837   1.166  12.793 -0.2601 -0.0928 -0.2345
12227DOPC   C3B15946  30.553   1.546  12.641 -0.1320  0.2510  0.0956
12227DOPC   C4B15947  30.339   1.918  12.507 -0.0938 -0.1083 -0.1604
12228DOPC   NC315948   8.446   0.842  11.218 -0.1079 -0.1844  0.1952
12228DOPC   PO415949   8.824   0.926  11.199 -0.2981  0.1420 -0.0393
12228DOPC   GL115950   8.824   0.874  11.675  0.2475 -0.1741 -0.1383
12228DOPC   GL215951   8.597   0.994  11.685  0.2320 -0.1716  0.0031
12228DOPC   C1A15952   9.028   0.753  12.040  0.0266 -0.0051  0.0929
12228DOPC   D2A15953   9.205   0.545  12.405 -0.1526 -0.0974  0.1462
12228DOPC   C3A15954   9.253   0.604  12.840 -0.1842  0.0876 -0.3196
12228DOPC   C4A15955   9.445   0.576  13.261  0.2868 -0.3138 -0.2177
12228DOPC   C1B15956   8.715   1.328  11.924 -0.2575 -0.1665  0.3099
12228DOPC   D2B15957   8.637   1.862  11.863 -0.1844 -0.2148  0.0284
12228DOPC   C3B15958   8.358   1.827  12.250 -0.2510 -0.1581 -0.0482
12228DOPC   C4B15959   8.251   2.017  12.676 -0.1995  0.1280  0.0450
12229DOPC   NC315960  27.273   1.194  11.068 -0.2655 -0.3556 -0.0784
12229DOPC   PO415961  27.143   0.861  11.315  0.1565 -0.0295  0.1273
12229DOPC   GL115962  26.980   0.953  11.661  0.4060 -0.1835  0.2339
12229DOPC   GL215963  26.823   0.797  11.727 -0.0096 -0.4131 -0.3496
12229DOPC   C1A15964  27.112   1.106  12.052 -0.2878  0.0133 -0.2362
12229DOPC   D2A15965  26.948   1.050  12.543  0.1889 -0.2256 -0.2587
12229DOPC   C3A15966  26.891   1.152  12.963  0.1127 -0.2284  0.0875
12229DOPC   C4A15967  26.631   1.173  13.430 -0.1000  0.1690 -0.0246
12229DOPC   C1B15968  27.049   0.567  12.015  0.0577  0.0642 -0.3630
12229DOPC   D2B15969  27.054   0.208  12.391 -0.1426 -0.2349  0.2152
12229DOPC   C3B15970  27.112   0.330  12.830 -0.0673 -0.1194 -0.0724
12229DOPC   C4B15971  27.300   0.391  13.352 -0.0968  0.0754 -0.0305
12230DOPC   NC315972  19.586   0.872  11.420  0.1035  0.1484 -0.1418
12230DOPC   PO415973  19.231   0.988  11.292 -0.0915  0.1857  0.0236
12230DOPC   GL115974  19.063   1.378  11.502 -0.4301 -0.1404 -0.1073
12230DOPC   GL215975  19.311   1.519  11.461 -0.0161  0.0187  0.0277
12230DOPC   C1A15976  18.781   1.416  11.823  0.2154 -0.3167  0.0297
12230DOPC   D2A15977  18.360   1.349  12.113 -0.2153 -0.0974 -0.2619
12230DOPC   C3A15978  18.329   1.382  12.511 -0.2173 -0.1398  0.0453
12230DOPC   C4A15979  18.414   1.547  12.946  0.1602  0.0263  0.0877
12230DOPC   C1B15980  19.425   1.833  11.647  0.1288  0.4706  0.2779
12230DOPC   D2B15981  19.442   2.291  11.832  0.0277  0.1153  0.0805
12230DOPC   C3B15982  19.289   2.558  12.198  0.1867  0.1624 -0.2138
12230DOPC   C4B15983  19.493   2.943  12.482 -0.0252 -0.0831 -0.2860
12231DOPC   NC315984  18.948   2.346  10.930 -0.3698 -0.0914 -0.3397
12231DOPC   PO415985  19.081   1.951  10.953 -0.0240  0.3230 -0.0434
12231DOPC   GL115986  19.010   1.940  11.328 -0.1732  0.0544 -0.0331
12231DOPC   GL215987  18.887   2.161  11.345 -0.1930  0.3519  0.2555
12231DOPC   C1A15988  18.917   1.851  11.734 -0.3558 -0.0874  0.3094
12231DOPC   D2A15989  18.632   1.772  12.155 -0.2339  0.2495  0.1499
12231DOPC   C3A15990  18.294   1.914  12.478 -0.1762 -0.1131  0.2808
12231DOPC   C4A15991  18.122   1.981  12.891  0.0194  0.0361  0.0697
12231DOPC   C1B15992  18.482   2.232  11.390  0.1708  0.1130 -0.2649
12231DOPC   D2B15993  18.104   2.349  11.728 -0.1382 -0.0980 -0.1472
12231DOPC   C3B15994  17.852   2.721  11.978 -0.1075  0.2275  0.0228
12231DOPC   C4B15995  17.703   3.179  12.194 -0.0480  0.0878  0.0502
12232DOPC   NC315996  20.889   1.023  11.270  0.4139  0.1341 -0.0582
12232DOPC   PO415997  20.954   1.419  11.371  0.1883 -0.0045  0.2732
12232DOPC   GL115998  20.911   1.596  11.803 -0.1976  0.1509  0.2392
12232DOPC   GL215999  20.642   1.719  11.679 -0.5210 -0.1120  0.1260
12232DOPC   C1A16000  21.223   1.540  12.128  0.2616  0.0224 -0.0109
12232DOPC   D2A16001  21.530   1.324  12.371 -0.3503  0.3890  0.0317
12232DOPC   C3A16002  21.600   1.416  12.838  0.0238  0.2175  0.0219
12232DOPC   C4A16003  21.788   1.590  13.251  0.2360 -0.2089 -0.0522
12232DOPC   C1B16004  20.289   1.903  11.917 -0.1966  0.0224 -0.0391
12232DOPC   D2B16005  19.979   2.296  12.072  0.0252  0.1722  0.0502
12232DOPC   C3B16006  19.779   2.555  12.348  0.1568 -0.0648 -0.0606
12232DOPC   C4B16007  19.865   2.748  12.807  0.0350 -0.0784 -0.1121
12233DOPC   NC316008  18.671   4.153  10.886 -0.1204  0.1580  0.0761
12233DOPC   PO416009  18.637   3.771  10.990 -0.1928  0.3077  0.2805
12233DOPC   GL116010  18.764   4.003  11.355 -0.4147  0.1721  0.0685
12233DOPC   GL216011  18.933   3.734  11.511  0.0570 -0.0567  0.0180
12233DOPC   C1A16012  18.775   4.223  11.722 -0.0064 -0.1644 -0.2617
12233DOPC   D2A16013  18.784   4.530  12.160 -0.0562  0.1746  0.0398
12233DOPC   C3A16014  19.093   4.351  12.521 -0.2550 -0.0921 -0.0745
12233DOPC   C4A16015  18.902   4.100  12.920 -0.1421 -0.4688 -0.1542
12233DOPC   C1B16016  18.648   3.772  11.927 -0.2903  0.0929  0.1490
12233DOPC   D2B16017  18.303   3.963  12.193 -0.1608 -0.0368 -0.2823
12233DOPC   C3B16018  18.104   4.078  12.624  0.2420  0.2871 -0.1756
12233DOPC   C4B16019  18.382   4.044  13.025 -0.0179 -0.0743  0.1938
12234DOPC   NC316020  10.710   6.141  10.980 -0.0137 -0.1113  0.4512
12234DOPC   PO416021  10.798   5.763  11.126 -0.1278  0.1677  0.3332
12234DOPC   GL116022  10.944   5.758  11.430 -0.1263  0.3687 -0.0049
12234DOPC   GL216023  11.177   5.639  11.394  0.0086 -0.0134  0.1240
12234DOPC   C1A16024  11.007   5.890  11.895 -0.3363  0.1212  0.1796
12234DOPC   D2A16025  11.193   5.673  12.340  0.0979  0.1115  0.0354
12234DOPC   C3A16026  11.266   5.841  12.763  0.2482 -0.3570  0.2731
12234DOPC   C4A16027  11.529   5.849  13.239  0.1808  0.1328 -0.1842
12234DOPC   C1B16028  11.189   5.384  11.717  0.0827 -0.0249 -0.2019
12234DOPC   D2B16029  10.946   5.067  11.910 -0.0356 -0.0798  0.2280
12234DOPC   C3B16030  11.018   5.109  12.324  0.0237  0.1428  0.1166
12234DOPC   C4B16031  11.046   5.226  12.777 -0.1004  0.1767 -0.1276
12235DOPC   NC316032  18.723   1.051  11.041 -0.2399 -0.1102  0.5069
12235DOPC   PO416033  18.576   0.719  10.820 -0.1599 -0.0869 -0.0219
12235DOPC   GL116034  18.229   0.668  11.172 -0.0139  0.1208 -0.1450
12235DOPC   GL216035  18.378   0.561  11.336 -0.3372 -0.1368 -0.0361
12235DOPC   C1A16036  18.075   0.907  11.534  0.1812 -0.1284  0.0362
12235DOPC   D2A16037  17.992   0.909  11.982 -0.1889 -0.1091  0.1310
12235DOPC   C3A16038  18.196   0.775  12.354 -0.1590  0.2272 -0.1294
12235DOPC   C4A16039  18.468   0.976  12.716  0.3651 -0.3513  0.3736
12235DOPC   C1B16040  18.247   0.462  11.773 -0.1342  0.0448 -0.2019
12235DOPC   D2B16041  17.971   0.384  12.149 -0.2312 -0.0049  0.0141
12235DOPC   C3B16042  18.171   0.022  12.254  0.0717  0.0412  0.0692
12235DOPC   C4B16043  18.207  -0.352  12.573  0.1499 -0.0355  0.0232
12236DOPC   NC316044  13.826   4.401  10.902 -0.1866 -0.1023  0.1282
12236DOPC   PO416045  13.625   4.169  11.148  0.5108  0.0894  0.2524
12236DOPC   GL116046  13.666   4.019  11.494  0.1505  0.0163 -0.1629
12236DOPC   GL216047  13.782   3.821  11.398  0.2064  0.1843  0.1240
12236DOPC   C1A16048  13.798   4.004  11.886 -0.0908  0.0291  0.1700
12236DOPC   D2A16049  13.815   3.727  12.231 -0.1384 -0.0746  0.0912
12236DOPC   C3A16050  13.999   3.301  12.295  0.1745  0.4008  0.1157
12236DOPC   C4A16051  13.942   2.871  12.425  0.0888  0.3948 -0.2313
12236DOPC   C1B16052  13.788   3.507  11.665  0.3933 -0.0224 -0.0229
12236DOPC   D2B16053  13.528   3.127  11.908 -0.0830  0.0166 -0.1364
12236DOPC   C3B16054  13.494   3.077  12.375  0.5262  0.2697 -0.0209
12236DOPC   C4B16055  13.762   3.185  12.797 -0.1409  0.0835  0.2195
12237DOPC   NC316056  13.755   6.565  10.770  0.2340  0.2028  0.2702
12237DOPC   PO416057  14.003   6.249  10.676 -0.0191  0.0982 -0.0412
12237DOPC   GL116058  14.198   6.357  11.001 -0.0737  0.1665  0.1604
12237DOPC   GL216059  14.111   6.196  11.188 -0.1278  0.2043  0.0197
12237DOPC   C1A16060  14.405   6.450  11.451  0.4071 -0.0172 -0.1211
12237DOPC   D2A16061  14.695   6.675  11.754 -0.4750 -0.1609  0.1049
12237DOPC   C3A16062  14.717   6.784  12.170 -0.1415 -0.1617 -0.1230
12237DOPC   C4A16063  14.546   6.521  12.491  0.2818  0.1768  0.2022
12237DOPC   C1B16064  14.081   6.123  11.625  0.0434 -0.0406  0.0217
12237DOPC   D2B16065  13.935   6.092  12.088  0.1550 -0.0439 -0.1344
12237DOPC   C3B16066  14.115   5.889  12.427  0.0191  0.4799 -0.2832
12237DOPC   C4B16067  14.414   6.107  12.720  0.1024 -0.0687 -0.0333
12238DOPC   NC316068   5.088   7.762  11.209  0.2911 -0.0595  0.0850
12238DOPC   PO416069   5.507   7.752  11.124  0.2405  0.1208 -0.1080
12238DOPC   GL116070   5.615   7.615  11.435 -0.1304 -0.0286 -0.2139
12238DOPC   GL216071   5.380   7.644  11.617  0.0010 -0.1033 -0.0345
12238DOPC   C1A16072   5.985   7.670  11.544  0.1890 -0.0487  0.0436
12238DOPC   D2A16073   6.203   7.619  12.009 -0.0932 -0.1451  0.0341
12238DOPC   C3A16074   6.187   7.419  12.374 -0.1149  0.1733 -0.2481
12238DOPC   C4A16075   6.198   7.068  12.748  0.2689 -0.0175  0.3258
12238DOPC   C1B16076   5.353   7.549  11.954  0.2127  0.0948  0.3240
12238DOPC   D2B16077   5.272   7.323  12.371  0.1744 -0.0215  0.2187
12238DOPC   C3B16078   5.311   7.152  12.853  0.1317  0.0354 -0.2103
12238DOPC   C4B16079   5.407   6.863  13.264 -0.2299  0.1471  0.0939
12239DOPC   NC316080  26.726   7.262  11.391 -0.0328 -0.3093 -0.1053
12239DOPC   PO416081  26.473   7.579  11.321 -0.3291  0.0429 -0.0113
12239DOPC   GL116082  26.679   7.707  11.675  0.0064 -0.0309  0.0507
12239DOPC   GL216083  26.517   7.425  11.778  0.0290  0.2798  0.1843
12239DOPC   C1A16084  26.601   7.852  12.099  0.0735  0.1596 -0.0467
12239DOPC   D2A16085  26.466   8.003  12.571 -0.0587  0.0225 -0.3368
12239DOPC   C3A16086  26.599   7.994  12.966  0.5003  0.1323 -0.0063
12239DOPC   C4A16087  26.445   8.039  13.428  0.0515  0.1329 -0.1170
12239DOPC   C1B16088  26.421   7.415  12.195  0.2456 -0.3759 -0.2682
12239DOPC   D2B16089  26.384   7.569  12.705  0.0327  0.0148 -0.0776
12239DOPC   C3B16090  26.220   7.652  13.118 -0.1376  0.4599  0.2803
12239DOPC   C4B16091  26.068   7.808  13.546  0.2543 -0.0335 -0.2021
12240DOPC   NC316092  31.039   7.362  11.339 -0.0872  0.1048  0.1389
12240DOPC   PO416093  31.347   7.111  11.222 -0.0672  0.1710  0.1657
12240DOPC   GL116094  31.356   6.830  11.505  0.0796 -0.0296 -0.0211
12240DOPC   GL216095  31.592   6.650  11.486  0.3915  0.2040  0.0664
12240DOPC   C1A16096  31.042   6.683  11.885 -0.2326  0.0158  0.0087
12240DOPC   D2A16097  30.956   6.516  12.286 -0.2590  0.0697 -0.3883
12240DOPC   C3A16098  30.670   6.348  12.690 -0.4487  0.2763  0.1983
12240DOPC   C4A16099  30.445   6.076  13.032  0.3321  0.0110  0.1285
12240DOPC   C1B16100  31.824   6.783  11.936  0.1184  0.0144 -0.0984
12240DOPC   D2B16101  32.085   6.633  12.307  0.1228 -0.1015 -0.1305
12240DOPC   C3B16102  32.027   6.773  12.756  0.0300 -0.0320  0.3737
12240DOPC   C4B16103  32.097   6.659  13.276  0.1984 -0.3719  0.0880
12241DOPC   NC316104  26.240   0.182  11.206  0.0275  0.1883 -0.0011
12241DOPC   PO416105  26.404   0.422  11.430 -0.1687  0.2014 -0.2901
12241DOPC   GL116106  26.554   0.454  11.858 -0.1266  0.1251  0.0242
12241DOPC   GL216107  26.880   0.404  11.659 -0.0303 -0.0027 -0.0604
12241DOPC   C1A16108  26.639   0.613  12.288  0.0783  0.5446 -0.0847
12241DOPC   D2A16109  26.706   0.682  12.782  0.2088 -0.0165  0.4742
12241DOPC   C3A16110  26.783   0.536  13.248  0.1841 -0.5804 -0.1242
12241DOPC   C4A16111  26.845   0.351  13.698 -0.0055  0.0409  0.3151
12241DOPC   C1B16112  27.059   0.112  11.888 -0.2948  0.0048  0.0245
12241DOPC   D2B16113  27.354  -0.182  12.142 -0.0771  0.2277 -0.0502
12241DOPC   C3B16114  27.463  -0.138  12.584 -0.1190 -0.3392  0.0900
12241DOPC   C4B16115  27.394  -0.113  13.069  0.2069 -0.1798 -0.0682
12242DOPC   NC316116  20.858   6.639  10.842  0.0639 -0.1591  0.2085
12242DOPC   PO416117  20.647   6.553  11.189 -0.0566  0.1320 -0.2920
12242DOPC   GL116118  20.534   6.900  11.479 -0.1465  0.2258 -0.1920
12242DOPC   GL216119  20.791   6.723  11.581 -0.0141  0.1432  0.0777
12242DOPC   C1A16120  20.352   6.964  11.839  0.3093  0.1196 -0.0213
12242DOPC   D2A16121  20.271   6.927  12.298 -0.0877  0.0379 -0.0020
12242DOPC   C3A16122  20.192   6.606  12.673 -0.0288  0.2976 -0.2000
12242DOPC   C4A16123  20.230   6.174  12.920  0.3056  0.1254  0.0383
12242DOPC   C1B16124  20.867   6.682  12.027  0.1767 -0.2762  0.0107
12242DOPC   D2B16125  20.740   6.744  12.578  0.0824 -0.1146  0.0079
12242DOPC   C3B16126  20.870   6.931  12.967 -0.0370 -0.0311  0.1016
12242DOPC   C4B16127  21.055   6.888  13.448  0.1351  0.0106 -0.2104
12243DOPC   NC316128   7.125   4.804  11.831 -0.1813 -0.1784  0.2834
12243DOPC   PO416129   7.485   4.763  11.704  0.0237  0.2464  0.0930
12243DOPC   GL116130   7.602   4.737  12.118  0.2485  0.2379  0.0683
12243DOPC   GL216131   7.797   4.990  12.000  0.1780  0.3632 -0.2979
12243DOPC   C1A16132   7.373   4.738  12.469  0.2010 -0.0178  0.2262
12243DOPC   D2A16133   7.044   4.672  12.809  0.2151 -0.0506  0.0674
12243DOPC   C3A16134   6.859   4.485  13.208  0.3094  0.0324  0.2341
12243DOPC   C4A16135   6.711   4.441  13.677  0.0965  0.2924  0.0444
12243DOPC   C1B16136   7.940   5.102  12.435 -0.2769  0.0839  0.2450
12243DOPC   D2B16137   8.231   5.346  12.741  0.0615  0.5635 -0.2074
12243DOPC   C3B16138   8.167   5.729  12.928  0.0023  0.0508 -0.5652
12243DOPC   C4B16139   8.154   6.056  13.373  0.0287  0.1295  0.0783
12244DOPC   NC316140  14.825   1.451  10.519  0.1495 -0.0942  0.1262
12244DOPC   PO416141  14.915   1.207  10.848 -0.1080  0.0422  0.0234
12244DOPC   GL116142  14.860   1.183  11.282 -0.0601  0.0707  0.0264
12244DOPC   GL216143  14.676   0.939  11.154 -0.1112 -0.1371  0.1955
12244DOPC   C1A16144  15.152   1.305  11.653 -0.1086  0.1038 -0.2433
12244DOPC   D2A16145  15.503   1.172  12.076 -0.2036  0.3109 -0.0447
12244DOPC   C3A16146  15.475   1.341  12.510  0.0829  0.1251 -0.1169
12244DOPC   C4A16147  15.277   1.690  12.763  0.0610 -0.0445  0.0583
12244DOPC   C1B16148  14.793   0.529  11.304  0.0618  0.1546 -0.1130
12244DOPC   D2B16149  15.000   0.173  11.621  0.1750 -0.0422 -0.0595
12244DOPC   C3B16150  14.926  -0.088  11.962  0.1254 -0.0940  0.0653
12244DOPC   C4B16151  15.076  -0.228  12.395  0.0608  0.2831  0.1452
12245DOPC   NC316152  19.338   0.427  11.348 -0.1538 -0.0252  0.3992
12245DOPC   PO416153  19.708   0.417  11.481 -0.2986 -0.2893 -0.0356
12245DOPC   GL116154  19.790   0.347  11.829 -0.1524 -0.0030 -0.1319
12245DOPC   GL216155  19.553   0.165  11.863 -0.0908 -0.7161  0.1499
12245DOPC   C1A16156  19.732   0.664  12.132 -0.0485 -0.0303  0.0043
12245DOPC   D2A16157  19.464   0.879  12.474  0.1662 -0.1471  0.1318
12245DOPC   C3A16158  19.316   1.188  12.784  0.2037  0.0421 -0.1264
12245DOPC   C4A16159  18.996   1.521  13.061 -0.4542 -0.1379  0.1565
12245DOPC   C1B16160  19.359   0.262  12.258 -0.0514  0.0244  0.1551
12245DOPC   D2B16161  19.239   0.418  12.672 -0.3860 -0.2313 -0.1052
12245DOPC   C3B16162  19.452   0.764  12.975  0.0944  0.0622 -0.2579
12245DOPC   C4B16163  19.656   0.945  13.312 -0.1296  0.1010 -0.2703
12246DOPC   NC316164  21.583   7.299  11.585 -0.0522 -0.0040  0.1343
12246DOPC   PO416165  21.323   6.995  11.635  0.2680 -0.0477 -0.3517
12246DOPC   GL116166  21.003   7.127  11.909 -0.2591  0.3131 -0.0349
12246DOPC   GL216167  21.169   7.000  12.156  0.0451  0.1562  0.2583
12246DOPC   C1A16168  20.697   7.212  12.214  0.0514  0.0603  0.0583
12246DOPC   D2A16169  20.559   7.260  12.652  0.2492  0.3966  0.0379
12246DOPC   C3A16170  20.261   6.989  12.981  0.3301  0.1050 -0.1065
12246DOPC   C4A16171  20.018   6.643  13.177 -0.2778  0.0266 -0.3323
12246DOPC   C1B16172  21.215   7.029  12.604  0.5163  0.1359 -0.0956
12246DOPC   D2B16173  21.483   7.131  13.001  0.0120  0.1585  0.0026
12246DOPC   C3B16174  21.559   7.530  13.330  0.0397 -0.0242  0.1304
12246DOPC   C4B16175  21.589   7.959  13.591 -0.0321  0.1081 -0.1906
12247DOPC   NC316176   4.645   1.765  11.465  0.2774  0.0121 -0.1071
12247DOPC   PO416177   4.246   1.796  11.337 -0.2962 -0.0786  0.0052
12247DOPC   GL116178   3.942   1.931  11.550 -0.0129  0.3028 -0.1155
12247DOPC   GL216179   4.055   1.744  11.752  0.1141  0.0575  0.3057
12247DOPC   C1A16180   3.685   2.050  11.896  0.2602 -0.2169  0.0114
12247DOPC   D2A16181   3.600   2.434  12.219 -0.2635 -0.0308  0.2881
12247DOPC   C3A16182   3.751   2.889  12.406 -0.0730  0.2183  0.2396
12247DOPC   C4A16183   3.655   3.239  12.684 -0.0360 -0.3591  0.0322
12247DOPC   C1B16184   4.076   1.889  12.192  0.1097  0.0624 -0.0261
12247DOPC   D2B16185   4.275   2.008  12.658 -0.4077  0.2103 -0.2178
12247DOPC   C3B16186   4.178   2.375  12.948 -0.0323 -0.0868  0.0259
12247DOPC   C4B16187   3.796   2.844  13.030  0.0198  0.2196 -0.2840
12248DOPC   NC316188  22.433   7.441  11.637 -0.2548 -0.2113  0.1503
12248DOPC   PO416189  22.039   7.461  11.581 -0.1013 -0.0784 -0.1283
12248DOPC   GL116190  21.884   7.422  11.971 -0.2207  0.0421  0.3214
12248DOPC   GL216191  21.941   7.122  11.959  0.1226  0.0810  0.3848
12248DOPC   C1A16192  21.812   7.595  12.327 -0.0790 -0.0864 -0.0709
12248DOPC   D2A16193  21.623   7.278  12.544  0.0971  0.0283  0.1587
12248DOPC   C3A16194  21.783   7.577  12.883 -0.1067 -0.1335 -0.2788
12248DOPC   C4A16195  21.883   7.973  13.165  0.1114 -0.0493 -0.1827
12248DOPC   C1B16196  21.994   6.948  12.332  0.1140 -0.0874 -0.0576
12248DOPC   D2B16197  21.903   6.958  12.772  0.3862 -0.0648  0.3367
12248DOPC   C3B16198  21.873   6.765  13.198 -0.0106 -0.2007 -0.0404
12248DOPC   C4B16199  21.727   6.657  13.668 -0.4925  0.0653  0.1946
12249DOPC   NC316200  22.026   2.802  11.650  0.0194  0.2428  0.2652
12249DOPC   PO416201  22.199   3.184  11.572  0.0604  0.0455  0.1336
12249DOPC   GL116202  22.002   3.402  11.832  0.0617  0.0342  0.2424
12249DOPC   GL216203  22.262   3.238  11.996 -0.0220 -0.3167  0.2352
12249DOPC   C1A16204  21.794   3.644  12.163  0.1726 -0.2376  0.1237
12249DOPC   D2A16205  21.672   3.678  12.647  0.1049 -0.0709  0.0559
12249DOPC   C3A16206  21.438   3.786  13.046 -0.1401  0.2886 -0.0932
12249DOPC   C4A16207  21.531   4.030  13.467 -0.1395  0.4531  0.2268
12249DOPC   C1B16208  22.582   3.342  12.338  0.0589 -0.0558  0.0757
12249DOPC   D2B16209  23.020   3.382  12.674 -0.0868  0.0939  0.1508
12249DOPC   C3B16210  22.954   3.449  13.103 -0.3421 -0.1277 -0.0365
12249DOPC   C4B16211  22.804   3.566  13.526 -0.1055 -0.1050  0.0528
12250DOPC   NC316212  20.662   4.759  11.560  0.3036  0.0075 -0.0847
12250DOPC   PO416213  20.648   5.084  11.363 -0.0809  0.2218 -0.0669
12250DOPC   GL116214  20.588   5.290  11.621 -0.1807  0.2237 -0.0921
12250DOPC   GL216215  20.773   5.470  11.664  0.3231  0.3781 -0.1854
12250DOPC   C1A16216  20.211   5.385  11.834  0.0819  0.0037  0.1116
12250DOPC   D2A16217  20.067   5.492  12.314 -0.2160 -0.0601  0.1076
12250DOPC   C3A16218  19.834   5.245  12.552 -0.1514  0.2646 -0.0224
12250DOPC   C4A16219  19.676   5.188  13.018  0.2878  0.2204 -0.0053
12250DOPC   C1B16220  20.984   5.451  12.014  0.5262  0.2804 -0.1003
12250DOPC   D2B16221  21.000   5.608  12.486  0.1805  0.1590 -0.0458
12250DOPC   C3B16222  21.152   5.597  12.919 -0.1909  0.0944  0.0275
12250DOPC   C4B16223  21.263   5.783  13.363 -0.1773 -0.1221  0.1246
12251DOPC   NC316224   2.520   0.086  10.776 -0.1948  0.0115 -0.0691
12251DOPC   PO416225   2.571   0.462  10.931  0.2494  0.1663 -0.0283
12251DOPC   GL116226   2.707   0.531  11.326 -0.3571  0.0103 -0.0976
12251DOPC   GL216227   2.986   0.505  11.380 -0.3711 -0.1837 -0.0923
12251DOPC   C1A16228   2.632   0.303  11.687 -0.1643 -0.0721 -0.4839
12251DOPC   D2A16229   2.429  -0.052  12.030  0.2152  0.1957 -0.0295
12251DOPC   C3A16230   2.451  -0.460  12.214  0.2831  0.0853  0.0019
12251DOPC   C4A16231   2.592  -0.676  12.642  0.2087 -0.2738 -0.4189
12251DOPC   C1B16232   3.267   0.727  11.715 -0.1249  0.0334  0.0858
12251DOPC   D2B16233   3.314   1.190  11.978  0.0365 -0.1487  0.1790
12251DOPC   C3B16234   3.560   1.155  12.319 -0.2859  0.0774 -0.1668
12251DOPC   C4B16235   3.902   0.904  12.493  0.0703 -0.0832  0.3993
12252DOPC   NC316236  13.193   5.750  10.734 -0.1250 -0.1914  0.3605
12252DOPC   PO416237  12.854   5.842  10.913  0.1906 -0.2064 -0.0101
12252DOPC   GL116238  12.697   5.916  11.328 -0.1943 -0.1233 -0.2264
12252DOPC   GL216239  12.798   6.204  11.273  0.0210  0.0195 -0.2380
12252DOPC   C1A16240  12.726   5.720  11.698  0.2946 -0.0414 -0.2982
12252DOPC   D2A16241  12.945   5.744  12.127 -0.1264 -0.0720  0.1906
12252DOPC   C3A16242  13.152   5.532  12.426 -0.0352  0.0160 -0.1344
12252DOPC   C4A16243  13.384   5.310  12.751  0.1559 -0.2222  0.1254
12252DOPC   C1B16244  12.584   6.441  11.504  0.3499  0.3507  0.0994
12252DOPC   D2B16245  12.412   6.712  11.882 -0.0459  0.1123  0.2466
12252DOPC   C3B16246  12.726   6.726  12.212 -0.0788 -0.1521  0.0228
12252DOPC   C4B16247  12.923   6.628  12.599  0.0323 -0.2256 -0.2224
12253DOPC   NC316248  27.523   5.890  10.501 -0.0223 -0.1989  0.1839
12253DOPC   PO416249  27.244   5.763  10.791  0.0256  0.1054  0.1493
12253DOPC   GL116250  27.370   5.855  11.206 -0.1078  0.1697 -0.1641
12253DOPC   GL216251  27.320   5.629  11.409  0.4911  0.0940  0.2690
12253DOPC   C1A16252  27.422   6.159  11.545 -0.0821 -0.1346  0.2662
12253DOPC   D2A16253  27.745   6.343  11.784  0.0463  0.1234  0.0049
12253DOPC   C3A16254  27.875   6.226  12.249 -0.4655 -0.0848 -0.0175
12253DOPC   C4A16255  27.690   6.186  12.812 -0.0185  0.0561 -0.3320
12253DOPC   C1B16256  27.042   5.769  11.705 -0.0447 -0.0122  0.1496
12253DOPC   D2B16257  26.780   5.695  12.148  0.1326 -0.1458  0.1070
12253DOPC   C3B16258  26.557   5.613  12.642 -0.1368 -0.0724  0.0667
12253DOPC   C4B16259  26.390   5.543  13.112 -0.1476 -0.0625  0.0799
12254DOPC   NC316260  11.788   1.008  11.216  0.0116 -0.2122  0.0435
12254DOPC   PO416261  12.156   0.821  11.262  0.1793  0.1472  0.4038
12254DOPC   GL116262  12.360   0.825  11.594 -0.2189 -0.3237  0.4981
12254DOPC   GL216263  12.177   0.625  11.747  0.3588 -0.0084  0.2255
12254DOPC   C1A16264  12.539   1.198  11.775 -0.1261 -0.0281 -0.1746
12254DOPC   D2A16265  12.803   1.482  12.138  0.0845 -0.3000  0.3950
12254DOPC   C3A16266  12.958   1.459  12.561  0.0413  0.0204 -0.0204
12254DOPC   C4A16267  13.212   1.425  13.002  0.0810 -0.0513  0.2027
12254DOPC   C1B16268  12.436   0.328  11.894  0.0613 -0.1530  0.0391
12254DOPC   D2B16269  12.681  -0.025  11.944 -0.2397 -0.2044 -0.0025
12254DOPC   C3B16270  12.712  -0.101  12.403 -0.0418 -0.2569 -0.3502
12254DOPC   C4B16271  12.583   0.079  12.887  0.1891  0.0342 -0.2734
12255DOPC   NC316272  19.902   4.707  10.828 -0.0935 -0.0038 -0.2062
12255DOPC   PO416273  20.055   4.365  11.009  0.0116  0.0001  0.2936
12255DOPC   GL116274  20.296   4.403  11.425  0.4170 -0.0103 -0.0170
12255DOPC   GL216275  20.032   4.517  11.498  0.0568 -0.2644  0.0228
12255DOPC   C1A16276  20.545   4.274  11.810  0.0596  0.1557 -0.2557
12255DOPC   D2A16277  20.923   4.196  12.124  0.2007 -0.2874 -0.5172
12255DOPC   C3A16278  20.798   4.248  12.577  0.0980  0.1467  0.2133
12255DOPC   C4A16279  20.692   4.243  13.043 -0.1803 -0.2650 -0.2591
12255DOPC   C1B16280  20.068   4.228  11.838 -0.2301 -0.0917  0.1436
12255DOPC   D2B16281  20.243   4.038  12.275  0.2727 -0.0267 -0.0373
12255DOPC   C3B16282  20.267   4.171  12.760 -0.3729  0.2625 -0.0671
12255DOPC   C4B16283  20.123   4.309  13.142 -0.0940 -0.4967 -0.0666
12256DOPC   NC316284   4.730   5.538  11.008  0.1572 -0.1385  0.0011
12256DOPC   PO416285   4.492   5.271  11.232  0.0843 -0.0829 -0.1816
12256DOPC   GL116286   4.339   5.423  11.655  0.0742 -0.0766  0.0416
12256DOPC   GL216287   4.406   5.144  11.694 -0.1562  0.0307  0.0992
12256DOPC   C1A16288   4.606   5.650  11.960 -0.0248  0.2818  0.0185
12256DOPC   D2A16289   4.837   5.500  12.361 -0.3505  0.1406  0.0201
12256DOPC   C3A16290   4.506   5.577  12.700  0.0026  0.2244 -0.2178
12256DOPC   C4A16291   4.159   5.774  12.954  0.1028 -0.0723  0.2393
12256DOPC   C1B16292   4.428   5.212  12.102 -0.1609 -0.2195  0.1345
12256DOPC   D2B16293   4.132   5.299  12.541  0.2461  0.1516 -0.0850
12256DOPC   C3B16294   3.743   5.453  12.739 -0.1570  0.0454  0.2690
12256DOPC   C4B16295   3.477   5.619  13.104 -0.1201  0.0326  0.1433
12257DOPC   NC316296  18.206   0.394  10.775  0.0214  0.0108  0.1638
12257DOPC   PO416297  18.100   0.192  11.092  0.1397 -0.0264  0.0661
12257DOPC   GL116298  17.975   0.253  11.508  0.1328 -0.0193 -0.1956
12257DOPC   GL216299  17.888   0.512  11.430 -0.3512 -0.2738 -0.0089
12257DOPC   C1A16300  17.667   0.100  11.821 -0.1503 -0.1041  0.1465
12257DOPC   D2A16301  17.516  -0.073  12.324  0.0143  0.1310  0.0695
12257DOPC   C3A16302  17.792  -0.180  12.714 -0.0700  0.2117  0.1837
12257DOPC   C4A16303  18.035  -0.259  13.097 -0.2886  0.2956  0.1320
12257DOPC   C1B16304  17.600   0.830  11.286 -0.0224  0.1108  0.0103
12257DOPC   D2B16305  17.222   1.166  11.291 -0.2821  0.1584 -0.2272
12257DOPC   C3B16306  16.862   1.235  11.546  0.0143 -0.1309 -0.2228
12257DOPC   C4B16307  16.535   1.109  11.908 -0.1503  0.0132  0.2791
12258DOPA   PO416308   0.465   1.110  11.289 -0.3670 -0.2729 -0.0784
12258DOPA   GL116309   0.256   1.037  11.755  0.0221  0.0124 -0.2206
12258DOPA   GL216310   0.502   0.856  11.784  0.8483  0.0317 -0.2425
12258DOPA   C1A16311   0.208   1.150  12.155  0.0907  0.1071 -0.0454
12258DOPA   D2A16312   0.122   1.212  12.636  0.1631 -0.0922 -0.0281
12258DOPA   C3A16313   0.480   1.199  12.924  0.0089 -0.2160 -0.0270
12258DOPA   C4A16314   0.813   1.291  13.287 -0.0625  0.0126 -0.1308
12258DOPA   C1B16315   0.626   0.820  12.169  0.1602 -0.0284 -0.4012
12258DOPA   D2B16316   0.373   0.758  12.596 -0.0389 -0.0129 -0.1142
12258DOPA   C3B16317   0.151   0.827  12.993  0.0235 -0.1026  0.0762
12258DOPA   C4B16318   0.141   0.781  13.443 -0.0784 -0.0963  0.2128
12259DOPA   PO416319   8.598   6.926  10.910 -0.0068 -0.0307 -0.1729
12259DOPA   GL116320   8.414   6.913  11.318  0.0340  0.1249 -0.0769
12259DOPA   GL216321   8.463   6.645  11.371  0.1216 -0.1456  0.2649
12259DOPA   C1A16322   8.347   7.165  11.640  0.1323  0.1192  0.1374
12259DOPA   D2A16323   8.105   7.231  12.092 -0.1146 -0.3989 -0.1635
12259DOPA   C3A16324   8.149   7.346  12.555 -0.0432 -0.0337  0.2654
12259DOPA   C4A16325   8.011   7.476  13.039 -0.1460 -0.0483  0.0423
12259DOPA   C1B16326   8.432   6.680  11.826 -0.0434 -0.0665  0.1663
12259DOPA   D2B16327   8.395   6.851  12.249  0.3545 -0.0939 -0.0920
12259DOPA   C3B16328   8.269   6.804  12.628 -0.0815 -0.0072  0.0201
12259DOPA   C4B16329   7.993   6.802  13.040 -0.0336  0.1401 -0.0196
12260DOPA   PO416330  10.701   3.286  11.246 -0.2120 -0.0855  0.0490
12260DOPA   GL116331  10.672   3.389  11.700  0.2628 -0.1101  0.0341
12260DOPA   GL216332  10.392   3.476  11.695 -0.0804 -0.2079  0.1169
12260DOPA   C1A16333  10.956   3.331  11.965  0.3530 -0.0113 -0.0363
12260DOPA   D2A16334  11.051   3.197  12.420  0.1177 -0.2419  0.0479
12260DOPA   C3A16335  11.103   3.028  12.876  0.0980 -0.0487 -0.2121
12260DOPA   C4A16336  10.974   3.050  13.413  0.0339 -0.0799 -0.3012
12260DOPA   C1B16337   9.974   3.435  11.996  0.0287  0.2487 -0.1726
12260DOPA   D2B16338   9.626   3.631  12.257 -0.0322  0.2223  0.1055
12260DOPA   C3B16339   9.439   4.067  12.399  0.0560 -0.2873  0.0869
12260DOPA   C4B16340   9.292   4.526  12.395 -0.0155 -0.2114  0.1382
12261DOPA   PO416341  10.678   5.171  10.879  0.0875 -0.2039  0.2200
12261DOPA   GL116342  10.787   5.270  11.306 -0.2684 -0.0460  0.2154
12261DOPA   GL216343  11.021   5.134  11.335  0.0261 -0.0290  0.0511
12261DOPA   C1A16344  10.596   5.325  11.666 -0.2775 -0.1975  0.2621
12261DOPA   D2A16345  10.577   5.287  12.169  0.0983 -0.3238  0.1879
12261DOPA   C3A16346  10.579   5.045  12.543  0.0137  0.0090 -0.0208
12261DOPA   C4A16347  10.603   4.966  13.016 -0.0394  0.1115 -0.2597
12261DOPA   C1B16348  10.850   4.713  11.389 -0.1230  0.0490  0.2165
12261DOPA   D2B16349  10.577   4.675  11.842  0.0812 -0.1361  0.2228
12261DOPA   C3B16350  10.741   4.653  12.271  0.1963  0.0856 -0.3884
12261DOPA   C4B16351  11.009   4.723  12.671  0.1243 -0.1040  0.1636
12262DOPA   PO416352   4.575   6.001  11.031  0.0245  0.0538 -0.0864
12262DOPA   GL116353   4.282   6.092  11.320 -0.1414 -0.0456  0.0823
12262DOPA   GL216354   4.443   6.228  11.471  0.1976 -0.0870  0.0450
12262DOPA   C1A16355   4.200   5.831  11.663 -0.2013 -0.1020 -0.1583
12262DOPA   D2A16356   3.987   5.506  11.970 -0.2348  0.2777  0.1142
12262DOPA   C3A16357   3.627   5.483  12.252 -0.2635 -0.2213  0.1299
12262DOPA   C4A16358   3.206   5.561  12.524  0.0697 -0.0246 -0.0672
12262DOPA   C1B16359   4.668   6.165  11.837  0.0438 -0.3978  0.3409
12262DOPA   D2B16360   4.889   6.024  12.240 -0.0932  0.2503 -0.1639
12262DOPA   C3B16361   4.945   5.891  12.666 -0.2669 -0.0019  0.0587
12262DOPA   C4B16362   5.163   5.476  12.891 -0.0513 -0.0846  0.0030
12263DOPA   PO416363   5.455   5.232  11.114 -0.2509  0.2562  0.2046
12263DOPA   GL116364   5.288   5.455  11.453  0.3472  0.1661  0.0907
12263DOPA   GL216365   5.045   5.479  11.367  0.2898 -0.0371  0.1205
12263DOPA   C1A16366   5.461   5.338  11.825 -0.0199 -0.2703  0.2240
12263DOPA   D2A16367   5.381   5.279  12.316 -0.0883  0.2111 -0.0923
12263DOPA   C3A16368   5.662   5.354  12.715 -0.0697  0.0663 -0.0961
12263DOPA   C4A16369   5.931   5.497  13.066  0.0247 -0.0718 -0.1683
12263DOPA   C1B16370   4.918   5.352  11.732 -0.1392  0.3200 -0.2225
12263DOPA   D2B16371   4.991   4.926  11.998 -0.2690 -0.2467 -0.2094
12263DOPA   C3B16372   5.392   4.742  12.013 -0.1359 -0.1517 -0.0327
12263DOPA   C4B16373   5.890   4.571  11.997  0.0062 -0.0697  0.0166
12264DOPA   PO416374  21.854   6.063  11.385  0.1147 -0.1505  0.0493
12264DOPA   GL116375  21.699   5.897  11.709  0.2003  0.1315  0.5017
12264DOPA   GL216376  21.581   6.149  11.762 -0.0983 -0.0136 -0.4359
12264DOPA   C1A16377  21.785   5.811  12.131  0.0767  0.0854 -0.1768
12264DOPA   D2A16378  21.361   5.956  12.489  0.1684 -0.0518  0.1367
12264DOPA   C3A16379  21.280   6.075  12.917 -0.1046 -0.0737 -0.0525
12264DOPA   C4A16380  21.072   6.227  13.322  0.1063 -0.0637  0.0900
12264DOPA   C1B16381  21.595   6.275  12.175  0.1378  0.1253 -0.0013
12264DOPA   D2B16382  21.160   6.431  12.355  0.2768  0.0844  0.0930
12264DOPA   C3B16383  21.110   6.529  12.805  0.2153 -0.0524 -0.1635
12264DOPA   C4B16384  21.389   6.610  13.166 -0.1402  0.2754  0.1880
12265DOPA   PO416385  19.140   0.121  11.664 -0.1644  0.2520  0.0459
12265DOPA   GL116386  19.095  -0.302  11.817 -0.2071  0.0693 -0.2983
12265DOPA   GL216387  18.824  -0.203  11.821  0.1312 -0.1947  0.3479
12265DOPA   C1A16388  19.155  -0.317  12.286 -0.1252 -0.1166 -0.0255
12265DOPA   D2A16389  19.551  -0.566  12.545 -0.3723  0.0269 -0.0356
12265DOPA   C3A16390  19.766  -0.849  12.887 -0.0129 -0.0003 -0.4423
12265DOPA   C4A16391  19.879  -0.687  13.342  0.0825 -0.1098 -0.1812
12265DOPA   C1B16392  18.650   0.151  12.034  0.1966  0.0998  0.1496
12265DOPA   D2B16393  18.511   0.388  12.406  0.2608  0.0390  0.1524
12265DOPA   C3B16394  18.798   0.128  12.602 -0.1982 -0.0017  0.3324
12265DOPA   C4B16395  19.030   0.113  13.047 -0.0011 -0.2243 -0.0218
12266DOPA   PO416396   2.129   5.699  11.131 -0.0153  0.0067  0.2507
12266DOPA   GL116397   2.113   5.528  11.523  0.0422  0.0778  0.0002
12266DOPA   GL216398   2.421   5.597  11.568  0.1388 -0.1796  0.1671
12266DOPA   C1A16399   1.948   5.757  11.771  0.0533 -0.4625  0.2613
12266DOPA   D2A16400   1.860   5.760  12.283 -0.0367 -0.0009  0.0202
12266DOPA   C3A16401   1.939   5.999  12.675 -0.3793 -0.2061 -0.2209
12266DOPA   C4A16402   2.279   6.278  12.886  0.1206  0.0801  0.0111
12266DOPA   C1B16403   2.661   5.365  11.826 -0.2594  0.0714  0.0594
12266DOPA   D2B16404   2.929   4.962  12.019 -0.2609  0.2357 -0.3972
12266DOPA   C3B16405   2.983   5.006  12.498 -0.0117 -0.1277  0.2445
12266DOPA   C4B16406   2.798   4.739  12.876  0.1617 -0.0695  0.1331
12267DOPA   PO416407  23.067   1.728  11.477 -0.1980 -0.0275 -0.0701
12267DOPA   GL116408  22.926   1.867  11.821 -0.0945 -0.3107 -0.0765
12267DOPA   GL216409  22.698   1.705  11.820  0.0876  0.3105 -0.0057
12267DOPA   C1A16410  23.192   1.662  12.117 -0.0386  0.2871 -0.3449
12267DOPA   D2A16411  23.620   1.515  12.235  0.0164 -0.0500  0.0036
12267DOPA   C3A16412  23.909   1.404  12.567  0.1503 -0.1213 -0.0681
12267DOPA   C4A16413  24.045   1.241  13.060 -0.0709  0.1709 -0.0869
12267DOPA   C1B16414  22.542   1.817  12.250  0.1170 -0.2183 -0.1030
12267DOPA   D2B16415  22.371   1.971  12.691 -0.2573  0.1648  0.2755
12267DOPA   C3B16416  22.174   1.954  13.127  0.1901 -0.1773  0.1684
12267DOPA   C4B16417  22.008   2.129  13.524  0.1609 -0.3036  0.0643
12268DOPA   PO416418   1.295   2.335  11.126 -0.2028  0.1055  0.0674
12268DOPA   GL116419   1.171   2.112  11.452  0.2413  0.1078 -0.1675
12268DOPA   GL216420   1.404   2.001  11.601 -0.3593  0.0402  0.2323
12268DOPA   C1A16421   0.880   1.939  11.774 -0.0772 -0.1393 -0.3395
12268DOPA   D2A16422   0.454   1.804  11.994 -0.3022  0.2276  0.0741
12268DOPA   C3A16423   0.186   1.677  12.392  0.3490 -0.2061 -0.3082
12268DOPA   C4A16424   0.220   1.633  12.859 -0.1429  0.0682 -0.0250
12268DOPA   C1B16425   1.408   2.002  12.055  0.1359 -0.0720 -0.0573
12268DOPA   D2B16426   1.307   1.932  12.564 -0.0956 -0.0112  0.0312
12268DOPA   C3B16427   1.229   2.167  12.896 -0.1571 -0.1312  0.0289
12268DOPA   C4B16428   1.116   2.273  13.325 -0.0668 -0.4081  0.1104
12269DOPA   PO416429  17.072   0.132  10.881 -0.1117  0.0007 -0.0524
12269DOPA   GL116430  17.175   0.047  11.257 -0.0437 -0.0756 -0.1645
12269DOPA   GL216431  17.138  -0.266  11.243 -0.1909 -0.0141  0.2032
12269DOPA   C1A16432  17.146   0.281  11.671  0.4092  0.1677 -0.0490
12269DOPA   D2A16433  17.206   0.373  12.108 -0.1591 -0.3562 -0.3478
12269DOPA   C3A16434  17.350   0.399  12.585  0.0253  0.0092  0.0920
12269DOPA   C4A16435  17.845   0.350  12.617  0.0224 -0.1955  0.0277
12269DOPA   C1B16436  16.877  -0.474  11.621  0.1682  0.0139  0.0413
12269DOPA   D2B16437  16.720  -0.549  12.087  0.1979  0.1037  0.1551
12269DOPA   C3B16438  16.575  -0.241  12.401 -0.0099  0.0705 -0.2023
12269DOPA   C4B16439  16.501   0.059  12.793  0.1931 -0.1200 -0.0399
12270DOPA   PO416440  30.237   3.642  11.329 -0.0010 -0.0853  0.1167
12270DOPA   GL116441  30.413   3.673  11.673  0.2037 -0.0226 -0.2442
12270DOPA   GL216442  30.131   3.753  11.802  0.3347  0.3835 -0.0401
12270DOPA   C1A16443  30.616   3.482  11.990  0.1184 -0.1420 -0.0392
12270DOPA   D2A16444  30.697   3.167  12.354  0.1716  0.0837  0.0614
12270DOPA   C3A16445  30.691   3.284  12.765 -0.0893  0.1633 -0.0356
12270DOPA   C4A16446  31.000   3.445  13.079 -0.1196  0.1305 -0.0450
12270DOPA   C1B16447  29.972   3.559  12.131  0.4369  0.0618  0.0952
12270DOPA   D2B16448  30.249   3.572  12.551 -0.1719  0.1544  0.0210
12270DOPA   C3B16449  30.055   3.766  12.926 -0.1818 -0.3466 -0.0357
12270DOPA   C4B16450  29.966   4.012  13.322  0.0929  0.0628  0.3137
12271DOPA   PO416451  19.793   6.437  11.446 -0.0279 -0.1178  0.0186
12271DOPA   GL116452  19.824   6.269  11.856  0.0579 -0.2296  0.2851
12271DOPA   GL216453  19.500   6.296  11.796  0.0485  0.0550 -0.0129
12271DOPA   C1A16454  20.034   5.857  11.980 -0.2449  0.0365 -0.0875
12271DOPA   D2A16455  20.521   5.670  12.083  0.4524  0.3446  0.1554
12271DOPA   C3A16456  20.480   5.558  12.587  0.1699  0.1452 -0.0211
12271DOPA   C4A16457  20.633   5.801  12.988  0.1576  0.0782  0.2159
12271DOPA   C1B16458  19.200   5.928  11.801  0.0494 -0.2320  0.3050
12271DOPA   D2B16459  19.035   5.459  11.677  0.0865 -0.1023 -0.1745
12271DOPA   C3B16460  19.097   5.509  12.104  0.0084  0.0959 -0.0237
12271DOPA   C4B16461  19.423   5.353  12.367 -0.2365  0.1677 -0.0372
12272DOPA   PO416462  22.448   0.214  11.650  0.1902 -0.0759  0.1639
12272DOPA   GL116463  22.570   0.161  11.993  0.1300  0.2025  0.3138
12272DOPA   GL216464  22.832   0.143  12.120  0.2151  0.0300 -0.0463
12272DOPA   C1A16465  22.306   0.263  12.331  0.3537 -0.1057 -0.0519
12272DOPA   D2A16466  21.913   0.217  12.566 -0.4185 -0.0732 -0.2280
12272DOPA   C3A16467  22.015   0.557  12.891  0.1409 -0.2226  0.0607
12272DOPA   C4A16468  22.300   0.809  13.233  0.2969 -0.2309  0.1516
12272DOPA   C1B16469  22.930   0.387  12.428  0.2272 -0.0802 -0.1040
12272DOPA   D2B16470  23.103   0.748  12.732 -0.0820 -0.2872  0.0936
12272DOPA   C3B16471  23.215   0.594  13.184 -0.2134  0.1755  0.3536
12272DOPA   C4B16472  23.595   0.465  13.467  0.2197  0.2493  0.0237
12273DOPA   PO416473  21.117   4.897  11.423 -0.3451  0.1847 -0.0792
12273DOPA   GL116474  21.027   5.078  11.795 -0.0277  0.0314 -0.1230
12273DOPA   GL216475  21.343   5.028  11.881  0.0779  0.2296  0.0920
12273DOPA   C1A16476  20.604   5.088  12.025 -0.0557  0.3034  0.2539
12273DOPA   D2A16477  20.249   4.977  12.339 -0.2528  0.2486 -0.1876
12273DOPA   C3A16478  20.241   5.119  12.789 -0.0491 -0.0454 -0.3954
12273DOPA   C4A16479  20.119   5.414  13.209  0.0285 -0.0792  0.0412
12273DOPA   C1B16480  21.174   5.078  12.260  0.1827  0.1859  0.0998
12273DOPA   D2B16481  20.911   5.116  12.710  0.1979 -0.0864 -0.0259
12273DOPA   C3B16482  20.638   5.206  13.098  0.3889  0.2419 -0.2654
12273DOPA   C4B16483  20.466   5.148  13.542 -0.0455 -0.0806 -0.4716
12274DOPA   PO416484  25.589   1.195  11.539 -0.1294 -0.0299  0.0924
12274DOPA   GL116485  25.722   1.013  11.849 -0.0711 -0.2499 -0.0638
12274DOPA   GL216486  25.495   0.872  12.047  0.2300  0.0839  0.0276
12274DOPA   C1A16487  26.000   0.966  12.193  0.1245 -0.0335  0.1111
12274DOPA   D2A16488  26.263   0.888  12.539 -0.0207 -0.2288  0.0511
12274DOPA   C3A16489  26.178   0.922  12.991  0.0859 -0.1849  0.0829
12274DOPA   C4A16490  26.096   1.072  13.415 -0.0798 -0.0098  0.2933
12274DOPA   C1B16491  25.479   1.120  12.473  0.2828 -0.1078  0.1277
12274DOPA   D2B16492  25.357   1.349  12.846  0.1735 -0.2563  0.0911
12274DOPA   C3B16493  25.261   1.012  13.126 -0.0027  0.2131 -0.0219
12274DOPA   C4B16494  25.301   0.587  13.255 -0.1731  0.1688  0.0299
12275DOPA   PO416495   9.236   7.272  10.906  0.0122 -0.0376 -0.2629
12275DOPA   GL116496   9.023   6.911  11.086 -0.5413 -0.3443  0.0942
12275DOPA   GL216497   9.283   6.777  11.169 -0.0185 -0.2947  0.0981
12275DOPA   C1A16498   8.929   6.836  11.532  0.1805  0.0227  0.0713
12275DOPA   D2A16499   8.814   6.940  12.020 -0.1370  0.0436 -0.2904
12275DOPA   C3A16500   8.889   6.757  12.472 -0.0329 -0.2872 -0.0377
12275DOPA   C4A16501   9.173   6.533  12.814 -0.0250  0.0663 -0.1522
12275DOPA   C1B16502   9.366   6.752  11.553 -0.0486 -0.0454 -0.0192
12275DOPA   D2B16503   9.745   6.655  11.870  0.2763 -0.1347 -0.1026
12275DOPA   C3B16504  10.208   6.513  11.815 -0.2741 -0.2229 -0.0571
12275DOPA   C4B16505  10.628   6.435  12.081 -0.0135 -0.3353  0.0731
12276DOPA   PO416506   2.366   7.438  11.581 -0.1000  0.0441 -0.0023
12276DOPA   GL116507   2.855   7.223  11.523  0.3603 -0.0324 -0.2199
12276DOPA   GL216508   2.687   7.250  11.817  0.1923 -0.1258 -0.2043
12276DOPA   C1A16509   3.170   7.394  11.700  0.1151  0.3948 -0.0212
12276DOPA   D2A16510   3.420   7.715  11.977 -0.3664 -0.0367  0.3943
12276DOPA   C3A16511   3.509   7.845  12.421  0.0374 -0.0097  0.1527
12276DOPA   C4A16512   3.532   7.865  12.944 -0.0420  0.0887 -0.1336
12276DOPA   C1B16513   2.949   7.226  12.125  0.2140 -0.0650  0.1455
12276DOPA   D2B16514   3.320   7.120  12.378 -0.0232 -0.0231 -0.1488
12276DOPA   C3B16515   3.564   7.402  12.687 -0.2112  0.2294  0.0519
12276DOPA   C4B16516   3.922   7.542  13.050 -0.0914 -0.2365  0.2397
12277DOPA   PO416517  21.144   0.771  11.621  0.2780  0.0540  0.1122
12277DOPA   GL116518  20.902   0.816  11.975  0.2462  0.0545 -0.3521
12277DOPA   GL216519  20.894   1.081  11.859  0.2194 -0.0426 -0.1695
12277DOPA   C1A16520  20.713   0.680  12.347 -0.0329 -0.0763 -0.0639
12277DOPA   D2A16521  20.487   0.385  12.719 -0.1413  0.2167 -0.0863
12277DOPA   C3A16522  20.553  -0.016  12.979  0.0366 -0.2076  0.2355
12277DOPA   C4A16523  20.687  -0.482  13.171 -0.0707  0.1761 -0.0232
12277DOPA   C1B16524  20.769   1.372  12.161 -0.0113 -0.0791 -0.1980
12277DOPA   D2B16525  20.456   1.643  12.362 -0.4000 -0.1744  0.0206
12277DOPA   C3B16526  20.189   1.493  12.741  0.2270 -0.0486 -0.1238
12277DOPA   C4B16527  20.177   1.573  13.267 -0.2134 -0.0543 -0.0153
12278DOPA   PO416528  22.333   6.979  11.760  0.0645 -0.0029 -0.2043
12278DOPA   GL116529  22.431   7.037  12.172 -0.0393  0.1104  0.2561
12278DOPA   GL216530  22.256   7.325  12.186  0.3343  0.2547  0.0828
12278DOPA   C1A16531  22.424   6.912  12.592  0.0835 -0.0347  0.1020
12278DOPA   D2A16532  22.370   6.651  12.994  0.1715 -0.0468  0.0482
12278DOPA   C3A16533  22.546   6.428  13.309  0.2236 -0.0051 -0.2287
12278DOPA   C4A16534  22.685   6.024  13.558  0.0432  0.0262 -0.1020
12278DOPA   C1B16535  22.232   7.390  12.669  0.0007 -0.1102  0.1532
12278DOPA   D2B16536  22.267   7.146  13.044 -0.1450 -0.4205  0.2503
12278DOPA   C3B16537  21.967   7.222  13.398  0.3521 -0.2554  0.3388
12278DOPA   C4B16538  21.559   7.143  13.680 -0.1494 -0.0824  0.0468
12279DOPA   PO416539   2.283   6.883  11.416  0.0911 -0.0586 -0.3691
12279DOPA   GL116540   2.331   6.981  11.869 -0.0814 -0.0431 -0.2350
12279DOPA   GL216541   2.041   7.085  11.906  0.0876 -0.4440 -0.2570
12279DOPA   C1A16542   2.640   6.815  12.252 -0.1173  0.0192 -0.4423
12279DOPA   D2A16543   2.900   6.782  12.696 -0.1693 -0.2954 -0.0928
12279DOPA   C3A16544   3.099   6.622  13.073 -0.0020  0.4796  0.1137
12279DOPA   C4A16545   3.168   6.279  13.400  0.0643 -0.0302  0.1148
12279DOPA   C1B16546   1.951   7.480  12.207 -0.1408 -0.0219  0.0368
12279DOPA   D2B16547   1.836   7.609  12.645 -0.2310 -0.0960 -0.0747
12279DOPA   C3B16548   1.779   7.412  13.162  0.4751 -0.1412 -0.2767
12279DOPA   C4B16549   1.693   7.070  13.563  0.0497 -0.0029  0.2051
12280DOPA   PO416550   7.276   0.438  10.794  0.1924 -0.0617  0.0606
12280DOPA   GL116551   7.172   0.288  11.199  0.2414  0.2301  0.1525
12280DOPA   GL216552   7.405   0.467  11.261  0.0191 -0.2796 -0.2886
12280DOPA   C1A16553   7.008   0.184  11.582 -0.1212  0.1079  0.0769
12280DOPA   D2A16554   6.925   0.031  12.013 -0.0303 -0.0439  0.0604
12280DOPA   C3A16555   6.823   0.063  12.485 -0.0978 -0.1253  0.2146
12280DOPA   C4A16556   7.068   0.240  12.838  0.0419 -0.1960  0.2032
12280DOPA   C1B16557   7.392   0.417  11.716 -0.3274 -0.1143 -0.0701
12280DOPA   D2B16558   7.320   0.618  12.131 -0.0039  0.1136  0.0911
12280DOPA   C3B16559   7.460   0.529  12.518 -0.0271  0.0940 -0.0350
12280DOPA   C4B16560   7.882   0.363  12.527  0.1108  0.0765  0.0327
12281DOPA   PO416561   6.429   1.587  11.087 -0.1214  0.4434 -0.0547
12281DOPA   GL116562   6.331   1.455  11.484 -0.1041 -0.4464  0.1731
12281DOPA   GL216563   6.170   1.782  11.489  0.0261  0.0571 -0.2103
12281DOPA   C1A16564   6.476   1.389  11.930 -0.2394 -0.2488  0.2970
12281DOPA   D2A16565   6.683   1.359  12.343 -0.0485  0.3559 -0.3673
12281DOPA   C3A16566   6.849   1.790  12.490 -0.1382  0.1570 -0.0138
12281DOPA   C4A16567   6.986   2.202  12.618 -0.0715 -0.2188 -0.3088
12281DOPA   C1B16568   6.279   1.865  11.849  0.1454 -0.3042 -0.1565
12281DOPA   D2B16569   6.362   1.743  12.289  0.3545 -0.3614 -0.1833
12281DOPA   C3B16570   6.413   1.939  12.720 -0.1617  0.0577 -0.1939
12281DOPA   C4B16571   6.778   2.045  13.069  0.0970  0.0770  0.1231
12282DOPA   PO416572   1.085   7.728  11.313  0.0527  0.0306 -0.0069
12282DOPA   GL116573   1.017   7.743  11.680 -0.1545  0.1234 -0.2075
12282DOPA   GL216574   0.838   7.985  11.583  0.0042 -0.1848  0.0986
12282DOPA   C1A16575   1.241   7.778  12.070 -0.2137  0.3132 -0.2587
12282DOPA   D2A16576   1.415   7.478  12.397 -0.1405  0.0660 -0.0148
12282DOPA   C3A16577   1.446   7.293  12.781  0.1413  0.2221  0.0443
12282DOPA   C4A16578   1.592   6.930  13.062 -0.0706  0.1333  0.1012
12282DOPA   C1B16579   0.788   8.168  12.007 -0.0727 -0.0745  0.0633
12282DOPA   D2B16580   0.984   8.278  12.492  0.1710 -0.3884  0.0065
12282DOPA   C3B16581   0.835   7.980  12.855 -0.0223  0.0802  0.1241
12282DOPA   C4B16582   0.689   7.590  13.152 -0.4199 -0.0483 -0.2552
12283W        W16583  25.697   2.612   0.042 -0.2830  0.2022  0.1740
12284W        W16584  11.030   2.127   2.925 -0.3051  0.0216  0.1827
12285W        W16585   3.886   4.953  15.662  0.2244 -0.1395  0.1433
12286W        W16586  29.653   5.503  21.895  0.0640  0.0558  0.2745
12287W        W16587   1.939   4.710  15.613 -0.1574  0.1449  0.3848
12288W        W16588   1.454   2.000  26.018 -0.1123 -0.0225 -0.0153
12289W        W16589  31.184   3.663   9.598  0.1217 -0.0436  0.2516
12290W        W16590   9.974   0.811   4.243 -0.1309 -0.2469  0.1093
12291W        W16591  16.700   7.153  22.196  0.0101  0.0348  0.0148
12292W        W16592  12.099   7.382  10.214 -0.0909  0.1317 -0.1242
12293W        W16593  24.038   6.597  26.151  0.0419  0.1888  0.1225
12294W        W16594  13.901   7.132  17.407 -0.0470  0.0692 -0.0295
12295W        W16595   9.858   0.450   1.884  0.2752  0.1417 -0.2590
12296W        W16596  17.732   2.861   0.320 -0.0376 -0.1178 -0.0072
12297W        W16597  14.964   7.167  17.683  0.1190 -0.2057  0.2263
12298W        W16598  17.871   2.654  19.065  0.3381  0.0063  0.2252
12299W        W16599  29.675   0.567   3.853 -0.0394 -0.0051 -0.0290
12300W        W16600   0.830   2.552  22.367  0.2610  0.1532  0.0294
12301W        W16601  26.011   5.945  17.540 -0.1150 -0.1956  0.1946
12302W        W16602   6.711   5.063   6.651 -0.1965 -0.1039  0.0050
12303W        W16603   2.507   1.581  23.802  0.1189  0.1362 -0.1985
12304W        W16604  29.939   5.306   3.894  0.1224  0.0622  0.0490
12305W        W16605  22.299   3.515  21.872 -0.1794 -0.1321 -0.0734
12306W        W16606   1.387   5.363  19.723 -0.1378  0.2351  0.1999
12307W        W16607   2.127   3.307   0.020  0.0644  0.0592  0.1820
12308W        W16608   5.269   4.067  23.363 -0.2650 -0.0256 -0.0249
12309W        W16609  26.703   6.861   9.488 -0.1440 -0.2675  0.0892
12310W        W16610  12.755   0.523   3.925  0.1632 -0.1584  0.1536
12311W        W16611  22.225   4.330  20.830 -0.0578  0.0651 -0.0208
12312W        W16612   1.070   5.311  20.727  0.1406 -0.2454 -0.0361
12313W        W16613  18.756   5.684  17.438 -0.0736 -0.3921  0.1920
12314W        W16614  27.334   5.900   9.021  0.3403 -0.1784 -0.1410
12315W        W16615  30.484   0.235  22.979 -0.0689 -0.3430  0.0757
12316W        W16616   7.033   7.371  15.655 -0.3087  0.0704 -0.4554
12317W        W16617  22.632   5.898  25.523  0.1419 -0.0073 -0.0558
12318W        W16618  28.561   3.624  15.171  0.0034  0.2044 -0.1241
12319W        W16619   2.844   1.836   1.505  0.0282 -0.1630  0.0343
12320W        W16620  28.250   4.605   9.705  0.0555  0.1455  0.1361
12321W        W16621  24.100   1.587   8.574  0.0736 -0.0586 -0.2645
12322W        W16622  11.405   0.084  17.898 -0.1532 -0.2825  0.1352
12323W        W16623  12.418   5.383   3.834  0.0838 -0.0852 -0.0882
12324W        W16624  13.990   4.712  15.986 -0.0585 -0.0041 -0.3050
12325W        W16625   2.892   3.421   5.399  0.0642  0.1440  0.1081
12326W        W16626   4.924   0.813   3.212 -0.0474 -0.0592  0.0258
12327W        W16627  18.829   1.246   7.615  0.4221  0.0765 -0.0625
12328W        W16628  22.909   5.754  10.515  0.1780  0.0322 -0.4543
12329W        W16629  11.690   6.394   3.170  0.1744 -0.1090  0.3038
12330W        W16630   6.064   7.009  18.190 -0.0038  0.3383  0.2163
12331W        W16631  15.236   2.724  19.820  0.0954 -0.0939  0.0542
12332W        W16632   6.105   6.763  17.176 -0.2037 -0.1180  0.0792
12333W        W16633  23.474   3.977   1.704  0.3034 -0.0611 -0.0143
12334W        W16634  11.512   7.679  10.940 -0.2856 -0.1998  0.2811
12335W        W16635  14.010   0.187   5.257  0.1227 -0.1515 -0.1012
12336W        W16636  16.040   3.942   7.682  0.1407 -0.1199  0.1576
12337W        W16637  23.240   0.497  21.109  0.1335 -0.0364  0.0328
12338W        W16638  13.994   5.269  23.530 -0.4181 -0.1204 -0.0733
12339W        W16639   5.122   7.662   5.402  0.0331 -0.4605  0.2188
12340W        W16640  19.770   2.821   1.631 -0.0794  0.1420  0.0298
12341W        W16641   0.983   7.543  24.824  0.1053  0.1108 -0.0107
12342W        W16642   1.524   3.341   4.037  0.1898  0.2166 -0.3422
12343W        W16643   4.992   2.647  15.674 -0.0787 -0.0486  0.2792
12344W        W16644   9.874   5.227  10.193  0.4010 -0.1271  0.0270
12345W        W16645  18.754   7.286  10.920  0.0023  0.2587  0.1926
12346W        W16646  11.161   6.461   6.653  0.0886 -0.1438  0.2158
12347W        W16647  11.726   5.508  24.722 -0.0308 -0.2571 -0.0642
12348W        W16648  26.066   7.237  20.366  0.2140 -0.0901 -0.0245
12349W        W16649  27.318   5.318  15.846 -0.2015 -0.1288  0.2220
12350W        W16650  11.303   5.713  24.912 -0.0215 -0.1653 -0.0938
12351W        W16651  25.636   2.800   9.691 -0.0507  0.0741  0.0240
12352W        W16652  25.014   7.215   8.892 -0.0044 -0.0171  0.1446
12353W        W16653   7.582   4.115  21.769  0.1708 -0.0299 -0.0950
12354W        W16654   1.394   4.776   5.148 -0.1126 -0.0135 -0.1791
12355W        W16655  28.704   0.361  23.433  0.2253 -0.1009  0.0646
12356W        W16656  24.571   6.837  24.553  0.2615  0.0397 -0.0525
12357W        W16657   9.643   4.161   6.549  0.5294 -0.1880  0.2944
12358W        W16658  16.732   0.074  15.054 -0.0862 -0.2437  0.1465
12359W        W16659  25.176   6.600  23.578 -0.0383  0.1511 -0.1355
12360W        W16660  26.545   3.229   1.927  0.2368  0.1056 -0.0760
12361W        W16661  23.682   7.178   6.847  0.0892 -0.1923  0.1002
12362W        W16662  21.186   1.352  16.039 -0.0170 -0.1459 -0.0284
12363W        W16663  16.638   6.676   1.553 -0.1725  0.0902 -0.2765
12364W        W16664  25.890   1.191   1.649  0.0357  0.2128 -0.1438
12365W        W16665  30.295   1.502  10.563 -0.0859 -0.0338 -0.2500
12366W        W16666  30.996   1.550  24.674 -0.0994  0.1869  0.1219
12367W        W16667  11.633   0.247   4.315 -0.0964 -0.1529  0.1374
12368W        W16668  23.177   7.012  23.395 -0.1161  0.0263 -0.1958
12369W        W16669  30.332   0.735   2.978  0.0588 -0.1760 -0.0625
12370W        W16670  26.829   4.178  21.141  0.0750 -0.0718  0.2002
12371W        W16671  27.790   2.797  20.269  0.1209  0.0511  0.1794
12372W        W16672  13.977   5.418  16.435  0.1337 -0.3758 -0.3210
12373W        W16673  15.945   1.963  26.253 -0.0910  0.0010 -0.2136
12374W        W16674   5.608   2.493   4.993 -0.0432 -0.1537 -0.2241
12375W        W16675  21.421   3.426   4.496  0.1296 -0.2089  0.2097
12376W        W16676   5.087   4.825  16.249 -0.1554  0.1413  0.0789
12377W        W16677  12.587   3.028  14.855  0.0337  0.2486  0.1176
12378W        W16678  24.880   7.779  20.073 -0.0308 -0.1882 -0.1319
12379W        W16679   2.292   4.280  10.909  0.0380 -0.0852  0.0280
12380W        W16680  27.869   2.141   2.159 -0.1572 -0.0467 -0.2568
12381W        W16681  14.624   5.837  15.320  0.0527 -0.3803 -0.0331
12382W        W16682  15.469   3.035  22.977 -0.2728 -0.0860 -0.0106
12383W        W16683  22.602   5.145  24.331 -0.1058 -0.1867  0.0564
12384W        W16684  25.990   1.222  17.385 -0.3556 -0.0604 -0.2136
12385W        W16685  17.761   5.504   2.167  0.2354 -0.2671  0.1656
12386W        W16686  30.423   1.448  20.916 -0.1095  0.0042  0.3282
12387W        W16687  20.013   4.895  26.336 -0.1302 -0.0699 -0.0501
12388W        W16688   2.353   5.774  17.246  0.1722 -0.1071 -0.4189
12389W        W16689  13.999   1.617  15.755  0.1348  0.1989 -0.1154
12390W        W16690  13.458   1.075   3.647 -0.1996  0.2122 -0.0994
12391W        W16691  28.940   5.299   6.716 -0.2986  0.1103  0.1467
12392W        W16692  18.233   5.566  18.225 -0.0289 -0.1806 -0.1789
12393W        W16693  28.183   1.275   8.510 -0.0921 -0.1529 -0.0474
12394W        W16694  16.014   6.544   4.648  0.0978 -0.2394  0.1097
12395W        W16695  28.282   7.534   1.897 -0.3108  0.2187 -0.1330
12396W        W16696  19.972   2.599  18.392  0.0081  0.1462 -0.0010
12397W        W16697   1.641   3.682   2.556 -0.1211 -0.1172  0.0381
12398W        W16698  27.932   6.507  20.022  0.1270  0.0424  0.0414
12399W        W16699  13.132   7.761  25.185 -0.0862  0.1576  0.1264
12400W        W16700  10.964   7.735   2.909  0.1683  0.0899 -0.0156
12401W        W16701   8.946   6.836  22.199  0.0435 -0.0201  0.2484
12402W        W16702  14.031   3.117  24.543 -0.1647  0.2134  0.0952
12403W        W16703  17.076   0.732  21.224  0.0226 -0.0262 -0.0302
12404W        W16704   0.958   2.632   4.077  0.2680 -0.0686 -0.0058
12405W        W16705  22.043   4.404  20.375  0.0149  0.1848  0.2893
12406W        W16706   0.268   0.877   8.482  0.1169  0.2747  0.0087
12407W        W16707  11.762   3.130   5.504  0.2930  0.1757  0.1354
12408W        W16708  18.006   3.382  17.182  0.0373 -0.0812 -0.1293
12409W        W16709  14.039   5.991   8.868 -0.0373 -0.3322  0.0946
12410W        W16710  15.647   6.973   0.261 -0.0031 -0.2247  0.2239
12411W        W16711   9.829   5.168   5.615  0.2423  0.2769 -0.2000
12412W        W16712  30.038   5.991   2.870  0.1303  0.3780 -0.1465
12413W        W16713  24.786   2.329  10.927 -0.0414 -0.0381 -0.0158
12414W        W16714  15.488   3.916   4.633  0.0279  0.0140  0.0004
12415W        W16715  14.097   1.751  25.002 -0.0876  0.3515  0.1243
12416W        W16716   3.479   0.497  16.622  0.0173 -0.1606  0.1439
12417W        W16717   4.157   1.543   8.833  0.0986  0.1049  0.1604
12418W        W16718   1.741   4.560   0.623 -0.1205 -0.2150  0.1665
12419W        W16719   3.193   1.440  17.936 -0.1361 -0.0598 -0.1905
12420W        W16720  28.804   0.407  15.525  0.0732  0.2581 -0.1866
12421W        W16721  21.523   0.399  22.177  0.1789 -0.2019 -0.1660
12422W        W16722  14.964   2.416   4.728  0.0466 -0.5323  0.2440
12423W        W16723   6.271   4.686   4.930  0.0185 -0.1718  0.1217
12424W        W16724  10.268   1.781  20.414  0.0479  0.0059 -0.0435
12425W        W16725   8.168   3.092  15.364 -0.0980  0.1779  0.2115
12426W        W16726  12.351   7.304  16.544 -0.0941  0.3415 -0.0016
12427W        W16727  21.231   5.004  20.916  0.2513  0.1929 -0.1851
12428W        W16728  14.459   0.087   7.790 -0.0497 -0.2200  0.1458
12429W        W16729  19.466   5.914   2.075  0.0043 -0.3191  0.0350
12430W        W16730  26.499   6.123  18.469  0.4883  0.0048  0.0403
12431W        W16731  28.343   1.168  20.948 -0.0628  0.1208 -0.0427
12432W        W16732   9.043   0.162   7.638 -0.0421  0.3180 -0.0159
12433W        W16733  29.639   7.058   3.143  0.0341  0.0821  0.1136
12434W        W16734  25.372   7.486  17.980 -0.2205 -0.1107  0.0877
12435W        W16735  28.170   2.716  25.948 -0.1346 -0.2127 -0.1144
12436W        W16736  24.754   0.671  25.474  0.0420 -0.4337  0.2182
12437W        W16737  16.226   1.495  20.961 -0.5288 -0.1910 -0.0168
12438W        W16738   8.487   5.889   2.268 -0.1167  0.0786  0.0046
12439W        W16739  27.216   6.650   9.560 -0.2444 -0.1727 -0.3423
12440W        W16740  27.192   3.624   7.965 -0.0326 -0.0293  0.2387
12441W        W16741   4.757   0.994  23.663 -0.4068  0.1073  0.2309
12442W        W16742  14.158   3.295  19.905 -0.0709  0.3436  0.1946
12443W        W16743  11.703   7.501   8.762  0.1419 -0.1850 -0.1709
12444W        W16744   8.249   1.366  25.654  0.1027 -0.0738  0.3205
12445W        W16745   1.533   5.747   2.034 -0.0823 -0.0920 -0.0660
12446W        W16746   0.989   2.919  25.735 -0.1421  0.0734  0.1670
12447W        W16747  14.337   6.808   9.976  0.0271 -0.1006 -0.4121
12448W        W16748  22.171   2.126  21.069 -0.1358 -0.0524 -0.0931
12449W        W16749  21.962   3.574  20.065  0.1052 -0.0069  0.1955
12450W        W16750   6.886   1.695  19.074  0.0548  0.3765  0.0305
12451W        W16751  15.944   2.330   0.303  0.2034  0.0344  0.1834
12452W        W16752   7.935   6.308  26.107  0.0433  0.1814 -0.1904
12453W        W16753  20.303   5.781   1.034 -0.0365 -0.4078 -0.1949
12454W        W16754   2.526   0.868  22.766  0.5035 -0.3698  0.0400
12455W        W16755  15.964   3.653   8.149  0.0501 -0.0540 -0.0065
12456W        W16756  10.784   3.546  18.879 -0.0962  0.0670 -0.0170
12457W        W16757  29.474   0.251  24.016 -0.1148 -0.3799  0.1595
12458W        W16758   5.812   5.275  24.708 -0.0057  0.5270  0.1414
12459W        W16759   5.210   6.803  16.902 -0.2188  0.0699 -0.0039
12460W        W16760  26.663   5.854  15.819  0.1626  0.1961  0.0777
12461W        W16761   6.893   6.650   3.787 -0.0517  0.3420  0.1265
12462W        W16762  17.385   6.428  16.524  0.0671 -0.0464  0.2433
12463W        W16763  23.113   1.977  24.338  0.1535 -0.0655  0.1688
12464W        W16764  29.338   3.797  21.440  0.2021  0.0788 -0.0783
12465W        W16765  31.138   1.044  15.417  0.3855 -0.2812  0.1505
12466W        W16766   3.245   7.167   9.834 -0.1390 -0.0402  0.1456
12467W        W16767  12.148   6.655  26.176  0.0284  0.3543 -0.0365
12468W        W16768  12.655   4.473  17.287 -0.0022 -0.1295  0.1782
12469W        W16769  27.371   2.188   9.538 -0.1367  0.2334 -0.4128
12470W        W16770  23.917   0.241  20.037  0.2174  0.0741 -0.0930
12471W        W16771   1.526   3.144  18.992 -0.0805 -0.2076  0.1035
12472W        W16772  28.310   4.181  21.934  0.3548 -0.2410  0.3277
12473W        W16773  21.533   4.661  16.185 -0.0417 -0.1580 -0.2363
12474W        W16774   7.631   5.727   1.470  0.0185  0.0417  0.1667
12475W        W16775  22.122   2.618  21.334  0.0291 -0.1306  0.0233
12476W        W16776  18.170   0.386  16.170  0.0297 -0.3022  0.0863
12477W        W16777  30.233   4.092  15.285  0.1528 -0.2931 -0.3009
12478W        W16778  28.099   6.959   9.330  0.0722 -0.2689 -0.0234
12479W        W16779  23.751   7.592   5.942  0.0056  0.0682  0.0783
12480W        W16780  21.050   5.518   0.149  0.3213 -0.1170  0.3053
12481W        W16781  13.835   4.644   3.334 -0.2317 -0.1117  0.0357
12482W        W16782  23.578   4.925   7.897 -0.1430 -0.1461 -0.2351
12483W        W16783   0.660   3.559  19.358 -0.1475  0.1346  0.0927
12484W        W16784   2.383   1.343  17.461 -0.1061  0.0635 -0.0124
12485W        W16785  30.165   5.578   9.385  0.0039 -0.0667  0.0146
12486W        W16786   8.935   4.332   3.463  0.2412  0.2260 -0.2327
12487W        W16787   3.205   1.452  21.235 -0.0601 -0.1791  0.0892
12488W        W16788   7.061   5.799   4.010 -0.2553 -0.3559 -0.0265
12489W        W16789   0.361   2.052  16.237 -0.0611 -0.4959  0.0471
12490W        W16790  25.383   1.176   9.722  0.5630  0.0089 -0.2173
12491W        W16791  17.990   7.170  25.435 -0.0964  0.2807  0.0723
12492W        W16792  17.447   3.367  19.819 -0.2233 -0.1093 -0.1316
12493W        W16793  19.556   6.508   1.382 -0.1295 -0.3953  0.3595
12494W        W16794  28.983   0.433  18.839  0.2053 -0.3334  0.3403
12495W        W16795  27.345   6.110  25.180 -0.4058  0.0313 -0.3233
12496W        W16796  11.580   4.602   1.068  0.0148  0.2436 -0.0437
12497W        W16797  11.802   3.257  10.339 -0.0845 -0.0188 -0.2021
12498W        W16798  14.814   3.148   4.510 -0.0252  0.3674  0.0365
12499W        W16799  30.827   2.949   4.569  0.4732  0.0723 -0.0230
12500W        W16800  12.850   2.498  10.692 -0.0126  0.1124 -0.2677
12501W        W16801  29.398   2.368  22.457 -0.2064  0.2082 -0.2402
12502W        W16802  25.248   7.327  21.571  0.3505  0.0467 -0.2444
12503W        W16803  17.615   0.053  21.135 -0.1350 -0.0400 -0.0311
12504W        W16804   0.673   1.767  19.715  0.3883 -0.1720 -0.0615
12505W        W16805  11.593   3.790   7.062  0.0653  0.2377  0.1190
12506W        W16806  29.975   2.361   3.389  0.0798  0.3587  0.4505
12507W        W16807  16.578   3.928   2.104 -0.1591 -0.1700 -0.0661
12508W        W16808  14.041   6.404   4.986  0.1909 -0.1263 -0.1047
12509W        W16809  16.705   6.480   0.757 -0.0320 -0.0063 -0.0324
12510W        W16810  27.918   4.932   0.729  0.0758  0.0218  0.1525
12511W        W16811  18.439   5.388  17.009  0.0460  0.1886 -0.0641
12512W        W16812  18.037   3.620   2.803 -0.1458  0.3814 -0.0265
12513W        W16813  25.430   4.947   4.432 -0.3051  0.1486 -0.1057
12514W        W16814   1.581   7.618   9.226 -0.1325 -0.2440  0.3510
12515W        W16815   7.569   3.015   0.170 -0.0613 -0.0355 -0.0421
12516W        W16816   2.801   2.972  23.961 -0.3308 -0.0927 -0.4351
12517W        W16817   3.738   2.129  10.449 -0.3944  0.1924 -0.1059
12518W        W16818   4.224   6.473   5.489  0.0650 -0.1153  0.1841
12519W        W16819  25.008   3.032   6.804 -0.0042 -0.1744 -0.3004
12520W        W16820  28.490   1.687  20.714  0.0659  0.0618 -0.0131
12521W        W16821  20.878   1.789   4.860  0.3330 -0.2867 -0.0755
12522W        W16822  15.362   3.139  18.185  0.3266 -0.0362  0.2418
12523W        W16823  16.740   0.226   1.277  0.2787  0.0094  0.1115
12524W        W16824  10.550   3.218   0.267  0.0173  0.0854 -0.0736
12525W        W16825   7.278   0.302  16.824  0.0472  0.2056  0.3139
12526W        W16826   0.663   6.965  21.887  0.0229  0.2823  0.2335
12527W        W16827  10.621   7.779  10.705 -0.0650  0.0389 -0.2546
12528W        W16828  29.758   0.902   2.790 -0.0357 -0.2599  0.0438
12529W        W16829  19.654   4.016   4.633  0.2960 -0.1428  0.0333
12530W        W16830  13.985   3.224   6.975  0.0432 -0.1195  0.2190
12531W        W16831  25.518   4.084   6.463 -0.0634 -0.0722 -0.1541
12532W        W16832  23.533   2.135   5.307  0.0010  0.1239  0.2019
12533W        W16833  17.806   4.127   5.832  0.2508 -0.1021 -0.2508
12534W        W16834  11.506   1.330  26.249 -0.0657 -0.1103 -0.2208
12535W        W16835   1.399   7.106   6.602 -0.2336  0.0129  0.0349
12536W        W16836  17.102   5.650   5.959 -0.2170  0.0172  0.0915
12537W        W16837  17.106   1.921   4.251  0.0480 -0.0152 -0.3031
12538W        W16838  20.835   2.226   6.840 -0.0646 -0.0511 -0.1812
12539W        W16839   0.950   6.403  19.894 -0.1836  0.0366  0.2083
12540W        W16840  23.313   4.225  18.310  0.1600  0.0032 -0.1463
12541W        W16841  22.341   2.956  21.032 -0.1066 -0.1022 -0.1307
12542W        W16842  19.906   5.119   9.798 -0.1497  0.1125 -0.1214
12543W        W16843   9.497   4.579   4.995  0.0227 -0.1181 -0.0218
12544W        W16844  21.146   5.518  25.206  0.0462 -0.2618 -0.0246
12545W        W16845  23.550   2.678  25.450 -0.2891 -0.1044 -0.0440
12546W        W16846   8.852   5.375  22.318 -0.1346  0.0093 -0.0705
12547W        W16847  14.866   4.831   3.305  0.0218  0.0313  0.1266
12548W        W16848   1.633   5.627   7.102  0.1391  0.2795 -0.1069
12549W        W16849  21.233   2.929  20.200 -0.1572  0.0531  0.0231
12550W        W16850  13.074   5.930  19.789 -0.1132  0.2046  0.2698
12551W        W16851  27.086   4.166   1.739 -0.1969 -0.4163 -0.2366
12552W        W16852  10.351   3.057   9.152  0.0100 -0.1462  0.1888
12553W        W16853  11.831   6.088  17.282 -0.2619 -0.0844 -0.2330
12554W        W16854  15.763   0.894  17.704 -0.0943 -0.0178  0.0298
12555W        W16855  25.750   0.292  10.950 -0.0898 -0.0530  0.1433
12556W        W16856  17.312   2.379   5.091 -0.0374  0.1537  0.1294
12557W        W16857  16.467   4.166   7.713 -0.1690  0.1453  0.2423
12558W        W16858  30.850   1.042  15.825 -0.0258 -0.3851  0.3664
12559W        W16859   9.415   1.560  17.959 -0.0496  0.2696 -0.0406
12560W        W16860   3.140   4.875  10.722 -0.1855  0.1857  0.2102
12561W        W16861  26.028   6.814   3.676  0.2058  0.1715 -0.0714
12562W        W16862  19.486   4.838   6.713  0.0721 -0.0844  0.0909
12563W        W16863   7.803   3.650  21.544 -0.0487  0.0885 -0.3396
12564W        W16864  16.051   4.277   8.891  0.1966  0.0902 -0.0194
12565W        W16865   2.008   1.778  17.388  0.0146 -0.1125  0.1654
12566W        W16866  16.623   7.641  18.439 -0.0945 -0.2219  0.2745
12567W        W16867  27.574   4.285  25.147 -0.0392  0.1260 -0.1378
12568W        W16868   3.768   6.670  25.991 -0.1535 -0.2047  0.0171
12569W        W16869  11.755   7.403  24.640  0.0943 -0.0809 -0.4952
12570W        W16870  19.074   5.590   7.013 -0.0879 -0.1158 -0.4124
12571W        W16871   5.398   0.600  17.357  0.3173  0.0187 -0.0410
12572W        W16872  31.186   4.506   6.621  0.1146 -0.2690 -0.3179
12573W        W16873  26.805   4.698   4.433  0.2927 -0.0722 -0.1429
12574W        W16874  16.402   0.877   6.504  0.1867  0.3529  0.0919
12575W        W16875  17.120   0.223  19.397  0.2417  0.2379  0.0497
12576W        W16876  12.497   6.961  19.045 -0.1801  0.2159  0.0201
12577W        W16877  21.893   0.394  16.074  0.0599  0.1483 -0.2931
12578W        W16878  15.232   1.824  19.769 -0.0714  0.0996 -0.1788
12579W        W16879   5.477   7.270  16.431  0.0879  0.2495 -0.0746
12580W        W16880  30.275   7.290  11.208  0.0364  0.0362  0.0400
12581W        W16881   4.073   4.424  22.633 -0.1570 -0.0456  0.2692
12582W        W16882  19.639   3.914  24.136 -0.0372 -0.1198  0.0625
12583W        W16883  23.657   1.996   2.875  0.2344 -0.0554  0.2465
12584W        W16884  20.722   5.087   5.948 -0.3102 -0.1318  0.1446
12585W        W16885  26.172   6.972   8.120 -0.2059  0.1613 -0.2902
12586W        W16886  20.042   2.090  16.997 -0.0803 -0.1995  0.0379
12587W        W16887  20.965   5.871   8.974  0.2916  0.1959  0.1954
12588W        W16888  31.040   5.165  16.706 -0.1333 -0.1468  0.3310
12589W        W16889  17.674   2.823  19.571 -0.1163 -0.1628  0.0995
12590W        W16890  24.884   4.663   1.658 -0.1254 -0.1272  0.0232
12591W        W16891   0.627   6.683  26.385 -0.1467 -0.1780  0.0518
12592W        W16892   9.782   4.209  23.463 -0.0525 -0.0449 -0.0030
12593W        W16893  29.874   0.339   3.398 -0.1654  0.1133 -0.0925
12594W        W16894  17.535   1.017   7.089 -0.3788 -0.0291 -0.2262
12595W        W16895  28.372   0.464  19.845  0.0006 -0.2569 -0.0197
12596W        W16896   7.976   3.573  25.512  0.0468  0.0662  0.2922
12597W        W16897  18.793   1.159  19.677  0.1708 -0.0394  0.0442
12598W        W16898  25.124   5.159  15.962  0.1717  0.2708 -0.1113
12599W        W16899  23.593   7.616  26.340  0.0317 -0.3864 -0.1683
12600W        W16900  12.047   4.732  22.725 -0.0558  0.0509 -0.0681
12601W        W16901   2.441   2.574   5.420  0.1345 -0.1234 -0.0014
12602W        W16902  27.761   0.129   7.363  0.0059  0.2216  0.0059
12603W        W16903  14.392   5.701   3.186 -0.2128  0.3535 -0.1076
12604W        W16904   8.429   5.556   8.013  0.1722 -0.4844  0.2265
12605W        W16905   3.731   4.709  16.750 -0.1037  0.3122 -0.0497
12606W        W16906  18.116   1.827  11.243  0.0122  0.2447 -0.1273
12607W        W16907   8.742   6.398   2.348  0.2391  0.2319 -0.0997
12608W        W16908  26.270   6.859  23.262  0.2295 -0.1891  0.0392
12609W        W16909  13.063   2.948  18.538 -0.1511  0.1478 -0.1961
12610W        W16910  29.898   4.735  20.351 -0.0856  0.0059  0.0841
12611W        W16911   0.147   7.134  24.283 -0.1106  0.0880  0.0135
12612W        W16912  12.864   0.765  16.790 -0.0148  0.1255 -0.0548
12613W        W16913  22.750   3.614   1.874  0.2624 -0.0107 -0.0033
12614W        W16914  25.661   3.206  19.248 -0.0799  0.2903  0.1975
12615W        W16915   6.603   1.789  17.639  0.1941  0.1165 -0.2257
12616W        W16916  27.361   5.593   8.099  0.1143  0.0565 -0.3538
12617W        W16917  11.226   1.081  10.030 -0.0021  0.0583  0.0310
12618W        W16918   5.702   3.714   9.202  0.1650 -0.1460  0.0469
12619W        W16919  24.871   1.567   2.622 -0.1252  0.0722 -0.1662
12620W        W16920  23.499   1.347   0.474 -0.0969  0.0568 -0.3566
12621W        W16921  27.303   5.115   8.021  0.2058  0.3566 -0.1097
12622W        W16922  23.388   7.772   2.890  0.3088  0.0968  0.1311
12623W        W16923   3.379   6.512  17.712  0.2540  0.3271  0.0210
12624W        W16924   5.666   4.863  22.070 -0.4247  0.3583 -0.1140
12625W        W16925   9.227   6.578   3.857  0.0615  0.0972  0.1881
12626W        W16926   5.254   0.259   6.959  0.0290 -0.0577  0.2783
12627W        W16927   7.106   5.361  21.734 -0.1385 -0.2046 -0.0259
12628W        W16928   6.111   6.775  19.611 -0.2820 -0.1968 -0.1407
12629W        W16929   2.001   1.973  16.959  0.2888  0.0861  0.0851
12630W        W16930   2.332   5.085   6.961  0.1101  0.0083 -0.3806
12631W        W16931   5.237   0.751  24.480 -0.0096 -0.0203 -0.0602
12632W        W16932   8.284   6.310   7.406 -0.0294  0.1417  0.3616
12633W        W16933   3.427   4.945   1.983  0.0795  0.0439  0.2937
12634W        W16934  29.929   6.227  25.683  0.0402 -0.0125  0.0634
12635W        W16935   5.382   6.100  22.274  0.1823 -0.1758 -0.0826
12636W        W16936   3.698   6.406   5.274 -0.4445 -0.2169  0.1922
12637W        W16937  28.041   5.305   6.312 -0.1199  0.2273  0.1809
12638W        W16938   0.819   2.976  20.946 -0.1230 -0.0713 -0.1589
12639W        W16939   6.090   3.162   8.561  0.1258  0.1708  0.2172
12640W        W16940   3.994   7.500   1.663 -0.0167 -0.1785 -0.0046
12641W        W16941   1.662   5.551  22.463  0.0520 -0.3373  0.2011
12642W        W16942   9.097   5.458   5.459 -0.0658  0.1068 -0.0563
12643W        W16943   5.492   5.594  17.461  0.1549  0.0934 -0.0038
12644W        W16944  18.664   6.524   8.012  0.4571 -0.3425 -0.1019
12645W        W16945  12.521   3.959  10.547 -0.2748  0.1211 -0.0775
12646W        W16946  15.230   6.413   4.296 -0.0174 -0.1585  0.0561
12647W        W16947  18.792   4.728   9.983  0.1311 -0.2933 -0.4041
12648W        W16948  11.166   6.650  23.232 -0.2112 -0.0020  0.2207
12649W        W16949  12.005   7.140  25.023  0.2080 -0.0951  0.2118
12650W        W16950  25.527   5.490   0.588  0.0122  0.0632 -0.0318
12651W        W16951   8.870   3.537  16.990  0.1008  0.1957  0.1185
12652W        W16952   5.679   0.965   6.119 -0.1556 -0.1181 -0.2247
12653W        W16953   9.425   7.685  20.866 -0.4727  0.0454 -0.0159
12654W        W16954   1.652   1.006  16.427 -0.0448 -0.1499 -0.0751
12655W        W16955   4.276   4.395   8.435 -0.0345  0.0718 -0.4922
12656W        W16956   8.563   1.851  10.572  0.0208  0.1001  0.1321
12657W        W16957   0.889   3.162   2.379  0.3349 -0.0999 -0.3936
12658W        W16958  19.424   6.027  20.900 -0.1356 -0.1543 -0.0583
12659W        W16959  24.586   1.869  26.180 -0.1958 -0.0442 -0.1213
12660W        W16960   8.166   7.540   6.894  0.0371  0.2345  0.2708
12661W        W16961  25.222   1.516  19.392 -0.3018 -0.0728 -0.4632
12662W        W16962   9.736   6.404   1.972 -0.0262 -0.1045 -0.0926
12663W        W16963  12.042   0.644  24.056  0.0675  0.0394  0.1201
12664W        W16964  16.267   0.232  20.326 -0.0028  0.0678 -0.2161
12665W        W16965  20.084   7.351  20.912 -0.2008  0.0485  0.2469
12666W        W16966  24.574   0.404  10.214  0.0170  0.1113  0.2186
12667W        W16967  27.438   0.205   4.587 -0.1054 -0.1415 -0.1339
12668W        W16968  22.293   7.325  23.132 -0.2190  0.1822  0.1688
12669W        W16969  15.294   7.595  18.052  0.0238  0.1773 -0.1495
12670W        W16970   1.519   1.544   5.814  0.1546  0.1386  0.1272
12671W        W16971  14.282   2.828   8.372 -0.0492  0.3808 -0.0707
12672W        W16972  15.207   3.542   9.640 -0.0746 -0.3386 -0.2881
12673W        W16973  23.545   0.881  17.291  0.1160  0.0149  0.2075
12674W        W16974  16.622   2.143  23.677 -0.1113 -0.1928 -0.1141
12675W        W16975  15.485   0.225  23.189  0.6279 -0.2131 -0.0564
12676W        W16976   1.164   5.432   1.685 -0.2153  0.0718 -0.0182
12677W        W16977   6.176   2.541   2.582 -0.2649  0.1592 -0.2228
12678W        W16978  17.857   5.138  23.608 -0.1190  0.1018  0.1497
12679W        W16979  17.619   5.683  15.368 -0.2339  0.1167  0.1853
12680W        W16980   3.329   1.970   1.264 -0.0911 -0.1228  0.0995
12681W        W16981  15.510   0.560   1.897 -0.0100 -0.0354  0.1041
12682W        W16982  30.652   7.163  16.587  0.1854 -0.0851 -0.0909
12683W        W16983   3.052   1.935  16.201  0.6267 -0.3184  0.3556
12684W        W16984   9.596   0.127  25.795  0.0940  0.1592  0.2344
12685W        W16985  14.106   5.076   2.468  0.0861 -0.3520 -0.0567
12686W        W16986  18.281   5.607   5.076 -0.0863 -0.2854 -0.1352
12687W        W16987  23.864   1.241   0.789 -0.0933  0.0382 -0.0695
12688W        W16988  28.892   2.208  15.913  0.1299  0.1974  0.0335
12689W        W16989  28.923   6.587  22.851  0.1817 -0.2280  0.0767
12690W        W16990  25.542   7.558  21.909  0.2605  0.0839 -0.2502
12691W        W16991   7.953   6.993  15.418 -0.0018 -0.3048  0.2102
12692W        W16992  27.125   7.488   6.020  0.0142  0.0674 -0.0179
12693W        W16993  19.094   7.332   1.115  0.1624  0.1576  0.2366
12694W        W16994  28.722   2.692   6.256 -0.0005  0.0950  0.0193
12695W        W16995   4.718   1.558  15.638  0.0940 -0.2147 -0.1238
12696W        W16996   4.231   1.595  19.260 -0.0684 -0.0468  0.0651
12697W        W16997  11.536   3.560   5.639  0.0023  0.0857 -0.2356
12698W        W16998   1.752   1.037  20.449  0.3213  0.0254  0.2549
12699W        W16999   2.123   4.112  23.208  0.1500 -0.2593  0.1589
12700W        W17000  21.536   4.627   3.104  0.0423  0.3712 -0.1420
12701W        W17001  16.612   5.665  25.541 -0.1951  0.0471 -0.2352
12702W        W17002   0.059   5.621   9.674  0.3802 -0.2033 -0.0840
12703W        W17003  26.811   4.662   6.451  0.2288  0.1843 -0.1426
12704W        W17004   6.943   5.200  15.928  0.0782 -0.1273  0.0220
12705W        W17005  17.616   2.887  16.775 -0.0948 -0.1587 -0.1236
12706W        W17006   5.818   7.147   5.774 -0.0678 -0.0204 -0.1032
12707W        W17007  18.895   4.846  16.182  0.0706 -0.3040  0.0519
12708W        W17008  10.001   4.540   4.095  0.0577  0.3228  0.3979
12709W        W17009  25.294   0.851  22.744 -0.0097 -0.0866 -0.0303
12710W        W17010   1.595   1.886   0.850 -0.1600 -0.3888  0.0751
12711W        W17011  21.959   7.242  10.716 -0.0367  0.0599 -0.2852
12712W        W17012  28.264   5.247   0.464  0.1128  0.0151  0.0416
12713W        W17013  20.785   5.123   6.867  0.0904 -0.1541 -0.0895
12714W        W17014  11.263   3.032  18.309 -0.1189 -0.0770  0.0676
12715W        W17015   6.042   2.683   0.251 -0.1412 -0.2215 -0.2687
12716W        W17016   8.547   5.295  18.344  0.0522  0.2243  0.0729
12717W        W17017   3.155   7.054  16.374  0.2444  0.1136 -0.0905
12718W        W17018  26.627   3.242  24.823 -0.0880 -0.2268 -0.0681
12719W        W17019   0.542   3.553  24.616 -0.1959 -0.1787  0.5967
12720W        W17020   5.283   2.745  20.536 -0.3679  0.0840  0.1117
12721W        W17021   4.842   0.072  21.890  0.2833  0.4721  0.0566
12722W        W17022   8.896   5.338  19.256 -0.1225  0.0322 -0.2130
12723W        W17023  17.266   4.696  18.850  0.1340 -0.1190 -0.1595
12724W        W17024   2.009   1.185   6.958 -0.1408 -0.0781 -0.0071
12725W        W17025  25.208   4.751  11.181  0.2041 -0.1014 -0.0360
12726W        W17026  29.422   4.491  15.980  0.4334  0.0554  0.2322
12727W        W17027   2.854   6.133  20.764 -0.0615  0.0640  0.0267
12728W        W17028  22.646   6.746  15.490 -0.0584  0.0867 -0.0867
12729W        W17029  29.584   7.301   5.386 -0.1230  0.2174 -0.0560
12730W        W17030  24.972   1.265  21.591  0.0993 -0.0234 -0.1100
12731W        W17031  12.443   7.335   9.578  0.2732 -0.0797 -0.1019
12732W        W17032  19.538   5.707  10.856 -0.1728 -0.0728 -0.1288
12733W        W17033  24.950   5.371  20.057 -0.2305  0.0517  0.2033
12734W        W17034   6.759   1.523   3.880  0.0026 -0.1614 -0.0126
12735W        W17035  26.496   0.310   9.150  0.0724 -0.2020  0.0019
12736W        W17036  18.471   3.162  16.864  0.0065  0.1874 -0.0704
12737W        W17037   3.209   1.531   1.542 -0.1882  0.1778 -0.0419
12738W        W17038  15.662   4.864  23.916 -0.0137 -0.4160  0.1253
12739W        W17039  23.149   2.918  22.475  0.0733 -0.2557  0.1496
12740W        W17040  30.233   5.647  16.962 -0.1100 -0.2425  0.0445
12741W        W17041   3.476   2.665  16.502  0.0274 -0.1594  0.1124
12742W        W17042  24.979   2.813   9.492  0.0482 -0.0897  0.0246
12743W        W17043  21.527   2.417  18.468  0.0164 -0.0675 -0.0471
12744W        W17044  17.846   5.074  10.493 -0.0062 -0.1167 -0.1140
12745W        W17045  18.106   0.460   5.684  0.0814 -0.3213  0.1067
12746W        W17046   8.428   1.597  14.900  0.2967  0.2598  0.0791
12747W        W17047  18.171   2.630  15.807  0.3666 -0.0180  0.1565
12748W        W17048  29.570   2.545  21.161  0.1205 -0.1105  0.4716
12749W        W17049  30.504   6.825   0.021 -0.1475 -0.1068 -0.0412
12750W        W17050  15.154   5.426   8.988 -0.1987  0.1869 -0.1990
12751W        W17051  29.881   2.091  21.234  0.2131 -0.0551  0.1066
12752W        W17052   4.927   4.021  22.673 -0.0901  0.1640  0.1379
12753W        W17053  17.221   1.673   6.619  0.1709  0.0961  0.2111
12754W        W17054  30.495   2.395   8.810 -0.0368  0.1286  0.0120
12755W        W17055   0.160   3.098   4.695 -0.0099  0.1868 -0.0455
12756W        W17056   5.326   1.029  10.855 -0.2519  0.1910  0.1633
12757W        W17057  10.762   2.113   3.843  0.1193 -0.1642  0.0621
12758W        W17058  17.107   1.457  20.587 -0.2360 -0.2567  0.1441
12759W        W17059  28.514   5.304  16.747 -0.1368  0.0694 -0.1248
12760W        W17060  11.678   0.135  25.324  0.1362 -0.2861 -0.1297
12761W        W17061  13.419   3.281   4.268 -0.1170  0.1132  0.1295
12762W        W17062  13.985   1.313   1.910  0.1084 -0.2889  0.1643
12763W        W17063  11.285   3.934   1.953  0.2255 -0.1787  0.0800
12764W        W17064  21.903   6.584  18.360  0.0786  0.0236  0.1406
12765W        W17065  15.163   7.474   0.930 -0.2160 -0.3268  0.0511
12766W        W17066  12.174   0.261   4.409 -0.1822 -0.0629 -0.2113
12767W        W17067   5.837   3.511  11.866  0.1332  0.2372 -0.1067
12768W        W17068   5.484   0.679   3.161  0.0062  0.1598  0.0230
12769W        W17069   2.808   4.808   8.095  0.0112  0.1620  0.1167
12770W        W17070  30.342   2.944  23.723  0.2648  0.0236  0.1799
12771W        W17071  10.101   4.037  15.921 -0.2975 -0.2046  0.0316
12772W        W17072  25.202   5.243  11.222  0.0287  0.1187  0.0948
12773W        W17073   2.338   6.982  21.778  0.3479  0.2569 -0.1876
12774W        W17074  17.324   6.389  21.970 -0.4478  0.0587 -0.0617
12775W        W17075  11.547   4.603  22.897  0.1556 -0.0042 -0.1419
12776W        W17076   9.190   3.738   5.119  0.1416 -0.1600  0.2355
12777W        W17077   6.063   7.370  26.298  0.2519  0.0111  0.1643
12778W        W17078  29.400   5.012  10.470  0.3958  0.2890  0.1272
12779W        W17079  10.404   2.154   2.394 -0.0776 -0.0578 -0.2927
12780W        W17080  22.742   1.376   8.078 -0.0131  0.3725 -0.2454
12781W        W17081  21.976   0.026   5.733 -0.0258 -0.0625  0.1217
12782W        W17082   8.114   4.045  10.536 -0.2631 -0.0700 -0.3027
12783W        W17083  29.467   2.272  15.179 -0.1353 -0.1790  0.0767
12784W        W17084  14.649   6.392  15.191  0.2967 -0.1587  0.2928
12785W        W17085  18.023   1.904   6.560 -0.0097  0.2184  0.2744
12786W        W17086  15.901   7.274  10.964  0.1732  0.1413 -0.1775
12787W        W17087   3.798   6.222   1.004 -0.1615 -0.3279 -0.0077
12788W        W17088  16.519   2.727   6.937  0.0699 -0.0567  0.1863
12789W        W17089  31.152   2.121  10.552 -0.0478 -0.2666 -0.1549
12790W        W17090  19.701   5.835   6.364  0.1955 -0.0971  0.1184
12791W        W17091  27.883   4.192  24.610  0.2600  0.1252  0.0362
12792W        W17092  30.205   7.651  26.411  0.2587 -0.2283 -0.1606
12793W        W17093   9.098   5.511  16.684  0.1549 -0.1294  0.2683
12794W        W17094  17.045   3.938  18.405  0.1428  0.1189 -0.0338
12795W        W17095  19.310   7.062   9.479  0.1966  0.1628  0.0230
12796W        W17096   4.819   1.281   5.209  0.1562 -0.2021  0.4438
12797W        W17097   1.853   7.232  25.238 -0.1431 -0.0357  0.0737
12798W        W17098  20.177   0.642  21.197  0.2623 -0.1685 -0.1426
12799W        W17099   2.922   7.345  15.742  0.2940  0.2974  0.0044
12800W        W17100  28.270   3.692  25.612 -0.0163 -0.1160 -0.0173
12801W        W17101  16.555   4.628  19.890 -0.1480  0.0166  0.1724
12802W        W17102  16.380   6.979  23.509  0.0544 -0.2173  0.3036
12803W        W17103  24.583   2.979  20.239 -0.0989  0.0312  0.0183
12804W        W17104  26.166   0.749   0.899 -0.2753 -0.2356 -0.1013
12805W        W17105   4.228   5.633  10.732 -0.0026 -0.1300  0.0478
12806W        W17106  16.906   0.983   0.725 -0.1107 -0.1539 -0.1322
12807W        W17107  10.546   1.380  20.612  0.0134  0.0470  0.3327
12808W        W17108  18.833   5.281  16.371 -0.1003 -0.1422  0.0185
12809W        W17109  20.262   0.673   3.858 -0.1505 -0.0648 -0.0105
12810W        W17110   0.612   0.622  11.080 -0.1175 -0.0839  0.1623
12811W        W17111   1.552   0.539  10.105  0.0232  0.1884 -0.2671
12812W        W17112  19.375   0.358  18.216  0.1661 -0.2099 -0.0120
12813W        W17113  10.671   3.805   7.419  0.0087 -0.1245 -0.2128
12814W        W17114  13.983   4.457  10.430 -0.0151  0.0480 -0.1167
12815W        W17115   8.110   2.165   7.784  0.1202 -0.2270  0.1332
12816W        W17116  17.451   3.212   6.301  0.1504 -0.0054  0.0923
12817W        W17117  15.699   0.664   6.032 -0.0199  0.0563 -0.1680
12818W        W17118  25.354   6.836  15.538 -0.0914  0.2073  0.3362
12819W        W17119  10.120   7.103  25.559  0.0094  0.1716  0.0263
12820W        W17120  10.993   7.485   2.035 -0.1999  0.0906 -0.0925
12821W        W17121  10.807   0.633   8.372  0.1193 -0.1191 -0.4511
12822W        W17122  15.895   7.581   2.462 -0.2880  0.0196 -0.1610
12823W        W17123   1.618   5.246  10.256 -0.0366  0.1576  0.0478
12824W        W17124   2.994   3.849  15.864 -0.0306  0.0465 -0.0231
12825W        W17125  25.517   7.237  22.287  0.3549  0.1166  0.0686
12826W        W17126  26.073   6.877  26.327 -0.1760 -0.0321  0.1889
12827W        W17127  30.695   0.349  19.707 -0.2577  0.1531  0.0458
12828W        W17128  30.403   5.801   0.624  0.3422  0.2923 -0.1582
12829W        W17129   0.713   2.620   2.921  0.2693 -0.1023  0.2686
12830W        W17130  23.476   3.711  24.163 -0.1390 -0.2993 -0.4015
12831W        W17131  25.762   5.682  12.136 -0.0974  0.1914 -0.0603
12832W        W17132   9.678   6.623  24.122  0.1089 -0.0696 -0.2181
12833W        W17133   5.396   4.733   4.715 -0.1508 -0.1691  0.0380
12834W        W17134  25.122   5.978   5.241 -0.1961  0.0460 -0.0086
12835W        W17135   4.856   0.235  23.983  0.0356 -0.2579  0.0636
12836W        W17136  28.030   4.996  22.606  0.0085 -0.1466 -0.0258
12837W        W17137   4.670   2.580   8.870  0.1144  0.0433 -0.2818
12838W        W17138  16.879   3.886   8.854 -0.0329  0.1606 -0.1301
12839W        W17139  29.021   6.379  25.451 -0.0288  0.2488  0.0094
12840W        W17140  31.122   3.543   2.904  0.0562  0.1041  0.1862
12841W        W17141  22.546   4.976  23.042 -0.2584  0.0077  0.1913
12842W        W17142  11.028   7.560   0.669  0.3531  0.0501 -0.1568
12843W        W17143   6.764   6.008  24.218  0.0827  0.0013  0.0792
12844W        W17144   5.195   5.004  11.562  0.0742  0.4684  0.2199
12845W        W17145  31.131   6.887   2.091 -0.1464  0.0908  0.2383
12846W        W17146   3.839   1.241  16.832 -0.0851 -0.1252  0.1934
12847W        W17147  12.000   0.791  21.704 -0.1279  0.0278  0.1189
12848W        W17148  17.287   4.456  23.503  0.0370  0.2535  0.1662
12849W        W17149  30.223   5.947   9.050 -0.1679  0.1011 -0.0337
12850W        W17150  20.200   0.224  10.743 -0.1875  0.3683  0.0047
12851W        W17151   2.257   1.647  19.689  0.1270 -0.0439  0.2282
12852W        W17152  22.759   5.764  21.335 -0.1590  0.1296  0.2254
12853W        W17153  19.073   4.363  25.920  0.3220  0.6509 -0.3079
12854W        W17154  10.015   6.588  17.837 -0.0529 -0.0870  0.2191
12855W        W17155  20.230   1.580   2.330 -0.0390  0.1567 -0.0414
12856W        W17156  14.558   3.768  10.874  0.2833 -0.2404 -0.2649
12857W        W17157   9.196   2.524  22.308 -0.1594  0.0352  0.1359
12858W        W17158   4.166   7.189   7.326  0.0840  0.1804  0.4760
12859W        W17159  29.987   5.253  16.301 -0.1464  0.3018  0.1761
12860W        W17160   3.839   3.635  15.683 -0.2181  0.3894 -0.0097
12861W        W17161  19.248   2.009  16.639  0.0846  0.2250 -0.0632
12862W        W17162  24.875   0.747   0.471  0.0705  0.3151  0.0213
12863W        W17163  23.168   1.161  25.753 -0.0717  0.2261  0.3260
12864W        W17164  18.975   5.928  21.184 -0.4463 -0.1615  0.0743
12865W        W17165  11.462   3.186  17.397 -0.3344  0.0446  0.0149
12866W        W17166  30.238   2.238   6.838 -0.1542  0.0632 -0.1143
12867W        W17167  22.801   6.004   4.081 -0.1298  0.2247 -0.1078
12868W        W17168   9.415   7.211   4.710 -0.0000 -0.1103  0.3821
12869W        W17169   6.945   3.975  20.386 -0.0265 -0.3192 -0.2878
12870W        W17170  13.781   5.430   4.208  0.1872 -0.2656 -0.3783
12871W        W17171   5.217   2.328  20.192  0.1925  0.1804  0.2737
12872W        W17172   9.655   4.150   7.090  0.0586 -0.1465  0.1990
12873W        W17173  21.033   0.619   3.392  0.2262  0.1501  0.1465
12874W        W17174   2.988   0.721  21.423 -0.0577 -0.3453 -0.1743
12875W        W17175  26.122   3.371   6.802 -0.0179 -0.2600 -0.1735
12876W        W17176  10.156   2.036   5.220 -0.0745  0.1115 -0.0036
12877W        W17177  16.535   5.257  21.070  0.1808 -0.1991  0.1239
12878W        W17178  14.345   7.405  25.919  0.0935 -0.0472  0.1127
12879W        W17179  29.432   5.848   3.706 -0.0755  0.4163  0.2164
12880W        W17180  28.474   4.728  24.776 -0.1303 -0.1933  0.1412
12881W        W17181  28.763   0.648   4.087 -0.2013 -0.0028 -0.0281
12882W        W17182   4.034   7.268  18.952  0.2251 -0.2174 -0.2497
12883W        W17183  11.018   5.774  25.781  0.2381 -0.2865  0.2044
12884W        W17184  18.783   2.715   0.256  0.4994 -0.0333  0.0287
12885W        W17185  30.709   0.814   8.966  0.0620 -0.2617 -0.0167
12886W        W17186  10.089   4.051   1.356  0.0538  0.0144  0.1350
12887W        W17187  16.680   1.570  24.238 -0.0296 -0.0070  0.0198
12888W        W17188  21.654   5.777   9.370 -0.2658 -0.0633 -0.0416
12889W        W17189   4.990   1.148   8.474  0.0309 -0.1379  0.2344
12890W        W17190  11.862   3.846  17.893 -0.2116  0.2482 -0.2450
12891W        W17191  30.403   0.630  17.221  0.1993  0.1906  0.0652
12892W        W17192   6.526   2.806   6.014  0.0177  0.1999 -0.0720
12893W        W17193   3.817   2.447   1.057  0.1714  0.2186 -0.2149
12894W        W17194  20.028   5.255  18.376 -0.0196  0.3672 -0.0333
12895W        W17195   1.159   5.254  18.693  0.0907  0.1294 -0.0623
12896W        W17196  16.051   7.542  20.294 -0.3068 -0.0655 -0.0095
12897W        W17197  13.883   6.067   0.673 -0.2414 -0.0160 -0.1501
12898W        W17198  14.139   4.339  15.087 -0.3096 -0.1750 -0.1580
12899W        W17199  27.822   7.616  16.435 -0.0173  0.3034  0.2278
12900W        W17200  12.873   2.261   7.034  0.3511  0.4196  0.0862
12901W        W17201   0.347   4.662   4.270 -0.1848  0.2210 -0.2131
12902W        W17202  13.957   5.350   1.850  0.0012 -0.2751 -0.0326
12903W        W17203  24.772   2.062  24.567  0.1561  0.3017 -0.0842
12904W        W17204  30.698   1.758   6.638 -0.0435 -0.1891 -0.0033
12905W        W17205  12.614   2.297  16.161  0.3922  0.0651 -0.0089
12906W        W17206   4.578   5.416   6.839 -0.2465  0.1744 -0.1287
12907W        W17207  27.636   2.896   5.800 -0.2135 -0.2704 -0.1904
12908W        W17208  13.391   5.618  21.327 -0.1494 -0.0234  0.2338
12909W        W17209   8.163   3.540   7.669  0.0494 -0.2558  0.2538
12910W        W17210  13.090   7.234  17.871  0.0735  0.0878 -0.4458
12911W        W17211   7.726   0.570   9.232 -0.2827 -0.0709 -0.0219
12912W        W17212   0.440   1.441  10.338  0.0969  0.3796 -0.1614
12913W        W17213  25.959   4.470   0.463 -0.5164  0.3583 -0.1547
12914W        W17214   0.330   1.464   0.438  0.3626 -0.0161 -0.1083
12915W        W17215   2.490   5.591  15.834  0.0095 -0.3010  0.0817
12916W        W17216   2.689   0.493  24.770  0.0323  0.0284  0.1526
12917W        W17217  30.940   4.827   8.041  0.1073 -0.1863  0.1447
12918W        W17218   6.699   5.144   1.006  0.1888  0.1636  0.1791
12919W        W17219  15.144   6.330  10.917 -0.0502  0.2787  0.1487
12920W        W17220  19.862   1.777  20.110  0.0613  0.0215  0.1448
12921W        W17221   7.559   5.486   3.961 -0.0329 -0.1101 -0.1008
12922W        W17222  24.540   1.628   7.491  0.0282  0.4392 -0.1987
12923W        W17223  15.304   4.678  22.245 -0.0894 -0.1150 -0.2347
12924W        W17224  10.776   1.720  20.355 -0.0289 -0.0612  0.2557
12925W        W17225  22.547   2.752  24.124 -0.0630 -0.0406  0.0043
12926W        W17226  17.539   1.430  16.836 -0.2472 -0.0130  0.2654
12927W        W17227  14.967   0.044   7.634  0.1808 -0.2009  0.0474
12928W        W17228   6.384   4.314  24.446 -0.0282 -0.1211 -0.3848
12929W        W17229  12.570   5.551  17.838  0.1909  0.0701 -0.2986
12930W        W17230  28.728   7.178   3.658  0.2151 -0.0893  0.1611
12931W        W17231  27.251   4.447   5.693 -0.2064  0.1535  0.2887
12932W        W17232  17.316   1.880  16.750 -0.1566 -0.0186 -0.0395
12933W        W17233   1.366   4.951   4.263 -0.0189  0.2684  0.1699
12934W        W17234  10.904   0.948   4.494 -0.1851 -0.0362 -0.0693
12935W        W17235  23.926   1.801   7.177 -0.0422  0.0430  0.0001
12936W        W17236   3.582   6.835   3.996  0.2309 -0.0493  0.1642
12937W        W17237   4.793   0.761  19.107  0.1432 -0.1583 -0.1910
12938W        W17238  12.120   0.278  21.791 -0.1446 -0.2908  0.1362
12939W        W17239  25.927   3.740  10.565  0.1360 -0.2784 -0.0739
12940W        W17240  13.021   1.241   0.824 -0.1540  0.0971  0.0715
12941W        W17241   3.547   6.763  15.547  0.1574 -0.2400  0.0636
12942W        W17242   8.419   2.751   2.940 -0.0553 -0.2652  0.1583
12943W        W17243  13.372   3.062   5.279  0.0061 -0.2651  0.1208
12944W        W17244   9.144   7.691   2.376  0.1769 -0.0412 -0.2774
12945W        W17245   2.351   2.975   8.150 -0.2634  0.0934  0.0597
12946W        W17246   4.814   7.626   1.094 -0.1726 -0.0207  0.0610
12947W        W17247   0.892   6.857   1.613 -0.1740 -0.1276  0.0600
12948W        W17248   2.042   1.671  24.077 -0.1514  0.2648  0.1667
12949W        W17249  24.083   2.896  23.817  0.2754 -0.0200  0.3294
12950W        W17250  25.173   7.103   5.405 -0.0425  0.1737  0.0045
12951W        W17251   8.781   6.250   9.279  0.0680  0.0613  0.0723
12952W        W17252  22.662   5.344  21.059  0.1736 -0.0348  0.0647
12953W        W17253  23.567   0.732  10.118 -0.1249 -0.0759  0.0535
12954W        W17254   3.242   4.482  17.864  0.1116 -0.2591  0.0550
12955W        W17255   2.152   3.029  18.398  0.1783 -0.0840 -0.1692
12956W        W17256  11.818   5.367  23.396  0.0715 -0.4147 -0.4849
12957W        W17257  15.610   4.913  17.144 -0.2125 -0.2084  0.0924
12958W        W17258  25.711   4.469   2.247 -0.1360  0.1789  0.2912
12959W        W17259   6.348   0.859  25.027  0.0822 -0.1999 -0.1877
12960W        W17260  26.757   2.789  20.449 -0.1822  0.0652 -0.6154
12961W        W17261  27.769   4.987  24.369  0.0040 -0.1314 -0.0194
12962W        W17262  17.941   1.626  16.480 -0.1061 -0.0147 -0.0402
12963W        W17263   3.175   2.731  18.234 -0.2585 -0.0615 -0.0326
12964W        W17264  24.047   3.882  19.676  0.0478  0.0383  0.1687
12965W        W17265  26.734   0.295  22.258  0.0500  0.0270 -0.1371
12966W        W17266   6.794   0.476   8.971 -0.5146 -0.1893 -0.1113
12967W        W17267  30.143   0.611  16.731  0.3362 -0.1136  0.3185
12968W        W17268  16.393   1.011  19.031 -0.0693  0.3542 -0.0780
12969W        W17269   0.780   6.013  20.250  0.0146 -0.0970 -0.0863
12970W        W17270  20.244   6.006  10.074  0.0691  0.1224 -0.0028
12971W        W17271   8.660   4.092  25.416  0.1235 -0.0417 -0.2762
12972W        W17272   8.743   4.608   5.612 -0.0246  0.0587 -0.0770
12973W        W17273  25.348   6.026  25.410  0.2025  0.0126  0.5367
12974W        W17274   1.519   2.655   4.574 -0.2392 -0.0742 -0.4186
12975W        W17275  20.045   1.507  20.510  0.1875 -0.0199  0.0226
12976W        W17276  27.196   0.746   0.804  0.0620  0.1446 -0.0511
12977W        W17277  18.339   0.214  22.506 -0.0434 -0.1005  0.2041
12978W        W17278  14.455   0.654   7.661  0.0642  0.0465 -0.0201
12979W        W17279   8.991   1.976  19.456 -0.0662 -0.0135 -0.2678
12980W        W17280   3.786   4.243  10.642  0.2783 -0.2778  0.1382
12981W        W17281   1.202   5.373   0.706 -0.1839 -0.3145  0.2362
12982W        W17282   0.840   3.727   1.174 -0.1820  0.2057  0.0379
12983W        W17283  13.470   2.647   4.241  0.1285 -0.0303 -0.2149
12984W        W17284   6.841   2.220  22.599  0.3040 -0.2604 -0.2768
12985W        W17285  21.614   0.437   7.763  0.0627  0.0689  0.0989
12986W        W17286  30.663   0.940  23.685  0.1463  0.0437 -0.0166
12987W        W17287  24.843   4.366  17.776 -0.0926  0.1980 -0.0519
12988W        W17288  16.474   1.622  26.186 -0.0325  0.0265 -0.1453
12989W        W17289   1.936   1.800   4.273 -0.0984 -0.0494  0.0802
12990W        W17290  30.821   6.591   4.728  0.0410  0.2189  0.2277
12991W        W17291  19.245   5.331   7.786 -0.1066  0.1818  0.1006
12992W        W17292  27.014   0.318  26.162 -0.0782 -0.2104  0.0275
12993W        W17293  28.961   7.415  10.851 -0.0821 -0.0024 -0.1819
12994W        W17294  10.197   7.168   3.876  0.1061 -0.1824  0.1480
12995W        W17295  29.112   4.455   9.161 -0.1382  0.2235 -0.0188
12996W        W17296   4.616   6.928   7.488  0.2588  0.2379 -0.3022
12997W        W17297   1.562   5.500  24.197 -0.0425 -0.1301 -0.2198
12998W        W17298   3.716   4.943   7.798  0.1039  0.1798  0.0815
12999W        W17299  10.570   6.836  24.156 -0.0662  0.0457 -0.0820
13000W        W17300  12.455   7.080  17.968  0.1002  0.1682  0.2087
13001W        W17301   6.674   7.432   3.159  0.1993 -0.1541 -0.0867
13002W        W17302  13.832   7.723   8.998 -0.2448  0.0248  0.0447
13003W        W17303  22.983   3.251  26.424 -0.2323  0.0159  0.1976
13004W        W17304  10.095   2.602  21.032 -0.0468  0.1970 -0.4554
13005W        W17305   6.314   5.674  16.052 -0.1527  0.2168  0.2477
13006W        W17306  30.918   3.715   5.319 -0.1421  0.0472 -0.2202
13007W        W17307  18.585   4.022  22.549 -0.0709  0.1682  0.3541
13008W        W17308  20.837   4.114   3.008  0.1694  0.0436  0.0867
13009W        W17309  26.515   4.216  18.218  0.1409 -0.0682  0.1656
13010W        W17310  11.921   1.045   6.817 -0.0195 -0.0121  0.2005
13011W        W17311  14.435   3.058  15.748  0.1273  0.1519 -0.1765
13012W        W17312  30.078   7.213   2.874 -0.3805  0.0219  0.3372
13013W        W17313   5.706   1.399  23.828 -0.0381  0.1728 -0.1589
13014W        W17314   7.146   4.353   4.083  0.1710  0.0542  0.1695
13015W        W17315  21.824   3.070   1.872  0.2237 -0.1985 -0.2256
13016W        W17316  25.145   0.968   6.149  0.2211 -0.0058  0.2468
13017W        W17317   2.004   0.051   9.171  0.2696 -0.2566 -0.0706
13018W        W17318  26.526   0.980   9.899 -0.2208 -0.0315  0.3001
13019W        W17319  31.119   2.868  24.959 -0.1777 -0.0820 -0.1052
13020W        W17320   0.568   0.831   7.215  0.0308  0.0580  0.0172
13021W        W17321  18.833   6.444  17.417 -0.3282 -0.2107 -0.1742
13022W        W17322  15.383   2.416   5.897  0.1204  0.0675 -0.0023
13023W        W17323   4.096   3.197  15.543 -0.0005 -0.1907  0.3556
13024W        W17324  29.790   4.093  24.826 -0.1066  0.1251 -0.1646
13025W        W17325  29.640   7.129   3.696 -0.1947 -0.0754  0.2116
13026W        W17326   6.692   5.859   2.520  0.2049 -0.2320  0.1197
13027W        W17327  23.243   5.932   5.455 -0.1163  0.0874 -0.3006
13028W        W17328  29.074   0.417  25.281  0.0828  0.0346  0.0922
13029W        W17329   4.993   3.075  10.145 -0.0134 -0.5148 -0.1611
13030W        W17330  25.565   1.225   3.086 -0.1345 -0.3234 -0.0673
13031W        W17331  19.209   7.018   1.490 -0.0108  0.1616  0.2779
13032W        W17332  16.655   3.988   0.623  0.0459  0.1563 -0.0315
13033W        W17333  12.926   1.648   3.260  0.2489  0.1731  0.1159
13034W        W17334  13.150   5.044  17.262 -0.0744 -0.0334  0.1125
13035W        W17335  26.387   7.579   0.847  0.1940  0.4155  0.2761
13036W        W17336  18.040   6.391  20.008 -0.3340  0.3657  0.2994
13037W        W17337  17.552   7.660  16.514  0.0148  0.0267  0.2297
13038W        W17338   5.875   3.595  16.738 -0.1988 -0.0425  0.1021
13039W        W17339  14.242   6.460  25.638  0.1905  0.0847  0.0271
13040W        W17340   6.569   7.371  26.340 -0.0536 -0.1026 -0.0869
13041W        W17341  13.260   6.433  25.705 -0.1041  0.2340  0.0779
13042W        W17342  29.872   3.420  19.637 -0.1219 -0.0255  0.1277
13043W        W17343   9.373   1.748  19.893  0.3261  0.0743  0.0528
13044W        W17344  12.986   0.075   5.448 -0.1185 -0.1559 -0.0274
13045W        W17345  12.639   6.425  15.791 -0.2589 -0.2144 -0.1249
13046W        W17346  24.478   4.082   2.333  0.1041  0.1561  0.0939
13047W        W17347   0.568   3.088  24.442  0.1605  0.0515  0.1023
13048W        W17348  20.330   4.049   4.920  0.0197  0.0307 -0.0146
13049W        W17349   6.413   3.327  25.302 -0.3637  0.2543  0.1069
13050W        W17350  20.164   3.355  21.217 -0.0995  0.0011 -0.0867
13051W        W17351  24.819   5.369  24.561  0.0187  0.0090  0.1455
13052W        W17352  12.819   1.008  15.647  0.2378  0.0443 -0.0877
13053W        W17353   0.201   4.409  24.378 -0.1245 -0.1775  0.1237
13054W        W17354  14.240   5.007   7.274  0.2328  0.2011  0.0539
13055W        W17355   0.341   2.183  10.125  0.5408 -0.1195  0.0762
13056W        W17356   5.987   2.607   5.378 -0.0870 -0.0581  0.1524
13057W        W17357  25.485   5.494  19.203 -0.0872  0.2468  0.2144
13058W        W17358  17.019   1.173   8.332 -0.0814 -0.1376 -0.1431
13059W        W17359   3.585   7.279   1.389  0.0245 -0.0941  0.3025
13060W        W17360   0.071   0.062   9.123 -0.0799 -0.0737 -0.0028
13061W        W17361  22.186   6.502   0.067 -0.1889 -0.0330  0.0374
13062W        W17362   8.134   3.048   3.786  0.2694  0.1477 -0.2251
13063W        W17363  14.244   1.975   4.084 -0.0885 -0.0304 -0.0270
13064W        W17364  18.845   4.995  10.746  0.0359 -0.0806 -0.4362
13065W        W17365   3.835   2.980   9.855 -0.1071  0.1526  0.0387
13066W        W17366   1.722   4.529  17.740 -0.1869 -0.1750  0.0096
13067W        W17367  25.067   0.364  23.516  0.1500 -0.0534  0.0118
13068W        W17368  20.204   3.558   4.971 -0.3822  0.0682  0.0322
13069W        W17369   1.132   7.619   7.964 -0.0457 -0.0458  0.0131
13070W        W17370  12.549   6.554   4.374  0.0194  0.0654 -0.0979
13071W        W17371   9.592   1.806   1.570  0.1760 -0.0888  0.0045
13072W        W17372   8.076   4.360  26.408  0.2471 -0.2893  0.1669
13073W        W17373  30.358   2.442  23.800 -0.0344 -0.3819  0.2307
13074W        W17374   3.431   6.002   2.126  0.2112 -0.2047 -0.3381
13075W        W17375  11.195   1.158   6.319  0.1838 -0.0076  0.1578
13076W        W17376  22.366   7.415   5.162 -0.1201 -0.2329 -0.1439
13077W        W17377  19.105   5.543  16.018  0.2187 -0.1769  0.1896
13078W        W17378   0.420   2.502  24.138  0.2038 -0.1526  0.1546
13079W        W17379  11.314   5.806   3.969  0.2587 -0.1400  0.2629
13080W        W17380  14.225   5.196  22.708  0.1207 -0.1351  0.2344
13081W        W17381   3.724   5.959   4.899 -0.2296  0.2627 -0.0290
13082W        W17382  16.328   5.739  24.594  0.2508 -0.1648 -0.1693
13083W        W17383  11.162   3.454   3.593  0.0716 -0.0545  0.3785
13084W        W17384  16.521   6.177   6.452 -0.0264 -0.0099 -0.1075
13085W        W17385   4.101   2.655  17.359 -0.0504  0.0759  0.0578
13086W        W17386  25.422   1.440   8.801  0.0240  0.4056  0.0082
13087W        W17387  27.262   4.274   3.419  0.1066  0.0154  0.1000
13088W        W17388  29.384   6.731  25.282 -0.2341  0.3170 -0.0208
13089W        W17389   7.417   5.806   1.973  0.0272  0.0814  0.0254
13090W        W17390  28.954   6.020  17.517 -0.0565 -0.0019 -0.0890
13091W        W17391  21.490   0.504  25.566  0.0550  0.1049  0.0866
13092W        W17392   5.472   4.016   3.299 -0.0473 -0.3090  0.0460
13093W        W17393   8.302   1.247  21.011 -0.0643  0.4446 -0.0374
13094W        W17394   9.565   1.277   1.332  0.4140 -0.1956 -0.0369
13095W        W17395  19.451   6.824   7.347 -0.1907  0.1993  0.1236
13096W        W17396  15.052   4.988  25.573  0.0206  0.0672  0.1474
13097W        W17397  16.995   7.064   9.176  0.0154  0.2264  0.4694
13098W        W17398   9.716   0.655  25.940  0.1046 -0.1467 -0.2265
13099W        W17399  11.758   0.528  17.128 -0.0493 -0.2849  0.0781
13100W        W17400  28.388   3.763  18.534  0.0662 -0.1363 -0.2164
13101W        W17401  29.188   1.138  23.090 -0.0431 -0.0150 -0.0208
13102W        W17402   1.082   1.243   8.366 -0.3702  0.0495  0.2668
13103W        W17403   1.413   6.561  25.943 -0.0256  0.3220  0.0844
13104W        W17404  13.871   7.393   2.943 -0.2598 -0.0674 -0.1367
13105W        W17405   9.927   2.198  15.861 -0.1923 -0.0915  0.0277
13106W        W17406  25.720   1.333   1.194 -0.3772 -0.1119 -0.0065
13107W        W17407   1.273   7.383   4.128 -0.2790  0.3362  0.0670
13108W        W17408   6.411   6.735   6.360  0.2016  0.1926  0.0329
13109W        W17409   9.858   1.816  18.919 -0.0686  0.1008 -0.2040
13110W        W17410  28.941   4.791  16.024  0.2722  0.0668  0.0343
13111W        W17411  13.345   3.632  20.022 -0.0585 -0.0475 -0.0106
13112W        W17412  25.577   0.571  21.797  0.1247 -0.2311  0.1083
13113W        W17413   1.897   0.146   5.505  0.0255 -0.0895  0.1078
13114W        W17414   5.240   2.219  23.690 -0.2096 -0.3970 -0.0901
13115W        W17415  30.734   2.009  16.353 -0.0873 -0.1737 -0.2143
13116W        W17416  30.998   7.480  22.103  0.0130 -0.0422 -0.1111
13117W        W17417  26.321   6.322   0.268  0.0030  0.0993 -0.0788
13118W        W17418  28.670   0.895  15.731 -0.2208  0.2082  0.1804
13119W        W17419  26.431   7.283  26.425  0.1077  0.3505 -0.0417
13120W        W17420  26.217   6.386   0.743  0.0875 -0.0698  0.0810
13121W        W17421  26.296   2.945  25.777 -0.0672 -0.3452 -0.2244
13122W        W17422   7.671   1.469  23.457  0.1469 -0.0063  0.0249
13123W        W17423  15.968   7.189  10.475 -0.0897  0.0029 -0.1956
13124W        W17424   1.726   1.333  19.171 -0.3364  0.2908 -0.0094
13125W        W17425   3.590   4.146   9.838 -0.0660  0.0228  0.2470
13126W        W17426  23.658   3.231  22.546  0.0000  0.1523  0.0971
13127W        W17427  14.658   5.437  22.957 -0.0034  0.1177 -0.2139
13128W        W17428  13.850   6.562   6.620  0.0380  0.0022  0.1643
13129W        W17429  26.342   6.058  19.910  0.0667 -0.1460 -0.0192
13130W        W17430   1.941   2.812   3.770  0.1885 -0.0828 -0.1171
13131W        W17431   4.817   3.569   4.923  0.4222  0.0476 -0.1436
13132W        W17432   2.470   1.030  16.029 -0.2583  0.1539 -0.2019
13133W        W17433  19.263   5.149   0.665  0.0962 -0.0615  0.0295
13134W        W17434  15.744   0.708  10.477  0.0617  0.3092  0.0113
13135W        W17435  14.579   6.458   5.022  0.0350 -0.1259 -0.1213
13136W        W17436   2.095   4.358  10.436  0.2840 -0.0714 -0.0623
13137W        W17437   1.062   1.378  16.883 -0.1285  0.0224 -0.0824
13138W        W17438  21.270   2.319  19.093 -0.2216  0.0633  0.1861
13139W        W17439  27.990   2.337   1.704  0.0205  0.1298 -0.0316
13140W        W17440  19.688   2.266  16.625  0.0552  0.2333  0.0066
13141W        W17441   8.868   2.996  18.485 -0.3901 -0.2514 -0.2131
13142W        W17442  28.951   2.200  22.718  0.0072 -0.0763 -0.0147
13143W        W17443  23.017   4.263  26.312 -0.3259 -0.0911 -0.0299
13144W        W17444  17.596   1.797  18.749 -0.2903  0.0294  0.0023
13145W        W17445  28.766   3.414   2.092 -0.5154 -0.0427 -0.0286
13146W        W17446  17.870   1.892  19.575  0.0381  0.1793 -0.0177
13147W        W17447  12.045   7.200  19.094  0.2219 -0.1205  0.2601
13148W        W17448  21.492   4.610  24.850 -0.0518  0.0406 -0.1821
13149W        W17449   0.769   2.274   4.690 -0.1140  0.2117 -0.0463
13150W        W17450  22.490   1.028   0.366  0.2743  0.1140 -0.3098
13151W        W17451   5.960   7.613  17.379 -0.1135  0.2067 -0.0610
13152W        W17452  31.199   2.280  22.220  0.0262 -0.0879 -0.0552
13153W        W17453  22.499   1.118   8.601 -0.1862 -0.2342  0.0893
13154W        W17454  14.685   3.003   7.583 -0.2116 -0.0939 -0.0013
13155W        W17455  15.415   5.307  25.904  0.2609  0.0183 -0.1791
13156W        W17456   4.729   7.764   4.932 -0.2571 -0.2084 -0.0556
13157W        W17457   2.638   2.557   6.495  0.1152 -0.4218  0.3031
13158W        W17458  21.952   7.719  15.941 -0.0437 -0.0537  0.0521
13159W        W17459  17.675   1.895   0.296  0.0633 -0.1725  0.1219
13160W        W17460  21.314   2.390  19.816 -0.0088 -0.0534  0.0863
13161W        W17461  11.385   0.078   6.187  0.0966 -0.0468  0.0223
13162W        W17462  22.466   7.112  21.394 -0.0638  0.2979  0.2049
13163W        W17463  21.093   6.921   9.884  0.0154  0.0235  0.0448
13164W        W17464  14.821   3.302   6.807  0.3499 -0.0528  0.0257
13165W        W17465  14.416   6.902   8.809 -0.1099 -0.1762  0.1038
13166W        W17466  29.972   3.233   1.329  0.0027 -0.1488 -0.0940
13167W        W17467  15.906   5.868   0.985 -0.1907  0.0994 -0.2343
13168W        W17468   6.791   1.314   6.698  0.0503  0.0848  0.0091
13169W        W17469   7.279   1.930  23.932 -0.0298 -0.0041 -0.3624
13170W        W17470  22.126   2.096  18.045  0.0596  0.1120  0.3456
13171W        W17471   1.053   3.551  15.726 -0.0353  0.0642  0.3167
13172W        W17472  17.775   2.308   6.428 -0.0437  0.1572 -0.0947
13173W        W17473  10.766   1.697   5.086 -0.1515  0.2298 -0.2008
13174W        W17474   1.867   3.255  16.785  0.1033 -0.1191 -0.2079
13175W        W17475  25.550   7.159  10.366  0.0836 -0.1392 -0.0315
13176W        W17476   8.788   3.586  19.818  0.1400 -0.0419  0.2491
13177W        W17477  23.438   6.059   1.726  0.1602  0.0255 -0.0924
13178W        W17478  29.391   6.336  25.842  0.0867  0.0188 -0.0868
13179W        W17479  28.626   4.405  10.431 -0.1094  0.0133  0.0849
13180W        W17480  10.368   2.830  16.834 -0.4685 -0.0524 -0.0635
13181W        W17481  29.313   1.415  22.327 -0.1457 -0.2960  0.0756
13182W        W17482   1.948   4.639  10.899 -0.0199  0.0208  0.1830
13183W        W17483  26.743   2.421  14.878 -0.0306  0.0791  0.1737
13184W        W17484  27.536   1.649  21.133  0.1959 -0.2609  0.1272
13185W        W17485   3.940   5.667  21.886  0.1356 -0.3971  0.0406
13186W        W17486  28.963   7.086  23.006  0.2054 -0.0415 -0.1149
13187W        W17487  27.426   1.006   4.197  0.0633 -0.2263 -0.0872
13188W        W17488  22.117   6.772   4.703  0.0753  0.2579  0.0259
13189W        W17489   9.116   4.629   1.645 -0.2055 -0.2917  0.1037
13190W        W17490  29.568   6.335   8.136  0.1935  0.1585 -0.0445
13191W        W17491  25.838   6.067  21.298 -0.2382  0.0946 -0.4216
13192W        W17492  18.418   0.082  11.458 -0.0440  0.0470  0.0954
13193W        W17493  24.848   4.825  21.228 -0.0866 -0.2764  0.0962
13194W        W17494  20.322   6.649   1.426  0.1765  0.0881 -0.1916
13195W        W17495  18.835   6.538  25.913  0.0603 -0.0143 -0.0867
13196W        W17496   5.093   1.492  19.863 -0.1733  0.1976  0.0474
13197W        W17497  21.367   3.581  26.327  0.2151  0.0916  0.0743
13198W        W17498  21.313   4.478  16.693  0.3396 -0.1689 -0.1753
13199W        W17499  30.531   3.243  21.772  0.1402 -0.0484  0.3000
13200W        W17500  19.553   4.013   9.567 -0.1273 -0.2268 -0.1142
13201W        W17501  12.344   2.381   1.505  0.0488 -0.0308 -0.2424
13202W        W17502  28.553   6.939  15.601 -0.0472 -0.0356  0.2025
13203W        W17503  30.449   0.474   2.047  0.0148  0.0148  0.0902
13204W        W17504  23.515   7.668   8.620 -0.1994  0.1480 -0.2027
13205W        W17505  17.317   1.151   3.212  0.1874 -0.1374  0.2414
13206W        W17506  31.190   4.757  17.493 -0.1054  0.2558 -0.0613
13207W        W17507  27.417   0.203  10.485 -0.1458 -0.0884 -0.4496
13208W        W17508  26.083   0.264  16.206 -0.1769 -0.0946 -0.3614
13209W        W17509  13.832   5.772  25.204 -0.1538  0.1446  0.4774
13210W        W17510  13.777   0.860  25.510  0.1461 -0.2012  0.0533
13211W        W17511  30.012   0.043  22.319 -0.2408 -0.1853 -0.0489
13212W        W17512  11.216   1.980  15.421 -0.2665 -0.0765 -0.1194
13213W        W17513  17.923   5.173  24.983  0.0388  0.1468  0.1908
13214W        W17514  14.302   7.475   1.223  0.1045  0.1244  0.3568
13215W        W17515  10.878   0.605  23.045 -0.5713  0.3403  0.1529
13216W        W17516   4.109   7.498  24.213 -0.1347  0.1370  0.0327
13217W        W17517   4.374   1.117  19.304 -0.0662  0.2464  0.0472
13218W        W17518  29.299   3.131  17.159  0.0976 -0.3006 -0.0647
13219W        W17519  16.892   0.927  16.431  0.0781  0.2245 -0.0208
13220W        W17520  11.869   6.001   0.427  0.2870  0.0203  0.0815
13221W        W17521   9.069   7.421   1.906  0.2151  0.2119 -0.2411
13222W        W17522  25.648   6.674   3.419 -0.1709  0.0184  0.1920
13223W        W17523  23.263   0.857  16.755  0.2926 -0.0523 -0.1501
13224W        W17524  19.865   3.314  16.426 -0.1144  0.0163 -0.1206
13225W        W17525   3.172   5.164  25.495  0.2352  0.0369 -0.1156
13226W        W17526  23.855   0.049  24.705 -0.3284 -0.1401  0.3132
13227W        W17527  26.485   4.782  19.524  0.0824  0.1970 -0.0533
13228W        W17528  11.804   0.916  25.884 -0.1068 -0.0219 -0.0958
13229W        W17529   1.703   2.105  11.163 -0.1105 -0.1352 -0.1914
13230W        W17530  10.895   5.020   8.312  0.2182 -0.0205  0.4205
13231W        W17531  13.079   6.605   6.380  0.1004 -0.0859  0.3250
13232W        W17532  17.913   0.205   0.221  0.0253 -0.1067 -0.2413
13233W        W17533   0.372   7.601   3.641 -0.1550  0.0991 -0.3576
13234W        W17534  16.278   0.237   1.418  0.1224  0.4450 -0.1962
13235W        W17535  14.106   3.349  17.625 -0.2580 -0.2662  0.1148
13236W        W17536   8.523   5.054  17.423 -0.2377 -0.1606  0.2107
13237W        W17537  24.471   4.504   2.006 -0.1101  0.1604 -0.0511
13238W        W17538  27.296   2.996   0.630  0.3136  0.2279  0.1087
13239W        W17539  14.066   7.128   2.484  0.1914 -0.3347  0.0030
13240W        W17540  29.452   5.734  18.649  0.2578 -0.2526 -0.1907
13241W        W17541   0.210   5.304   9.190  0.0689  0.1170 -0.1102
13242W        W17542  16.022   3.588   1.487  0.0074  0.1237 -0.0515
13243W        W17543   6.984   7.512  22.992  0.2276  0.2699 -0.0668
13244W        W17544  10.516   6.188   1.177 -0.3436 -0.0100 -0.1537
13245W        W17545  15.412   0.811   9.218 -0.2081  0.1371 -0.0218
13246W        W17546   7.071   2.276  16.933 -0.0110 -0.2251  0.0053
13247W        W17547  24.945   1.992  16.668  0.0170 -0.2352 -0.1300
13248W        W17548  26.881   3.774  17.352 -0.0121 -0.3817  0.0221
13249W        W17549  24.944   3.460   9.502  0.1211 -0.1629  0.0500
13250W        W17550  12.426   3.537  10.796 -0.1463 -0.1509  0.3547
13251W        W17551   2.044   6.532   5.484 -0.3602 -0.0422 -0.3801
13252W        W17552  16.922   2.238  21.379  0.0164  0.2800 -0.0888
13253W        W17553  19.286   1.443  23.551  0.0844 -0.0774 -0.1692
13254W        W17554  11.085   4.615  23.685  0.1639  0.0031 -0.0762
13255W        W17555   8.722   2.009   7.062 -0.0769 -0.1107  0.2915
13256W        W17556  24.136   3.301  18.516  0.1118 -0.5031 -0.2864
13257W        W17557  17.484   2.312  22.788 -0.2068 -0.2064 -0.2677
13258W        W17558   0.651   3.817  25.601 -0.0012 -0.1131  0.0813
13259W        W17559  15.928   4.172  17.028  0.1436 -0.2418 -0.1257
13260W        W17560  27.410   0.244   7.032  0.1210  0.0471 -0.0051
13261W        W17561  12.958   3.991  17.960 -0.2228  0.0537 -0.0901
13262W        W17562   3.065   0.988   7.424 -0.2817  0.1329  0.0970
13263W        W17563  21.053   6.167   8.284 -0.0663  0.1338  0.1363
13264W        W17564  28.908   0.991   1.278  0.2648  0.1550 -0.0821
13265W        W17565  29.400   3.665  19.430  0.2793 -0.2318 -0.0251
13266W        W17566   9.237   3.046  20.875  0.0245  0.0834 -0.5063
13267W        W17567  12.112   2.603   9.373 -0.0603 -0.1231  0.1420
13268W        W17568   7.368   0.846   5.220  0.2300 -0.1238 -0.1356
13269W        W17569  12.362   5.126   8.788 -0.0830 -0.3277 -0.1606
13270W        W17570  17.007   4.648   0.231  0.0548  0.0841  0.2341
13271W        W17571  19.081   6.165   5.303 -0.1565 -0.0777 -0.0833
13272W        W17572  21.508   6.992  21.870 -0.1106  0.1285  0.3180
13273W        W17573  10.403   4.042  22.870  0.2398 -0.0921 -0.1595
13274W        W17574   2.836   4.398  19.900 -0.0970 -0.0599  0.0470
13275W        W17575  30.527   4.388   9.634 -0.1215  0.2437 -0.3577
13276W        W17576   6.817   7.165  21.211  0.1440  0.1185  0.1298
13277W        W17577  29.536   0.655  21.585 -0.0025  0.1129  0.0660
13278W        W17578   5.044   5.267  26.372  0.0469  0.1344 -0.0210
13279W        W17579  11.980   1.401  20.687 -0.1970 -0.0584  0.1344
13280W        W17580  19.658   1.340   5.221 -0.0992 -0.0467 -0.1266
13281W        W17581   7.883   1.494   9.591 -0.0349  0.1449  0.0733
13282W        W17582  22.559   2.886  20.589 -0.0861  0.0354 -0.1917
13283W        W17583   6.369   3.853  24.610 -0.6583  0.2237  0.1190
13284W        W17584  27.329   0.172  11.001 -0.4738  0.0489  0.3926
13285W        W17585   9.544   0.958  16.105 -0.1028  0.0838 -0.0799
13286W        W17586  27.210   1.981  19.131 -0.0383  0.0653 -0.1311
13287W        W17587   7.838   5.627   1.010  0.3717  0.0632  0.1958
13288W        W17588  17.250   5.032   1.613  0.0502 -0.1733  0.1882
13289W        W17589   2.832   5.625  10.221  0.0191 -0.0042  0.0939
13290W        W17590  18.083   2.111   0.760  0.0042 -0.0616  0.0510
13291W        W17591  10.932   6.169  20.691  0.1199  0.1828 -0.0438
13292W        W17592   1.210   6.128  18.633 -0.0244  0.3864 -0.1374
13293W        W17593  24.729   3.589  15.230 -0.1322  0.0123 -0.0329
13294W        W17594  20.697   5.629  20.257  0.3964 -0.0581 -0.2461
13295W        W17595   8.973   2.712  16.610  0.2911  0.1527 -0.0823
13296W        W17596  11.940   3.372  15.248  0.2658  0.1197  0.0508
13297W        W17597  24.478   4.115  25.597  0.0291  0.0241  0.0433
13298W        W17598   6.961   0.568  25.925 -0.1908  0.1696 -0.1536
13299W        W17599  13.327   5.427   7.207 -0.2591 -0.1086 -0.0710
13300W        W17600  25.466   2.438   3.429 -0.1032 -0.0155  0.0899
13301W        W17601  25.006   0.242   3.808  0.0263 -0.2046 -0.1745
13302W        W17602  19.341   0.303   8.392 -0.0398 -0.0032  0.3363
13303W        W17603  29.693   2.001  22.928  0.2547 -0.0422 -0.3041
13304W        W17604  25.545   5.302   1.536 -0.2147  0.0683  0.3586
13305W        W17605  28.920   2.888   8.123  0.1918 -0.3752  0.0072
13306W        W17606   1.218   0.441   1.362  0.1412 -0.1176  0.0048
13307W        W17607   6.783   0.650  21.559  0.1539  0.0326 -0.2089
13308W        W17608  27.779   2.051   0.838 -0.0615 -0.1761 -0.1340
13309W        W17609  18.502   7.008  25.296  0.2507 -0.1100 -0.1121
13310W        W17610  27.169   0.124   8.910 -0.2325 -0.0803 -0.4096
13311W        W17611  27.840   1.893  22.673  0.2770 -0.2350  0.0749
13312W        W17612   1.829   4.794  10.316 -0.1061 -0.1067  0.1589
13313W        W17613  16.913   7.420  22.825 -0.1155 -0.0395  0.0239
13314W        W17614   7.329   7.127  21.347  0.0458 -0.0228 -0.3878
13315W        W17615   7.507   3.947   0.554 -0.1175 -0.1258  0.2060
13316W        W17616  17.251   1.697   5.842 -0.0637 -0.0401  0.0359
13317W        W17617  14.440   6.299  22.119 -0.1846  0.0238  0.0875
13318W        W17618  22.126   3.873  11.044 -0.3422 -0.1393  0.1164
13319W        W17619  16.344   4.405  17.365  0.0194 -0.0757  0.1255
13320W        W17620   4.498   3.622   9.668  0.1499  0.0313  0.2881
13321W        W17621  10.965   3.482   9.758 -0.1569 -0.0458 -0.0210
13322W        W17622  30.227   3.650  19.397  0.0097 -0.3690 -0.1648
13323W        W17623  22.358   6.447   4.432 -0.0483 -0.1849 -0.2443
13324W        W17624  28.785   0.756  17.898 -0.0123  0.1958  0.0014
13325W        W17625  29.560   6.212   2.731  0.1038  0.5297 -0.1816
13326W        W17626  20.502   7.600   6.612  0.1777  0.1706  0.1567
13327W        W17627  29.196   2.709  22.792  0.0774 -0.0335  0.0968
13328W        W17628   8.770   6.379  22.456 -0.1097 -0.1107  0.3160
13329W        W17629  19.955   1.585   4.319  0.1598 -0.1750 -0.1663
13330W        W17630  14.475   2.057  24.129 -0.0241  0.1247 -0.0386
13331W        W17631  25.316   5.519   3.382 -0.0415 -0.3183 -0.2582
13332W        W17632   8.909   4.474   9.338  0.0160 -0.0494  0.0443
13333W        W17633  20.098   2.872  26.117  0.0785 -0.0389 -0.0296
13334W        W17634  18.082   0.017  15.806 -0.0448  0.0037 -0.1362
13335W        W17635   4.212   0.215   0.971  0.2031 -0.1297  0.3014
13336W        W17636   6.056   2.680   9.432  0.0366  0.3157  0.0383
13337W        W17637  23.708   5.364   0.048 -0.0872  0.3100 -0.3751
13338W        W17638  30.476   4.233  25.803  0.0916  0.2313  0.1326
13339W        W17639   7.685   5.573   0.139 -0.1916 -0.1151  0.1529
13340W        W17640  23.059   6.810  24.981  0.3483 -0.1369  0.1256
13341W        W17641  26.176   5.460   2.444 -0.0784 -0.0334  0.0855
13342W        W17642   6.746   2.074  23.910  0.2586 -0.1868 -0.0935
13343W        W17643   1.463   1.711  21.724  0.1856  0.3314  0.0775
13344W        W17644  17.727   1.259   8.955  0.3288  0.1644  0.2539
13345W        W17645  19.772   0.129   2.295  0.0565  0.2574 -0.1046
13346W        W17646  17.268   7.184   8.301  0.3190  0.1724  0.0229
13347W        W17647   7.626   4.700   1.197  0.1784 -0.1398 -0.0954
13348W        W17648   3.026   4.452   0.255 -0.0621 -0.3666  0.0595
13349W        W17649  13.903   7.338   6.840  0.1829  0.1256 -0.0157
13350W        W17650  15.136   5.801   2.316  0.0744  0.0424  0.1519
13351W        W17651  23.690   3.887   2.898  0.1311  0.1316  0.0180
13352W        W17652   7.384   4.395   9.221 -0.1459  0.1170  0.0001
13353W        W17653  23.433   2.699   4.222  0.2223 -0.3135 -0.1947
13354W        W17654  18.354   7.059   5.640 -0.1246 -0.1106 -0.0099
13355W        W17655  16.688   1.305  24.680  0.2350 -0.2444  0.1848
13356W        W17656   7.181   3.104  17.082 -0.3466  0.0398 -0.1375
13357W        W17657   6.913   1.344   9.002 -0.2791 -0.0233  0.1280
13358W        W17658   1.923   3.503   4.297 -0.0852 -0.0037 -0.2475
13359W        W17659  26.952   7.110   8.443  0.0176  0.2001 -0.1312
13360W        W17660   6.638   5.887  24.919 -0.0756 -0.5254  0.1056
13361W        W17661  21.112   5.336   2.144  0.0783 -0.2403 -0.2561
13362W        W17662  11.861   3.833  15.507 -0.0040 -0.1210  0.1250
13363W        W17663   5.511   2.748  10.089  0.0628 -0.0940  0.1311
13364W        W17664   8.292   0.499   2.604  0.0767 -0.0986 -0.2137
13365W        W17665  19.128   2.944  21.408 -0.0470  0.0496  0.0106
13366W        W17666  12.303   1.698  16.837  0.0649  0.1992 -0.0757
13367W        W17667  16.400   5.494  19.887 -0.1203  0.1108 -0.3186
13368W        W17668  30.907   0.313  18.007  0.0667 -0.0789  0.1862
13369W        W17669  17.665   1.659  22.163  0.2720 -0.0290 -0.4756
13370W        W17670  22.565   0.786  23.081 -0.1657  0.0509 -0.2992
13371W        W17671  25.003   5.926  22.599  0.0945  0.3217 -0.1610
13372W        W17672  10.927   4.556  22.192  0.0094  0.2000  0.4223
13373W        W17673  29.113   5.328  16.046  0.1443  0.0750  0.0419
13374W        W17674  18.556   3.602  26.229  0.2670 -0.0034  0.1191
13375W        W17675  24.677   3.204  19.310  0.3240 -0.2422  0.0565
13376W        W17676  28.444   0.521   7.884 -0.0917 -0.1559  0.1955
13377W        W17677  29.581   2.230  16.897  0.4617 -0.2092  0.1878
13378W        W17678  15.789   1.366  16.041  0.1545  0.0300 -0.0442
13379W        W17679  27.075   1.097  10.148  0.1016  0.0313 -0.0366
13380W        W17680   6.329   0.249   1.614  0.1099 -0.0447 -0.3128
13381W        W17681  24.514   0.695  20.517 -0.0914 -0.0053  0.0134
13382W        W17682   2.654   0.510   2.953 -0.2023 -0.1614  0.1642
13383W        W17683   4.606   1.270   3.328 -0.0152  0.2581 -0.1653
13384W        W17684   6.105   6.650  23.486 -0.0774 -0.3428 -0.1799
13385W        W17685  23.153   3.979   6.849 -0.0078 -0.2753  0.0343
13386W        W17686  10.289   4.959  16.556  0.1677  0.0596  0.0573
13387W        W17687  10.162   1.689  18.449  0.0233  0.2270 -0.1412
13388W        W17688   9.879   2.190   7.988 -0.1312  0.2131 -0.0141
13389W        W17689  21.255   4.923  23.996  0.1903 -0.0752  0.2093
13390W        W17690  12.990   1.961  16.228  0.0251  0.1590  0.0212
13391W        W17691   1.870   5.047   9.832 -0.0805 -0.0543  0.0071
13392W        W17692  19.119   4.366  21.307  0.1042  0.1153 -0.2094
13393W        W17693   5.932   1.221  24.838  0.0505  0.2973  0.2330
13394W        W17694  25.506   3.918   7.942 -0.0066 -0.2756  0.2339
13395W        W17695  31.114   0.746   4.992  0.3477  0.0750  0.1519
13396W        W17696  23.037   3.969  11.894  0.0265 -0.4472  0.0021
13397W        W17697  18.726   5.021  24.722  0.2653 -0.2793  0.2417
13398W        W17698  11.155   3.829  24.942 -0.0137 -0.1812  0.1046
13399W        W17699   1.120   1.576   7.166 -0.0902 -0.0444  0.3730
13400W        W17700  24.049   5.250  16.617 -0.1187 -0.0550 -0.1897
13401W        W17701  10.062   7.337  24.297 -0.1478 -0.1070 -0.1017
13402W        W17702  22.845   4.945  21.912  0.2440  0.1593  0.1723
13403W        W17703  22.481   4.552   5.698 -0.2588  0.1824 -0.1679
13404W        W17704  12.795   7.744   1.548 -0.0024 -0.0783 -0.1412
13405W        W17705  12.165   0.763   5.719  0.1868 -0.2874  0.2962
13406W        W17706  10.478   3.653  19.827 -0.0219 -0.1084 -0.1187
13407W        W17707   5.248   6.261   1.334  0.1358 -0.2040  0.2717
13408W        W17708  16.835   1.750   5.496  0.0932  0.1852  0.3147
13409W        W17709   8.094   0.587   9.991  0.0246  0.2849  0.0511
13410W        W17710   7.499   7.372   3.750  0.1764  0.1175  0.1004
13411W        W17711  20.607   0.248  22.340  0.2229  0.1868  0.0373
13412W        W17712   2.185   6.179  10.849 -0.3761 -0.2918 -0.2540
13413W        W17713   9.585   5.035  22.329  0.0967  0.1746  0.1367
13414W        W17714  21.297   4.673   4.479  0.2456 -0.0510  0.1032
13415W        W17715  25.305   7.062  22.771  0.1377  0.0658  0.1431
13416W        W17716  30.736   2.879   1.726  0.2069 -0.0333 -0.1408
13417W        W17717  27.584   3.809   9.407 -0.3311  0.1967 -0.0226
13418W        W17718  26.154   2.945  16.171 -0.0640  0.1629  0.3426
13419W        W17719  18.709   5.192  19.382  0.2407 -0.1865  0.1048
13420W        W17720  29.263   5.629  24.852 -0.3905 -0.1405 -0.2788
13421W        W17721  18.086   2.241   4.248 -0.0155 -0.1515 -0.1300
13422W        W17722  10.690   4.491   6.422  0.1700 -0.1220 -0.0009
13423W        W17723  12.961   7.727   3.940  0.0516 -0.0617 -0.0087
13424W        W17724   0.235   4.176   7.934 -0.2030 -0.1786  0.0741
13425W        W17725   6.527   7.337   3.643  0.2812 -0.0554 -0.2085
13426W        W17726  26.470   7.794   6.639 -0.1592  0.0375  0.0000
13427W        W17727  19.524   1.270  24.167  0.4371 -0.0836 -0.1101
13428W        W17728  19.352   1.150   0.770 -0.0656 -0.0495  0.1753
13429W        W17729   1.359   4.001  15.727 -0.2516 -0.1025 -0.1147
13430W        W17730  31.023   7.550  18.846  0.0176 -0.2471  0.0391
13431W        W17731   8.768   2.134   6.473  0.2065 -0.0295  0.0395
13432W        W17732  29.109   7.065  26.293  0.2433 -0.1003 -0.0542
13433W        W17733  19.069   3.534  25.373 -0.1034 -0.2110  0.1651
13434W        W17734  12.132   0.434  10.334  0.0356  0.0219  0.2995
13435W        W17735  26.842   4.979  21.724  0.0563 -0.0934 -0.0166
13436W        W17736  24.528   2.268  14.927 -0.5285 -0.1454 -0.3998
13437W        W17737  21.810   5.279   3.157 -0.1300 -0.1666 -0.0596
13438W        W17738  12.667   1.749  19.024 -0.1047  0.0012  0.2591
13439W        W17739   3.420   6.997   3.280 -0.4404 -0.1941  0.2274
13440W        W17740   4.880   2.734   6.233 -0.1776 -0.3269  0.2681
13441W        W17741  14.307   6.803   6.803 -0.0646  0.1768  0.2837
13442W        W17742  30.894   0.200  22.130  0.1377 -0.2181  0.0303
13443W        W17743  20.340   1.189  26.092 -0.3122 -0.2743  0.1738
13444W        W17744  26.588   2.359   1.879 -0.2314 -0.0760  0.2243
13445W        W17745   9.369   4.223   1.839 -0.0338 -0.0164 -0.0628
13446W        W17746  17.848   0.001  17.856 -0.0591  0.2494 -0.1530
13447W        W17747   1.359   4.071   8.681  0.0144  0.0067  0.1679
13448W        W17748  26.679   4.660   3.728 -0.4040 -0.1602 -0.2670
13449W        W17749  24.666   0.258   6.431 -0.1632  0.2016 -0.3634
13450W        W17750   3.147   7.385   8.568  0.0993 -0.0692  0.2810
13451W        W17751  13.222   4.884  21.865  0.1145  0.1363 -0.2879
13452W        W17752  24.976   2.955   2.355  0.0794  0.0431  0.2065
13453W        W17753   2.340   7.442  17.064  0.2216  0.0742 -0.0183
13454W        W17754  29.946   4.708   0.066 -0.3604  0.2504  0.1840
13455W        W17755  13.911   3.518  21.173 -0.2715 -0.2180  0.0002
13456W        W17756  18.242   4.571  25.391 -0.3600 -0.0396 -0.2388
13457W        W17757  27.243   0.133  22.338 -0.0965 -0.1625  0.0755
13458W        W17758   4.951   6.388   5.737 -0.1113 -0.0554  0.1362
13459W        W17759  14.557   4.451  23.703  0.0319 -0.1534 -0.1124
13460W        W17760  23.245   5.892   1.308  0.3120  0.0291 -0.0993
13461W        W17761   7.265   1.785  15.412 -0.2811 -0.1209  0.2584
13462W        W17762  16.897   0.542  15.415 -0.2361 -0.0530  0.0775
13463W        W17763  26.879   6.001  25.191  0.0143 -0.0156 -0.1843
13464W        W17764   2.266   7.747   6.418 -0.1082 -0.0957  0.1211
13465W        W17765  26.760   6.463  23.481  0.2483  0.1983  0.0822
13466W        W17766  20.394   5.496   4.343 -0.0942  0.1767  0.2763
13467W        W17767  14.357   4.660  25.918 -0.4769 -0.0294  0.2868
13468W        W17768  23.744   0.955  16.635 -0.0028 -0.1602 -0.0144
13469W        W17769   0.652   4.551  15.845 -0.3127  0.2560  0.2014
13470W        W17770  24.374   6.196  21.348 -0.0795 -0.0288 -0.0658
13471W        W17771  10.964   2.902   4.786 -0.2032 -0.2666  0.1565
13472W        W17772  23.752   7.741   5.419  0.2316  0.3233  0.2065
13473W        W17773  15.205   1.698   0.388  0.1489 -0.0852 -0.0206
13474W        W17774  22.711   0.021  15.232 -0.0469 -0.3594  0.2173
13475W        W17775  22.083   0.105  10.773 -0.0164 -0.0432  0.0342
13476W        W17776   2.025   5.376  23.626  0.3317 -0.0707  0.2055
13477W        W17777   8.458   0.499  16.265  0.2189 -0.5237  0.0993
13478W        W17778   5.167   7.393   4.386  0.0403  0.3756 -0.1156
13479W        W17779  27.749   0.810  22.775 -0.1438  0.3717  0.1319
13480W        W17780   7.323   4.916  23.036  0.0746  0.0793 -0.0148
13481W        W17781  15.535   5.364  10.796  0.0857 -0.1295  0.1369
13482W        W17782   5.101   5.471   7.661  0.0102 -0.0469 -0.0821
13483W        W17783  12.349   3.005  17.486  0.1651 -0.2867 -0.1082
13484W        W17784  20.889   3.789   0.591  0.0189 -0.2681 -0.1091
13485W        W17785  22.114   0.390  21.517  0.0429 -0.2219 -0.6186
13486W        W17786  21.965   2.896   6.088  0.0071  0.2572  0.1806
13487W        W17787  29.748   0.920  19.837  0.1164  0.0529 -0.3537
13488W        W17788  13.919   4.284   7.953  0.0218  0.2515  0.0383
13489W        W17789  23.796   3.356   5.310  0.0896 -0.0717  0.0354
13490W        W17790   1.173   5.929  26.393 -0.0620 -0.2526 -0.3369
13491W        W17791  26.286   7.686  26.186 -0.0406 -0.1924 -0.1630
13492W        W17792  22.506   2.506  18.598 -0.1093 -0.1962  0.1444
13493W        W17793   7.775   5.125   1.386 -0.1511 -0.0346 -0.1336
13494W        W17794  29.168   4.927  18.777 -0.2676 -0.0817 -0.1173
13495W        W17795   4.867   1.721  16.579 -0.1884  0.0751 -0.4653
13496W        W17796  18.702   0.588   2.459  0.1796  0.1452 -0.0188
13497W        W17797   5.045   2.503   3.880 -0.0582  0.0325 -0.1607
13498W        W17798  27.766   6.190   1.972 -0.2433 -0.0421 -0.1839
13499W        W17799  17.032   5.194   2.884 -0.1818 -0.1062  0.0257
13500W        W17800  14.074   0.946   2.669 -0.1693  0.2727  0.4257
13501W        W17801   8.293   7.079  19.123  0.1302  0.3854 -0.0975
13502W        W17802  18.487   2.642   1.429 -0.0820  0.0354  0.1677
13503W        W17803  17.330   4.259   7.161  0.0618 -0.1187  0.0436
13504W        W17804  22.069   3.954   3.423  0.4204  0.2656  0.1214
13505W        W17805   3.653   7.765   5.531  0.0484  0.0308  0.4351
13506W        W17806  13.733   4.411  21.429  0.1441 -0.0223 -0.2402
13507W        W17807  22.271   0.675  17.686  0.1451 -0.0570  0.3269
13508W        W17808  15.206   5.447  22.856 -0.0637 -0.0719  0.0734
13509W        W17809  22.097   0.140  18.495  0.0622  0.2389 -0.0558
13510W        W17810  18.948   2.610   1.724 -0.1231  0.0217 -0.0047
13511W        W17811  21.839   1.588  18.593 -0.5873 -0.0034 -0.2837
13512W        W17812  15.824   5.203  20.490  0.2287  0.1140  0.1592
13513W        W17813  30.962   3.161  10.421 -0.0472  0.0753 -0.1723
13514W        W17814   7.157   5.074   0.666  0.0623  0.2181 -0.3490
13515W        W17815  19.420   4.921   8.073  0.1313  0.3347  0.0181
13516W        W17816  13.808   4.432  24.500 -0.0635  0.0256  0.0973
13517W        W17817   8.135   3.720   5.683  0.2959 -0.1709  0.1348
13518W        W17818  14.754   0.773   1.975 -0.2873 -0.1041 -0.3107
13519W        W17819   4.333   0.363  26.376 -0.1868 -0.0463 -0.1802
13520W        W17820   7.166   4.093   6.968 -0.1184  0.0628 -0.3544
13521W        W17821   9.407   7.767  25.273  0.1333  0.1086  0.1806
13522W        W17822  14.960   0.191  18.144  0.0288  0.3123  0.0810
13523W        W17823  24.317   5.145  25.230  0.2362  0.2777 -0.2220
13524W        W17824  21.858   5.757   8.842  0.1894 -0.1383 -0.1873
13525W        W17825   4.277   1.022   0.812 -0.0673 -0.0399  0.1296
13526W        W17826  26.835   1.871  25.139  0.1382  0.0502  0.2888
13527W        W17827  19.468   6.613  21.727 -0.0513  0.4230 -0.0888
13528W        W17828   6.941   5.456  24.891  0.4482 -0.1336  0.0647
13529W        W17829   2.850   7.545  16.755  0.1095  0.1838  0.4168
13530W        W17830  17.509   1.698   7.846  0.1744  0.0154  0.0008
13531W        W17831  12.523   2.289   7.445  0.3109  0.0436  0.2449
13532W        W17832  27.343   4.706  18.005 -0.1606 -0.2980  0.2020
13533W        W17833  18.716   3.030  22.991 -0.1864 -0.0781 -0.0034
13534W        W17834  13.747   4.963  21.020  0.0137 -0.0932 -0.0918
13535W        W17835   2.670   7.238   8.699 -0.1518  0.1774 -0.0616
13536W        W17836  26.242   2.073   1.630  0.0147 -0.0704 -0.3845
13537W        W17837  30.241   6.461   9.599  0.1427  0.1145 -0.1826
13538W        W17838   7.566   5.680  24.333 -0.1522 -0.1420  0.3073
13539W        W17839   5.480   3.045   1.180 -0.0128  0.0348 -0.2136
13540W        W17840   3.707   5.607   5.270 -0.2929  0.1427  0.2000
13541W        W17841  12.021   5.326   3.503 -0.2381 -0.1289  0.0160
13542W        W17842  30.568   5.002  23.246 -0.0540  0.1850  0.0772
13543W        W17843  21.098   1.313   3.667  0.0187  0.1814 -0.0435
13544W        W17844  12.591   3.331  21.210  0.0680  0.3698 -0.1441
13545W        W17845   1.728   0.672  23.880  0.2758  0.1051  0.0561
13546W        W17846  22.753   1.271  21.312 -0.1088 -0.2139  0.0777
13547W        W17847  27.525   0.791  25.010 -0.1424  0.2034  0.2760
13548W        W17848  18.871   5.581  24.831  0.0700  0.2203  0.0039
13549W        W17849   7.412   5.797  26.217 -0.0770  0.0297 -0.1080
13550W        W17850  21.665   1.490  10.220 -0.1409  0.2133 -0.2425
13551W        W17851  16.979   2.140   8.561 -0.4096  0.1405  0.1256
13552W        W17852   6.831   4.275  18.762 -0.0121  0.2055 -0.1757
13553W        W17853  22.757   4.698  24.151  0.1573 -0.0558  0.5024
13554W        W17854   1.546   7.727  15.887  0.1614 -0.2067 -0.1993
13555W        W17855  11.958   1.750   3.144  0.1986  0.2098 -0.1198
13556W        W17856  29.598   3.021   8.958 -0.0672  0.1103 -0.0645
13557W        W17857   7.508   0.534  18.713  0.1484  0.1387 -0.1504
13558W        W17858  29.993   2.958   4.034 -0.0852 -0.0409  0.5840
13559W        W17859  26.504   3.220   8.502 -0.2124 -0.0576 -0.3039
13560W        W17860  21.108   2.487  18.646 -0.1259 -0.0655 -0.2648
13561W        W17861   5.617   5.562   9.296 -0.0831  0.1216  0.0745
13562W        W17862  13.999   2.135  23.887 -0.2804  0.2932 -0.1362
13563W        W17863   2.332   4.200   4.610  0.2466 -0.0224 -0.0724
13564W        W17864   1.530   3.156   3.471 -0.3533  0.0584 -0.2944
13565W        W17865  18.115   4.012  18.390 -0.0315  0.3011  0.0980
13566W        W17866   6.761   5.432   4.648  0.2001  0.0910 -0.1001
13567W        W17867   6.318   7.617   4.863  0.3206  0.0103 -0.0435
13568W        W17868   5.105   1.685   0.127  0.0996  0.1929  0.0698
13569W        W17869   1.027   1.120   5.876  0.2548 -0.0541  0.0341
13570W        W17870  18.922   0.696   5.357 -0.0704  0.1745 -0.2277
13571W        W17871  26.228   1.682  20.930  0.3344 -0.3347  0.0512
13572W        W17872  20.827   7.299   7.436  0.0091  0.1241  0.1818
13573W        W17873  12.567   5.447  20.599 -0.0105 -0.2961  0.2540
13574W        W17874  13.121   5.448  19.499 -0.0571  0.3150  0.1395
13575W        W17875  10.206   0.489   9.376  0.0630 -0.0768 -0.0096
13576W        W17876  18.076   0.244  25.153  0.0656  0.2142 -0.0244
13577W        W17877  25.912   1.957  21.990  0.0171  0.0688 -0.0957
13578W        W17878   1.087   7.721  17.791  0.0094 -0.0197 -0.2384
13579W        W17879  20.929   2.402  10.255 -0.1837  0.0440  0.0267
13580W        W17880  27.496   7.494  17.789  0.2991 -0.3294  0.0964
13581W        W17881  25.333   5.897   7.768 -0.2657  0.1257  0.0152
13582W        W17882  14.607   2.071  16.252  0.1951 -0.0815 -0.0765
13583W        W17883   7.356   0.479   3.549  0.0276  0.1298 -0.0008
13584W        W17884   8.829   0.940   9.422 -0.2697  0.2585  0.2151
13585W        W17885  16.391   7.731  22.074 -0.2890  0.2765  0.0391
13586W        W17886  23.219   5.015  22.248  0.1596 -0.0775  0.0734
13587W        W17887   3.420   4.449  18.343  0.1825 -0.2762 -0.0273
13588W        W17888  27.836   0.790   6.638  0.0525  0.0971 -0.1624
13589W        W17889   5.401   4.446   2.052  0.1241  0.0566 -0.0012
13590W        W17890  20.550   2.479   9.769  0.4738 -0.0925  0.0892
13591W        W17891   0.477   0.519  17.457  0.0258 -0.0599  0.4500
13592W        W17892   0.819   3.193  22.945 -0.0861 -0.1416  0.0504
13593W        W17893   3.635   7.403  19.762 -0.0027 -0.1046  0.0298
13594W        W17894   3.144   6.261   0.233 -0.0590  0.3406 -0.2878
13595W        W17895  27.370   6.908  10.014  0.1229 -0.1877  0.2580
13596W        W17896  26.243   1.471  16.983 -0.1450 -0.1195  0.2421
13597W        W17897   7.629   4.619   9.764 -0.3094 -0.1229 -0.0203
13598W        W17898   3.773   0.508  18.753  0.0771 -0.0894  0.1487
13599W        W17899  19.351   2.776  22.056 -0.0193  0.1205 -0.3393
13600W        W17900  27.977   0.840   2.737  0.0919 -0.1024 -0.1287
13601W        W17901  11.795   1.292  19.294  0.4369 -0.0635  0.0484
13602W        W17902  12.575   4.284  10.138 -0.0517 -0.0059 -0.2895
13603W        W17903   2.665   3.617  21.654 -0.2531 -0.1541  0.0667
13604W        W17904  14.724   3.944  25.255  0.0423  0.1363  0.1041
13605W        W17905  26.548   2.439   6.514  0.0300  0.2010  0.1895
13606W        W17906  15.701   6.924  25.603 -0.4382  0.1118  0.0923
13607W        W17907  26.470   6.386  18.924  0.1404  0.2432  0.2116
13608W        W17908   2.217   7.565  11.108 -0.0404  0.0209  0.0338
13609W        W17909  15.927   4.634  19.400  0.1093  0.0204 -0.1655
13610W        W17910   1.118   1.653  22.102 -0.0276  0.1124 -0.2247
13611W        W17911  17.744   5.953  18.803 -0.1883 -0.2423  0.0870
13612W        W17912  14.234   2.215   7.744  0.0143 -0.0907 -0.0225
13613W        W17913   1.117   5.971  25.020  0.0062  0.0365 -0.1755
13614W        W17914  20.969   2.854  19.285 -0.0781  0.0262  0.0563
13615W        W17915  22.461   3.055  19.531 -0.3274  0.1327 -0.0575
13616W        W17916   2.620   0.824   7.250  0.2133 -0.2236  0.0460
13617W        W17917  26.432   5.505  17.178  0.2359 -0.2201 -0.0949
13618W        W17918   0.712   5.997  21.412  0.2139 -0.1773  0.1119
13619W        W17919  30.901   4.013  18.323  0.2607 -0.2315 -0.0200
13620W        W17920  16.014   1.019  15.300 -0.0003  0.0392 -0.0401
13621W        W17921   6.828   7.430   0.994  0.2272  0.0020  0.1332
13622W        W17922  19.876   5.901   7.374  0.1684  0.0208 -0.1468
13623W        W17923  22.463   7.490  16.741  0.2020  0.0608  0.2452
13624W        W17924  19.024   1.462  24.339 -0.5164  0.2388 -0.0323
13625W        W17925  26.009   1.835  25.473 -0.2131 -0.0682 -0.1931
13626W        W17926  25.841   2.890  18.494 -0.1725  0.2750  0.0303
13627W        W17927  12.187   3.182   2.058 -0.0447  0.2437  0.0157
13628W        W17928   1.885   0.020  19.292  0.2025  0.0046  0.1891
13629W        W17929  25.993   1.149   4.711 -0.3724  0.1541  0.0565
13630W        W17930  10.372   2.457   9.317  0.3729  0.1495  0.1713
13631W        W17931  16.756   3.281  18.330  0.0813  0.2668 -0.2776
13632W        W17932  20.419   3.547   9.057  0.0133 -0.1009 -0.0718
13633W        W17933  24.244   3.297  26.315 -0.0021 -0.2556  0.4067
13634W        W17934   8.019   6.538   7.847  0.0290 -0.3256 -0.1323
13635W        W17935  23.422   4.085  17.395  0.2786 -0.1909  0.0231
13636W        W17936  27.771   4.763  25.759  0.0234  0.0298 -0.1278
13637W        W17937  20.395   5.009   6.529  0.2379  0.1068  0.1000
13638W        W17938  23.731   6.610   6.147 -0.1107 -0.3016 -0.0420
13639W        W17939  21.556   7.307  23.207 -0.1364  0.0894  0.0453
13640W        W17940  27.026   4.025  21.858 -0.2232 -0.0768  0.1513
13641W        W17941  24.059   0.213   8.624 -0.1425 -0.0560  0.2546
13642W        W17942  20.908   6.784   0.829 -0.2458 -0.3211 -0.1510
13643W        W17943   5.542   6.250  23.664  0.1892  0.0040  0.1929
13644W        W17944  27.242   3.113  17.887 -0.0049  0.0213 -0.2400
13645W        W17945  29.096   6.239   0.065  0.1125  0.1283  0.1452
13646W        W17946  16.564   3.596  24.020 -0.1002  0.3268  0.1502
13647W        W17947  14.774   0.998   4.923 -0.0559  0.0981  0.2868
13648W        W17948  28.095   3.899  25.021  0.0629  0.1431  0.0927
13649W        W17949  19.131   0.692   9.785 -0.0213 -0.1072 -0.0082
13650W        W17950  30.341   7.033  16.963 -0.0520 -0.2605  0.1078
13651W        W17951  18.505   4.740   7.362 -0.2391 -0.0566  0.0765
13652W        W17952   1.469   1.571  24.529  0.1396  0.2267 -0.1263
13653W        W17953  24.374   3.648   2.100  0.4226 -0.0428 -0.2485
13654W        W17954  12.649   0.102   3.491 -0.0771 -0.0176 -0.0118
13655W        W17955  24.681   1.937   7.884 -0.1150  0.1766 -0.0257
13656W        W17956   7.830   3.795  19.096  0.1832 -0.0695  0.0136
13657W        W17957  28.230   0.223  10.608  0.0184 -0.1787  0.0047
13658W        W17958   4.905   4.339  23.036  0.0016 -0.3592 -0.0282
13659W        W17959  28.672   6.438   2.321 -0.1424  0.0972 -0.3316
13660W        W17960  15.246   5.749  14.984 -0.0092 -0.2318  0.2434
13661W        W17961  21.986   2.886  16.272 -0.0176 -0.0627  0.1507
13662W        W17962  19.129   2.138  23.110  0.0373 -0.1753 -0.0818
13663W        W17963  24.856   7.545  20.583 -0.0128 -0.1211  0.2064
13664W        W17964  16.252   4.972  20.708  0.1700  0.1676  0.0038
13665W        W17965  10.816   1.636   1.685 -0.2722  0.1067 -0.0286
13666W        W17966   4.507   5.294  23.867  0.2415 -0.1483 -0.0995
13667W        W17967  30.390   6.359   2.102 -0.0524 -0.0328 -0.2178
13668W        W17968  27.993   1.560  22.319 -0.0136 -0.0255 -0.0016
13669W        W17969  18.682   4.017   5.879  0.1920  0.1578  0.2512
13670W        W17970  13.946   1.003  17.381 -0.0581  0.1102  0.0274
13671W        W17971   0.402   3.231   9.162 -0.2619  0.3402  0.0381
13672W        W17972  23.257   2.310  20.160 -0.3121  0.2076 -0.3088
13673W        W17973   9.765   2.724   7.035  0.2472 -0.1970  0.0619
13674W        W17974  12.204   4.206   3.863  0.0339 -0.1552  0.1118
13675W        W17975  19.906   6.582  18.836 -0.0167  0.0408  0.0278
13676W        W17976  19.661   6.605   4.524 -0.0189  0.0556 -0.2075
13677W        W17977   4.189   1.106  21.556  0.0109 -0.2482  0.0079
13678W        W17978  14.957   1.786  23.358  0.0513 -0.1305 -0.0788
13679W        W17979  17.665   4.491   9.225  0.1224  0.3100 -0.1218
13680W        W17980  10.952   6.577   5.623  0.2142  0.0205  0.1375
13681W        W17981   1.784   6.713  19.395  0.2925  0.0191 -0.2736
13682W        W17982   3.067   0.292  24.444  0.1273 -0.2228  0.2768
13683W        W17983  19.463   6.761   0.589 -0.1979  0.0294  0.1734
13684W        W17984  27.425   3.798   4.161  0.3289 -0.2028 -0.0507
13685W        W17985  15.942   0.673  20.526 -0.0560 -0.1079  0.0123
13686W        W17986   3.850   7.386  20.298  0.1039 -0.0479 -0.0492
13687W        W17987   9.302   4.191   4.751  0.0696  0.3487 -0.0799
13688W        W17988  21.098   2.353   1.368 -0.0791  0.0744  0.0615
13689W        W17989  16.186   0.306   0.544  0.0789 -0.5253  0.2577
13690W        W17990   5.123   3.145  19.597 -0.1975  0.2043  0.0757
13691W        W17991   9.280   7.247  15.874  0.0533 -0.2492 -0.1047
13692W        W17992   4.115   6.608   7.415 -0.0204  0.0765 -0.0262
13693W        W17993   1.533   3.673   5.919  0.0381 -0.0448 -0.4358
13694W        W17994   9.585   5.161  10.663 -0.0939 -0.0549  0.0587
13695W        W17995  25.211   6.096  21.611  0.3180 -0.1667  0.1086
13696W        W17996  24.558   6.905   2.132 -0.2790 -0.1306  0.1075
13697W        W17997  26.586   5.270  22.735 -0.1422 -0.0001 -0.0415
13698W        W17998  10.550   0.125   1.285  0.2827  0.1752  0.1276
13699W        W17999  17.120   5.908  22.771  0.0481 -0.1628  0.1438
13700W        W18000   4.828   6.641   8.804  0.2122 -0.1268  0.4206
13701W        W18001   9.150   6.139   8.959 -0.0460  0.0083  0.1036
13702W        W18002  28.344   1.997   1.760 -0.0794 -0.0775  0.1075
13703W        W18003  20.373   6.330  21.778 -0.0350  0.2307  0.1075
13704W        W18004  11.813   3.750   3.057 -0.0878  0.1222  0.0029
13705W        W18005  18.757   4.322   1.119  0.0333  0.1067  0.3709
13706W        W18006   9.070   0.652   7.251  0.1897  0.0608  0.2369
13707W        W18007   7.177   0.468   2.189 -0.0476  0.0453 -0.1252
13708W        W18008  30.949   4.452  10.344  0.1190 -0.0949  0.1475
13709W        W18009  27.764   5.514  15.826 -0.0510  0.1896 -0.0665
13710W        W18010  28.850   3.966  24.540  0.3166 -0.0846  0.0980
13711W        W18011  24.666   5.175  16.104 -0.1441 -0.1759 -0.2321
13712W        W18012   1.853   5.104   4.358 -0.2954 -0.1351 -0.3194
13713W        W18013  24.942   3.124   9.094  0.3533 -0.1096  0.2668
13714W        W18014  19.247   6.666  24.172 -0.2074  0.0915  0.0289
13715W        W18015  25.701   7.275  16.740 -0.1566 -0.0559  0.0653
13716W        W18016  29.325   3.901  15.454 -0.0331 -0.0073  0.2601
13717W        W18017  29.878   5.641  26.285 -0.1068  0.1774 -0.1576
13718W        W18018   3.275   1.635   5.700  0.2568 -0.2559 -0.0948
13719W        W18019   6.858   0.425  23.602 -0.1128  0.1511 -0.1544
13720W        W18020   8.515   4.952   4.778  0.1368 -0.0389 -0.0878
13721W        W18021   9.063   4.055  21.283 -0.0122  0.0144 -0.2295
13722W        W18022   1.073   6.664   5.695 -0.0092  0.1466 -0.3030
13723W        W18023   7.255   7.760  22.490 -0.0919  0.2387  0.0486
13724W        W18024  28.921   5.187  17.046  0.1092  0.0256  0.0573
13725W        W18025  16.027   4.101   2.881  0.1735 -0.1198  0.0182
13726W        W18026  29.817   4.594  17.164  0.1072 -0.0247 -0.2456
13727W        W18027  24.506   1.212  22.709 -0.3317 -0.0018 -0.1732
13728W        W18028  16.121   7.488   6.999 -0.0654  0.0640  0.2810
13729W        W18029  18.953   5.547  17.043 -0.1299  0.3935 -0.0426
13730W        W18030  13.184   3.199  21.789 -0.1385  0.0368  0.1118
13731W        W18031  11.413   5.822   1.201 -0.2456  0.0539  0.0629
13732W        W18032   5.924   0.810  16.713 -0.1739 -0.1241 -0.1603
13733W        W18033  21.481   7.083  22.743  0.1020 -0.0109  0.3090
13734W        W18034   6.043   2.156   0.859 -0.1171 -0.2168  0.2750
13735W        W18035  26.915   6.759  22.545 -0.1838  0.0037  0.1839
13736W        W18036  10.007   6.026   2.360 -0.2931  0.2341  0.0287
13737W        W18037  28.738   1.338   9.544 -0.1998 -0.1656  0.1388
13738W        W18038  17.123   3.068  17.985  0.0122  0.1258 -0.1503
13739W        W18039  18.787   4.659  15.659 -0.0346 -0.1842 -0.0630
13740W        W18040  20.613   2.601   2.908  0.1189 -0.2399 -0.1248
13741W        W18041  29.284   0.209  19.267 -0.0718 -0.0573 -0.0494
13742W        W18042   7.954   7.251  20.664 -0.2207 -0.0858  0.0665
13743W        W18043  17.865   0.724  22.308  0.0776 -0.2154 -0.5279
13744W        W18044  30.899   1.264   7.324 -0.0790 -0.0510 -0.1965
13745W        W18045   1.323   7.752   0.420 -0.0277  0.3000 -0.3186
13746W        W18046   9.700   1.486   9.909  0.1898 -0.0591 -0.2592
13747W        W18047   3.581   6.300   6.688 -0.1301  0.4452 -0.2314
13748W        W18048  20.009   0.012   4.543 -0.2087 -0.0149 -0.0679
13749W        W18049  28.133   4.569  24.338  0.2370 -0.0693  0.0416
13750W        W18050   3.651   0.681   3.544  0.0428  0.0915  0.3322
13751W        W18051  24.125   2.770  25.660  0.1413 -0.1045  0.0431
13752W        W18052   4.166   5.149  19.063  0.2070 -0.2838 -0.2638
13753W        W18053  23.628   0.203  10.257 -0.3600  0.1262  0.0583
13754W        W18054  10.116   2.437  23.300 -0.3084  0.2290 -0.0077
13755W        W18055   7.015   5.391   8.025  0.0726 -0.0086 -0.1056
13756W        W18056  22.018   0.661  24.863  0.0728  0.0581  0.1581
13757W        W18057  29.828   2.017  21.713 -0.2277 -0.1520 -0.2445
13758W        W18058   0.265   3.718  18.677  0.2625 -0.1333 -0.3135
13759W        W18059  16.223   5.454   3.167 -0.1513  0.0109 -0.0090
13760W        W18060   7.996   6.327  21.080 -0.0783 -0.0357  0.1538
13761W        W18061  13.420   7.166  24.558 -0.1900 -0.3513 -0.1158
13762W        W18062  25.857   6.309  10.760  0.2813 -0.0482  0.0511
13763W        W18063  19.043   1.392   1.216  0.2792  0.0289  0.1037
13764W        W18064  26.719   1.014  25.522  0.1075  0.1995  0.0267
13765W        W18065   9.534   5.734  21.842  0.2373 -0.1036 -0.2084
13766W        W18066  17.622   0.401  18.692 -0.3325 -0.1161 -0.1927
13767W        W18067  25.511   7.403  16.231 -0.0337 -0.0742 -0.1954
13768W        W18068   8.338   1.232   1.628  0.0571 -0.1546 -0.0368
13769W        W18069   4.299   5.646  23.183 -0.0387 -0.0324 -0.1977
13770W        W18070  28.605   6.019  18.291 -0.0899  0.0979  0.0465
13771W        W18071   8.022   5.262   3.664  0.2818 -0.0509  0.1630
13772W        W18072  16.850   1.472  11.151 -0.2139  0.3920 -0.0025
13773W        W18073  14.635   6.419   2.576 -0.1800 -0.1463  0.4038
13774W        W18074  22.137   2.767  20.121 -0.0748  0.1135 -0.1969
13775W        W18075  15.024   3.791   8.706 -0.2165  0.1380 -0.0741
13776W        W18076   9.375   1.658   0.528  0.0952 -0.0223  0.1196
13777W        W18077  23.044   2.363  22.683  0.0974 -0.0626 -0.0312
13778W        W18078  30.903   0.919   6.947  0.2136 -0.3932  0.1545
13779W        W18079  17.700   0.504  25.538  0.1538  0.5174 -0.1296
13780W        W18080   6.998   0.294  25.490  0.3413  0.1600 -0.0493
13781W        W18081   7.416   5.107  20.257  0.0393  0.0837 -0.0788
13782W        W18082  11.285   5.311   5.203 -0.0260 -0.1037  0.0148
13783W        W18083  29.733   7.228   0.499  0.0646  0.1294 -0.4037
13784W        W18084  19.202   5.675   6.508 -0.0342 -0.1548  0.4143
13785W        W18085  24.057   0.282  23.481  0.0033  0.0327 -0.0448
13786W        W18086   1.328   5.531   5.603 -0.2480  0.1051  0.2018
13787W        W18087   9.529   3.620  24.595  0.1771 -0.0820 -0.2301
13788W        W18088  25.391   4.406  21.882 -0.1776  0.1994  0.0618
13789W        W18089   7.092   5.185  19.037 -0.0119 -0.1512  0.0017
13790W        W18090  18.462   5.342   7.805  0.0937  0.0392  0.2467
13791W        W18091  18.695   1.516  20.059  0.1232 -0.2927  0.0859
13792W        W18092   6.459   2.613  20.292 -0.0114  0.1403 -0.0828
13793W        W18093  23.839   3.599   3.779 -0.1448  0.1624  0.2319
13794W        W18094  22.772   3.444  24.640 -0.1093 -0.0018 -0.0585
13795W        W18095  21.425   6.816  10.327 -0.1080  0.0173 -0.1619
13796W        W18096  22.125   6.316   0.741  0.1671  0.0679 -0.0800
13797W        W18097   3.477   2.585   3.699  0.1826  0.0735  0.0767
13798W        W18098  26.559   2.990  21.801  0.2550  0.0919  0.0122
13799W        W18099  27.721   6.144  19.763  0.2614  0.0110  0.2183
13800W        W18100  14.532   1.548  15.599  0.1102 -0.0576  0.3263
13801W        W18101   3.489   3.090  18.157 -0.3118 -0.0826 -0.0888
13802W        W18102  15.240   0.944   1.980  0.0211 -0.2440 -0.1183
13803W        W18103  20.726   0.719  18.343  0.1222 -0.0931 -0.2250
13804W        W18104  15.088   4.915  17.359  0.1674  0.0653 -0.0368
13805W        W18105  20.027   2.667  11.027 -0.1105  0.0432 -0.5313
13806W        W18106  26.265   0.779  19.502  0.1735  0.2725  0.0545
13807W        W18107  20.879   5.368   1.400  0.0163  0.3645 -0.1978
13808W        W18108   0.573   3.925  11.581  0.1221  0.0268 -0.0664
13809W        W18109  26.669   4.334  10.356  0.1309 -0.1876  0.3068
13810W        W18110  22.001   5.737  10.185  0.4478  0.0062  0.0412
13811W        W18111  19.422   0.615   5.042 -0.1326  0.1155 -0.1603
13812W        W18112  25.771   7.118  15.722  0.1138 -0.3362 -0.3082
13813W        W18113  11.071   3.001  17.660  0.0608  0.1760 -0.1673
13814W        W18114  30.033   5.250  21.050  0.0924 -0.3799  0.0469
13815W        W18115  23.759   2.489   5.858  0.4259 -0.0779 -0.1384
13816W        W18116   3.972   7.230   5.946  0.0048 -0.3454 -0.0093
13817W        W18117   2.739   3.501   6.678  0.1752  0.4836 -0.1240
13818W        W18118  28.776   6.433  20.653 -0.0612 -0.1724 -0.0755
13819W        W18119   5.102   6.275   0.862  0.0967  0.1365  0.0974
13820W        W18120   4.194   6.039  24.413 -0.0695 -0.0645  0.1057
13821W        W18121  10.598   7.319  24.244 -0.0761  0.1018  0.2353
13822W        W18122   3.718   1.618  24.550  0.0945 -0.0047 -0.1428
13823W        W18123  28.965   4.428   5.669 -0.2215 -0.1044  0.0179
13824W        W18124  22.185   7.724   6.184  0.0018 -0.0488  0.3791
13825W        W18125  26.975   2.419  20.248 -0.0928  0.2505  0.2081
13826W        W18126  30.598   1.091   0.466 -0.0022 -0.1699 -0.0806
13827W        W18127  19.107   2.260  18.201  0.0062  0.0360 -0.5970
13828W        W18128  21.125   0.346  10.541 -0.0235 -0.2265  0.1439
13829W        W18129   5.265   4.545  24.520 -0.0382  0.4642 -0.1163
13830W        W18130  15.087   3.913  24.390  0.1881 -0.2407  0.1845
13831W        W18131  17.746   4.999   2.593 -0.0452  0.1605  0.0301
13832W        W18132  20.785   7.161   0.501  0.2351 -0.1219 -0.2040
13833W        W18133  18.333   0.629  19.137  0.0179  0.2297  0.0474
13834W        W18134  14.145   5.449   4.554  0.3512 -0.2048  0.1290
13835W        W18135  16.775   2.858  23.069 -0.0059 -0.0567 -0.0555
13836W        W18136   9.389   2.540   4.802  0.1403 -0.2106  0.0396
13837W        W18137   2.136   6.139   1.021 -0.1762 -0.4428 -0.0164
13838W        W18138  13.278   3.371  10.792  0.1641  0.2826 -0.3643
13839W        W18139  21.355   5.497   2.919  0.1025 -0.0025 -0.2603
13840W        W18140  12.375   6.279  25.605 -0.1233 -0.4065 -0.4356
13841W        W18141  15.775   6.120   5.839 -0.1228  0.2899  0.1839
13842W        W18142  11.529   4.107  22.932 -0.0055  0.2026 -0.0359
13843W        W18143   6.400   6.938   3.338 -0.0597  0.3110 -0.0635
13844W        W18144   1.926   2.131  23.078 -0.2776  0.1044 -0.1997
13845W        W18145   2.384   0.348   4.973  0.3599  0.1025  0.4543
13846W        W18146  23.958   4.140   9.919 -0.1508  0.2260  0.0404
13847W        W18147  19.657   5.075   3.588 -0.1177 -0.0582 -0.3685
13848W        W18148  28.898   0.147  21.426  0.1658  0.2003  0.0451
13849W        W18149   9.378   5.614  19.078  0.4118  0.1340  0.0168
13850W        W18150  27.821   2.331   8.383 -0.0980  0.0856  0.0268
13851W        W18151  16.877   5.515  20.831 -0.2241 -0.1698 -0.0815
13852W        W18152  22.081   2.018  19.706 -0.3754 -0.0457  0.1220
13853W        W18153  21.016   2.976   6.890  0.0599  0.2105  0.2110
13854W        W18154  11.821   6.672   0.109 -0.4039 -0.0216 -0.4052
13855W        W18155  17.155   2.065   9.825 -0.1122  0.1442 -0.1729
13856W        W18156  10.770   7.517   8.394  0.3538  0.0172 -0.0013
13857W        W18157  27.719   5.932   9.331 -0.0429  0.0400  0.0207
13858W        W18158  18.837   1.570  10.462  0.0574 -0.2050  0.1525
13859W        W18159  28.482   3.249  20.530  0.0373  0.1066 -0.0166
13860W        W18160  28.233   2.840   9.505 -0.0555 -0.2689 -0.1384
13861W        W18161  18.225   5.540  14.799 -0.0765  0.2021  0.0039
13862W        W18162  13.501   6.056   5.702  0.1563  0.1391 -0.1594
13863W        W18163  27.272   6.404  23.472  0.2465  0.0030 -0.0156
13864W        W18164  19.751   0.612   9.162  0.2073  0.1764  0.0484
13865W        W18165  17.014   3.285  23.080 -0.2029 -0.0657 -0.1880
13866W        W18166  24.163   2.175  23.538 -0.0295 -0.0648  0.0727
13867W        W18167   1.378   7.345  11.471  0.0481  0.0113  0.1052
13868W        W18168  26.903   6.488  16.944 -0.1595  0.0142 -0.1685
13869W        W18169  27.958   3.590   2.999  0.1039  0.0915  0.1875
13870W        W18170  23.273   5.788  19.826 -0.0271  0.3184  0.1651
13871W        W18171  15.811   0.381  25.116 -0.0178  0.2125 -0.1394
13872W        W18172  12.428   6.613  23.752  0.1431  0.0670 -0.0388
13873W        W18173  22.361   4.447   2.811 -0.1451 -0.4071 -0.1216
13874W        W18174  18.351   5.529  11.217  0.2277  0.0275  0.1333
13875W        W18175  27.131   2.884  15.703 -0.1892  0.1238  0.0162
13876W        W18176  14.394   6.641  25.201  0.0547  0.0102  0.1588
13877W        W18177  15.453   5.524   9.440 -0.1373 -0.2197  0.1785
13878W        W18178  21.357   7.678  23.928 -0.0798 -0.0570 -0.2491
13879W        W18179  11.793   7.403  18.623 -0.2721 -0.0594 -0.0423
13880W        W18180  25.012   6.690   7.302  0.0392 -0.3001 -0.2674
13881W        W18181  17.533   1.164  24.771  0.0697  0.1415  0.3130
13882W        W18182   2.354   4.825   9.990  0.2147 -0.0845 -0.2151
13883W        W18183   9.421   2.648   3.123 -0.0192 -0.0522 -0.0405
13884W        W18184  18.611   2.475  19.735 -0.1390  0.1536 -0.1222
13885W        W18185  10.027   7.721  10.895 -0.2245  0.0321  0.0858
13886W        W18186   0.300   0.646  11.457  0.0794 -0.2487 -0.1510
13887W        W18187   8.957   1.289  21.869 -0.1082 -0.0448 -0.1204
13888W        W18188   9.173   3.232   4.947  0.0775  0.1036  0.0157
13889W        W18189  24.096   6.406  19.912 -0.0683  0.0608  0.2945
13890W        W18190  14.856   1.504  18.791 -0.1708  0.1924 -0.0268
13891W        W18191   4.903   6.982   3.152  0.0966  0.0396  0.2844
13892W        W18192   1.979   0.173  18.608  0.2725  0.0372  0.0443
13893W        W18193  24.491   5.150  17.555 -0.0922  0.0231  0.0584
13894W        W18194  23.083   6.964  16.381  0.0034 -0.0041 -0.0386
13895W        W18195  23.165   6.098  24.541 -0.1566  0.1280  0.1756
13896W        W18196  22.185   6.682   1.293  0.1011 -0.0333  0.0718
13897W        W18197  29.277   2.955  19.271 -0.1863 -0.2568  0.0919
13898W        W18198  12.568   1.804   2.098  0.0380 -0.0622 -0.0468
13899W        W18199  21.460   3.698   1.439 -0.0415 -0.0088  0.1549
13900W        W18200  27.004   3.491   6.444  0.2924 -0.1049 -0.2907
13901W        W18201   1.042   0.513   8.088  0.1136 -0.0212  0.1648
13902W        W18202  30.014   0.658   5.858 -0.1824 -0.3209 -0.1906
13903W        W18203   4.327   0.902   6.859 -0.2588  0.0328 -0.1446
13904W        W18204   8.440   5.967  16.204  0.0158 -0.0138  0.0550
13905W        W18205  28.573   5.203  10.625 -0.0056  0.1984  0.1726
13906W        W18206   2.064   5.699  24.157  0.1666  0.2540  0.2629
13907W        W18207  19.498   5.020  24.465  0.2329 -0.1772 -0.2819
13908W        W18208  24.516   5.853  25.782  0.3651  0.1632  0.2036
13909W        W18209  22.071   6.164  19.296  0.0478  0.0746 -0.0752
13910W        W18210  23.549   1.048   6.925  0.1044  0.1023 -0.0936
13911W        W18211  28.650   5.423   0.173 -0.0192  0.1885  0.2309
13912W        W18212  20.967   1.119  24.207  0.0627 -0.1653  0.1754
13913W        W18213   8.687   3.411   1.138  0.2803  0.0407  0.0924
13914W        W18214   7.617   5.668  17.460 -0.5693 -0.1177 -0.0599
13915W        W18215  21.377   2.949   0.584  0.2640 -0.1478 -0.0176
13916W        W18216   7.977   1.857  23.361  0.0737 -0.1036  0.0794
13917W        W18217   3.309   4.709  25.408  0.2525 -0.2575  0.0289
13918W        W18218   8.618   5.887  25.558  0.0039 -0.1095 -0.2764
13919W        W18219   3.894   5.370   7.041 -0.0629  0.0008 -0.1713
13920W        W18220  22.771   2.223   3.188 -0.0268  0.0824 -0.0032
13921W        W18221  10.379   5.641  15.637 -0.1930  0.0506 -0.3404
13922W        W18222  28.161   5.146  15.564  0.0436  0.0840  0.0410
13923W        W18223  15.745   0.294  21.608  0.2430  0.1360  0.0084
13924W        W18224  22.621   6.575  16.990 -0.0449  0.2072 -0.1725
13925W        W18225  17.443   4.313  20.192 -0.0469  0.2464 -0.0140
13926W        W18226   9.011   4.387  24.622  0.2396 -0.0364  0.1989
13927W        W18227   5.339   5.597   6.787  0.0348 -0.0630 -0.0620
13928W        W18228  23.640   6.321   8.610  0.1130 -0.1095 -0.0735
13929W        W18229   4.459   2.669  21.874  0.0321  0.2805 -0.0074
13930W        W18230  19.831   6.186   1.680  0.2093  0.2460  0.3188
13931W        W18231  21.003   6.050  20.099  0.0588 -0.3793  0.1570
13932W        W18232  27.355   4.698   9.593 -0.1606 -0.1124 -0.1006
13933W        W18233  12.861   1.297   6.786 -0.0981 -0.3312  0.0770
13934W        W18234   3.488   3.698   3.532  0.1727  0.0283 -0.3629
13935W        W18235   6.310   3.014  21.157  0.2335 -0.0541 -0.1000
13936W        W18236  18.905   7.052  18.079 -0.0745  0.0980 -0.0629
13937W        W18237  11.988   1.441   7.174  0.2234 -0.0094 -0.2911
13938W        W18238  26.116   4.065  22.289  0.2166  0.2199  0.0906
13939W        W18239  26.308   4.806  16.583 -0.1053  0.1503 -0.3005
13940W        W18240  23.653   0.098  22.583  0.2184 -0.3698  0.1615
13941W        W18241  26.659   0.064   9.693  0.1774 -0.0539 -0.1777
13942W        W18242  11.743   7.191   3.528 -0.0442 -0.0562 -0.0714
13943W        W18243  25.567   4.992  10.933  0.1835 -0.0862  0.1800
13944W        W18244  26.359   4.858  20.495  0.2050  0.0754 -0.0151
13945W        W18245   5.572   4.162  10.229 -0.1711  0.3314  0.0094
13946W        W18246   9.947   3.109   4.700  0.2240 -0.2541  0.1409
13947W        W18247  11.952   2.027   1.360 -0.1814 -0.1454  0.2784
13948W        W18248  21.396   1.586  18.284  0.0994 -0.0077 -0.0002
13949W        W18249   6.110   3.711   1.080  0.0486  0.0541  0.0481
13950W        W18250  16.118   2.243   4.385 -0.0556  0.0346 -0.1775
13951W        W18251  10.305   0.727  21.828 -0.1088  0.1524 -0.0192
13952W        W18252  13.769   2.635  21.029  0.0161 -0.1480 -0.1366
13953W        W18253  23.969   4.102   2.238 -0.3744  0.3804  0.3224
13954W        W18254  21.250   3.547   9.021 -0.0209 -0.0067 -0.0493
13955W        W18255   0.612   3.173   6.739 -0.0421 -0.2692  0.3236
13956W        W18256   2.431   3.601   5.413  0.3109 -0.0931  0.2686
13957W        W18257   2.630   2.055  23.912  0.2617  0.3225  0.0030
13958W        W18258  30.537   1.420  24.781 -0.0153  0.0222 -0.1717
13959W        W18259  14.957   6.248   7.348  0.4205 -0.1227 -0.0781
13960W        W18260   7.582   1.606  21.153 -0.3570 -0.0931  0.0983
13961W        W18261   2.981   1.114   2.179  0.0784  0.4942 -0.0276
13962W        W18262  21.217   2.181  22.124  0.1417 -0.0189  0.2886
13963W        W18263  24.058   0.984  15.840  0.3226 -0.0325  0.0037
13964W        W18264  11.818   2.796   4.223  0.3560  0.0636  0.1807
13965W        W18265  15.584   1.296  18.504 -0.0499 -0.1666 -0.0372
13966W        W18266  19.564   4.419  18.668 -0.2291  0.1572  0.1590
13967W        W18267  20.997   4.214  20.707 -0.0982  0.2857  0.0102
13968W        W18268  22.064   2.839  23.602 -0.0046  0.2048  0.1259
13969W        W18269  19.994   4.291  17.513  0.3746  0.1762 -0.0755
13970W        W18270  29.700   0.113   6.278 -0.1075 -0.1903  0.2194
13971W        W18271  10.115   3.839   4.674 -0.0145 -0.0673  0.2398
13972W        W18272  23.506   4.328   5.036  0.0973  0.2313  0.2420
13973W        W18273   9.949   4.957  21.263 -0.1550  0.0846 -0.0056
13974W        W18274  29.199   7.496   9.958 -0.0684  0.0387  0.2512
13975W        W18275  17.742   5.187   0.204  0.1413  0.0434 -0.0885
13976W        W18276  20.526   6.712  15.520  0.1407 -0.1546 -0.0625
13977W        W18277   9.104   7.683   0.109  0.0487 -0.1283 -0.0417
13978W        W18278   8.370   4.203   2.670  0.0220 -0.0231  0.3328
13979W        W18279   7.622   7.798   1.496 -0.0113  0.2889 -0.0399
13980W        W18280   9.798   3.356  16.395  0.0184 -0.0092  0.2436
13981W        W18281  13.904   7.709  17.558  0.1748  0.2541 -0.2244
13982W        W18282  17.108   2.439  20.967  0.0635 -0.0850  0.0368
13983W        W18283  21.975   5.739   6.356  0.0122 -0.1434 -0.1668
13984W        W18284  25.672   2.209   4.008  0.0961 -0.1920 -0.1204
13985W        W18285   4.197   2.166   4.314  0.0391  0.1790 -0.0564
13986W        W18286  20.026   4.336   6.360 -0.1448  0.0141  0.1686
13987W        W18287   5.595   6.554  24.233 -0.1923  0.0302  0.0866
13988W        W18288  25.314   4.501  16.782 -0.0751  0.0415  0.1578
13989W        W18289  15.758   4.068  22.731 -0.2091 -0.1125  0.1210
13990W        W18290   5.769   1.236   3.847  0.0719  0.1160 -0.0175
13991W        W18291   0.629   7.194  18.635 -0.0673  0.0152 -0.0961
13992W        W18292  22.074   6.846   2.410 -0.0438 -0.0785 -0.4665
13993W        W18293   3.972   6.472  24.542 -0.0231 -0.1286  0.0628
13994W        W18294   7.166   5.352   3.693  0.2929  0.1478  0.1569
13995W        W18295   3.967   7.182   7.825  0.0836  0.0011 -0.1442
13996W        W18296  26.656   0.912  16.480 -0.0571  0.2463  0.2534
13997W        W18297  12.998   2.950  23.283  0.1917 -0.0395 -0.0349
13998W        W18298  13.553   2.259   4.582  0.2986 -0.3012 -0.1117
13999W        W18299  19.999   0.912   7.899 -0.0286 -0.1618  0.1881
14000W        W18300  28.650   0.118   9.984 -0.4396 -0.2152  0.2057
14001W        W18301   6.247   7.641  25.964 -0.1970  0.0819  0.0778
14002W        W18302  11.753   1.273   6.394  0.2955 -0.0377 -0.2135
14003W        W18303   6.787   0.447  11.295  0.0082  0.0427  0.1063
14004W        W18304   4.813   5.438   4.715 -0.0701  0.1409 -0.1110
14005W        W18305  25.662   3.053   8.135 -0.3279  0.3731  0.1241
14006W        W18306  17.606   1.987   1.994  0.0497 -0.1254 -0.2132
14007W        W18307  17.355   1.433   9.259  0.0074 -0.0775  0.2006
14008W        W18308  29.074   4.170  10.222 -0.1053  0.1619  0.0372
14009W        W18309  23.046   2.825  20.268  0.0674  0.3473  0.1685
14010W        W18310   6.446   7.504  24.888 -0.0293 -0.0226 -0.2433
14011W        W18311  18.177   2.179  19.850 -0.1248 -0.1785  0.0653
14012W        W18312  18.796   6.863   7.675  0.1117 -0.0927  0.0839
14013W        W18313  29.123   4.204   9.641  0.0058  0.0112 -0.1687
14014W        W18314   2.576   0.987   8.315 -0.2429  0.1634  0.0967
14015W        W18315  25.881   2.522  10.995 -0.1122  0.0675 -0.0167
14016W        W18316  19.915   7.380  22.373 -0.2107 -0.0749  0.2144
14017W        W18317  24.288   3.902  16.381  0.0755 -0.2271  0.0066
14018W        W18318  28.169   1.949  21.038 -0.0823 -0.0716 -0.1231
14019W        W18319  18.101   5.703  16.784 -0.0487 -0.1034  0.2440
14020W        W18320  29.145   3.940   5.588 -0.2541 -0.0926 -0.1186
14021W        W18321  15.147   0.170  21.456 -0.0110 -0.1661 -0.1919
14022W        W18322   9.581   5.150  20.398  0.3897  0.1663 -0.1198
14023W        W18323  22.644   6.720   4.121 -0.2071  0.0411  0.0586
14024W        W18324  15.203   7.608  25.669  0.2174  0.1834 -0.0656
14025W        W18325   3.150   0.323  22.837  0.0959 -0.2742 -0.1148
14026W        W18326   4.428   7.402   7.695  0.1653  0.0875  0.0110
14027W        W18327   1.193   4.732   4.671 -0.0704  0.1173  0.2088
14028W        W18328  24.296   2.027  25.114  0.0419 -0.2491 -0.1161
14029W        W18329  17.761   4.873  23.995 -0.2242  0.1217 -0.0838
14030W        W18330   6.305   2.045   7.754  0.3105 -0.0464 -0.2722
14031W        W18331   8.408   6.502   1.556  0.3670  0.2573  0.1907
14032W        W18332  10.510   1.820  10.786  0.0834 -0.4406 -0.1219
14033W        W18333  12.954   6.367   4.869  0.0116 -0.3020  0.0677
14034W        W18334   5.529   0.309   1.381 -0.1852  0.1376  0.0708
14035W        W18335   9.729   3.714  16.070 -0.1398  0.1752  0.1077
14036W        W18336   1.336   4.943   3.024  0.0052 -0.1441  0.1102
14037W        W18337   3.708   4.822   4.378 -0.3024  0.0565 -0.2173
14038W        W18338   2.920   7.766   1.204  0.1339  0.2021 -0.1976
14039W        W18339   8.536   2.046  18.972  0.0488  0.3584 -0.2191
14040W        W18340  30.534   3.215  11.486 -0.0919  0.0012 -0.0721
14041W        W18341  11.535   5.748  21.375 -0.2279 -0.3594  0.1705
14042W        W18342  27.730   3.901  18.975 -0.4439 -0.1679 -0.0667
14043W        W18343   7.739   4.845  17.346  0.0105  0.0892  0.1177
14044W        W18344  18.292   4.934   4.353 -0.0921 -0.3432 -0.1218
14045W        W18345   7.533   2.687   5.005 -0.0785  0.0001 -0.2304
14046W        W18346  22.747   5.237  17.306 -0.0618 -0.1765 -0.1703
14047W        W18347   6.276   0.711   1.795  0.0378  0.1740  0.0936
14048W        W18348   3.218   6.673   4.275  0.1363  0.2587  0.2052
14049W        W18349  13.572   2.966   3.327  0.2149 -0.3682  0.1601
14050W        W18350  12.163   2.226  25.792 -0.3890 -0.0844  0.0182
14051W        W18351  27.763   7.419  19.988 -0.4501  0.0028 -0.0001
14052W        W18352  27.058   2.999   1.228  0.1945 -0.0980  0.0333
14053W        W18353  11.993   0.386   8.502  0.1627 -0.1964  0.0234
14054W        W18354   9.736   4.565  18.062 -0.1585  0.0634  0.0180
14055W        W18355  17.882   3.648  24.658 -0.1062 -0.1641  0.0427
14056W        W18356   1.256   7.337   8.825 -0.1483 -0.3334 -0.0633
14057W        W18357   1.497   2.817   1.203 -0.0413  0.1030 -0.1915
14058W        W18358  11.826   5.915  20.347 -0.0117 -0.1351 -0.1125
14059W        W18359  16.494   3.381   9.748  0.1847 -0.2125 -0.2944
14060W        W18360  22.902   2.016  17.429 -0.0890  0.1565 -0.1733
14061W        W18361   3.686   5.958   3.442  0.1879  0.0604  0.1727
14062W        W18362  29.270   1.551  26.368  0.3172 -0.0291  0.0946
14063W        W18363  26.414   1.249   6.326 -0.1799 -0.2039  0.1401
14064W        W18364  29.889   7.696  23.988 -0.0625  0.3169  0.2171
14065W        W18365  16.975   4.863  16.852  0.1951 -0.1734 -0.5495
14066W        W18366   3.171   5.138  19.365 -0.2963  0.1900 -0.0967
14067W        W18367  15.508   4.355  20.593  0.0783  0.1140 -0.1314
14068W        W18368  28.649   1.293  18.689 -0.1986 -0.0171 -0.1892
14069W        W18369  27.475   0.768   8.335  0.1260  0.1015  0.1812
14070W        W18370  15.576   2.745  20.243  0.1775  0.1134  0.0421
14071W        W18371  23.433   4.488  20.822  0.2252 -0.0629  0.1608
14072W        W18372  28.100   4.004  20.899 -0.1576  0.1969  0.1517
14073W        W18373  17.776   3.593   0.215 -0.0404  0.1588 -0.0147
14074W        W18374  23.603   4.902  17.302 -0.1604  0.0068 -0.3234
14075W        W18375  10.493   4.683   5.093 -0.0236  0.0897  0.3173
14076W        W18376  24.494   0.919  16.674 -0.0251  0.0995  0.0614
14077W        W18377  16.703   5.672   0.117 -0.2200 -0.0758  0.1161
14078W        W18378  24.507   3.815  19.474  0.2911  0.0167  0.1120
14079W        W18379  20.344   5.431   6.276 -0.0928  0.0011  0.1169
14080W        W18380   1.375   0.298   7.510  0.1424 -0.0318  0.2195
14081W        W18381  11.644   2.542  21.289 -0.3267 -0.1350 -0.0431
14082W        W18382  21.691   1.391   5.370 -0.1533  0.1034  0.2687
14083W        W18383  19.896   7.781  17.375  0.0713 -0.0466  0.1867
14084W        W18384  14.187   2.855   7.418  0.1473 -0.4549 -0.0426
14085W        W18385  10.089   6.624   4.585 -0.0777 -0.2877  0.1277
14086W        W18386  30.322   7.111   1.279 -0.0550  0.0290 -0.1772
14087W        W18387  11.385   4.310  23.868 -0.6039 -0.1299  0.0829
14088W        W18388   9.627   5.600  18.083 -0.0920  0.1082 -0.0963
14089W        W18389  16.207   7.121   7.354  0.0473 -0.1838  0.0704
14090W        W18390   3.279   1.981   1.789 -0.0718  0.1224 -0.1447
14091W        W18391   0.898   0.091  20.240 -0.2130  0.0873 -0.1113
14092W        W18392   3.164   1.854   2.942 -0.1865  0.1123  0.0444
14093W        W18393   4.572   5.212   0.080 -0.1604  0.3112  0.0705
14094W        W18394  11.541   4.927   1.509 -0.0501 -0.0646  0.0420
14095W        W18395  11.008   5.970   9.560  0.1495  0.1350  0.1282
14096W        W18396  23.453   1.639   0.992  0.1556  0.0966  0.4445
14097W        W18397  17.155   4.805   5.543 -0.0064  0.2331 -0.0040
14098W        W18398  16.354   4.680  16.090 -0.0222 -0.0538 -0.1162
14099W        W18399  27.824   1.164  11.245  0.2406  0.0693  0.0090
14100W        W18400  15.868   0.414   2.397  0.2367  0.0233  0.1607
14101W        W18401   7.001   6.725  15.033 -0.2409  0.0426 -0.1279
14102W        W18402  17.083   7.221   3.081 -0.1076  0.1325  0.2439
14103W        W18403  17.528   4.023  25.329  0.1315 -0.1987  0.2089
14104W        W18404  30.017   2.325  11.264  0.1778  0.2866  0.1459
14105W        W18405  23.356   6.878   6.270  0.0441 -0.1535 -0.2276
14106W        W18406  22.433   5.741  17.954  0.1563 -0.0987 -0.0210
14107W        W18407  29.010   5.763  10.966  0.0012 -0.0413  0.0356
14108W        W18408  16.213   0.829   7.659 -0.0459  0.1034  0.1589
14109W        W18409  20.824   2.077   9.702 -0.0641  0.1449  0.1780
14110W        W18410  30.361   1.761   1.908  0.2716 -0.0212  0.1731
14111W        W18411  23.063   0.774  19.885  0.0776  0.1353  0.1498
14112W        W18412   2.324   6.962   8.955 -0.3705 -0.3271  0.1583
14113W        W18413   4.554   4.065  21.737 -0.1635 -0.2230  0.2206
14114W        W18414  24.570   1.153   0.340  0.0330  0.2681  0.0139
14115W        W18415  19.697   7.452  23.300 -0.0398  0.0619 -0.2389
14116W        W18416  16.737   7.498  21.066 -0.1176  0.1304  0.1777
14117W        W18417  26.936   1.538   3.537 -0.1251 -0.1024 -0.0646
14118W        W18418  22.046   0.793   0.588 -0.0208 -0.0326 -0.0636
14119W        W18419   4.204   6.750  15.642 -0.1233 -0.0322  0.0621
14120W        W18420  25.995   3.329   5.246  0.2203  0.2770  0.0441
14121W        W18421  16.847   7.144   4.024  0.3070  0.1734 -0.2392
14122W        W18422  15.247   7.539   1.485  0.1405  0.1293  0.0994
14123W        W18423   6.715   4.511   8.696  0.0155 -0.0769 -0.1957
14124W        W18424  19.119   6.739   2.243  0.0102  0.0960  0.0564
14125W        W18425   0.704   6.681  20.829 -0.1183 -0.0077 -0.1390
14126W        W18426  28.239   6.027   1.698  0.2835 -0.2366  0.0534
14127W        W18427  18.382   1.718  10.495  0.0536 -0.2895  0.0779
14128W        W18428  11.312   2.942   4.402 -0.1162  0.0352 -0.1107
14129W        W18429  19.903   1.127   9.453 -0.0612  0.1346 -0.0522
14130W        W18430  25.883   1.476  11.287 -0.1060 -0.0191  0.1845
14131W        W18431  12.920   1.100  10.460  0.0748  0.0589 -0.0168
14132W        W18432  20.645   3.733   7.146 -0.3299  0.0691  0.1667
14133W        W18433  22.793   4.528  10.224 -0.0201 -0.0334  0.1634
14134W        W18434   8.473   2.496   7.929  0.0007  0.2270 -0.2862
14135W        W18435   3.797   4.657  25.304 -0.0928  0.0036 -0.0384
14136W        W18436  16.426   3.249   8.172 -0.1088 -0.0228 -0.1701
14137W        W18437  27.977   0.371   9.615  0.1151  0.1715 -0.1554
14138W        W18438  27.798   3.647   2.517 -0.0883 -0.2117 -0.0971
14139W        W18439  26.843   5.436   9.689  0.2616  0.1519  0.3533
14140W        W18440  29.669   0.893   5.044 -0.1169  0.4293 -0.0209
14141W        W18441  11.969   3.536  16.093  0.1655  0.1365  0.3042
14142W        W18442   5.415   6.107   0.435 -0.0190  0.1666  0.0921
14143W        W18443  11.679   0.428   6.020 -0.1004 -0.0722 -0.1015
14144W        W18444   5.500   4.848  22.555  0.4222 -0.0817 -0.2246
14145W        W18445  16.753   7.384  16.945 -0.0043 -0.1652 -0.2188
14146W        W18446  10.586   1.890   2.056  0.0700 -0.0211 -0.4062
14147W        W18447   2.317   3.835  26.409 -0.1258  0.1513 -0.0851
14148W        W18448   6.827   2.989  21.134  0.1799 -0.0178 -0.1484
14149W        W18449  18.771   3.830  18.799  0.2039 -0.1423  0.0252
14150W        W18450   2.462   1.047  25.102  0.2034  0.2545  0.4031
14151W        W18451   8.601   3.510   7.876 -0.0824  0.2890 -0.1947
14152W        W18452  23.822   0.652  10.490  0.2110  0.0891  0.1175
14153W        W18453  20.784   4.772  23.962  0.2004 -0.1814  0.0446
14154W        W18454   9.458   6.946  22.267  0.0481  0.1015  0.1292
14155W        W18455  13.195   7.557   4.635 -0.1838 -0.3002 -0.0692
14156W        W18456  19.850   2.091   4.091 -0.2160 -0.0017  0.0257
14157W        W18457  10.763   3.036  16.427  0.2504 -0.0556  0.0876
14158W        W18458  21.487   0.866  15.253  0.0135  0.0175 -0.1383
14159W        W18459   6.772   6.387  16.640  0.5030 -0.0338  0.2088
14160W        W18460  21.785   6.048   8.349  0.2008 -0.4084  0.0021
14161W        W18461  24.751   3.496   4.132  0.0666  0.0894  0.0431
14162W        W18462  11.827   1.965   4.483  0.2597 -0.1608  0.1458
14163W        W18463  10.650   2.111  11.489  0.2022  0.4029  0.1718
14164W        W18464  27.989   2.405   9.434 -0.0562 -0.1045  0.1741
14165W        W18465   6.264   0.473  21.289 -0.0322 -0.0779  0.2037
14166W        W18466  20.019   0.617  16.775 -0.2463  0.1272 -0.0753
14167W        W18467   1.884   1.865   3.494  0.0697  0.2900  0.2069
14168W        W18468  12.684   6.037  17.425  0.0272  0.2312 -0.2605
14169W        W18469  26.233   7.760   9.420 -0.1620  0.4316  0.3454
14170W        W18470  29.086   6.136  15.856  0.0676  0.1069 -0.0233
14171W        W18471  26.632   1.615   0.793 -0.1068 -0.1287  0.2311
14172W        W18472   3.397   5.537  24.551 -0.0177  0.2575  0.1809
14173W        W18473  21.982   3.444  20.681  0.0072  0.1511 -0.3243
14174W        W18474  30.543   6.758  18.858  0.0560  0.0838  0.1604
14175W        W18475   3.019   3.910   8.601  0.0615  0.3321  0.2548
14176W        W18476  19.632   7.439   8.055  0.0962  0.1771  0.1138
14177W        W18477  30.332   6.533   5.633 -0.1867  0.2082  0.0145
14178W        W18478  22.232   3.775  18.339  0.0462 -0.0214 -0.2199
14179W        W18479   4.303   6.761  17.596 -0.3883  0.0863  0.0723
14180W        W18480  12.756   4.188   6.832  0.0366  0.2496  0.1731
14181W        W18481  27.175   4.634  20.048  0.1098  0.1521  0.1857
14182W        W18482  22.200   4.423   3.260  0.1052  0.1937 -0.0903
14183W        W18483   9.154   6.948  18.295  0.0317 -0.0406 -0.0641
14184W        W18484  11.341   0.652   0.272  0.4247 -0.2690  0.1251
14185W        W18485  22.249   1.846  20.255  0.0632  0.1222  0.0105
14186W        W18486  20.873   6.760  25.767  0.1351  0.1524  0.1040
14187W        W18487   8.976   2.752  25.792 -0.0953 -0.1108  0.2699
14188W        W18488  22.854   6.660  18.412  0.5964  0.0001 -0.0246
14189W        W18489   7.754   5.431   8.984  0.1103  0.0093 -0.2666
14190W        W18490  12.205   5.593   0.601  0.1112  0.0704  0.1450
14191W        W18491  21.881   2.352   3.080 -0.0707  0.3638  0.2507
14192W        W18492  10.366   2.519  25.901 -0.3596  0.1183 -0.0325
14193W        W18493  22.578   2.024   6.999  0.0795 -0.2421  0.0435
14194W        W18494  18.271   5.524  17.728 -0.3267 -0.1785  0.3252
14195W        W18495   0.425   2.834  15.351  0.0006  0.1962  0.0834
14196W        W18496  17.226   3.546   4.561 -0.0623 -0.2215  0.2973
14197W        W18497  28.002   7.147  16.594  0.0030 -0.2764  0.0174
14198W        W18498   8.499   6.401   5.425  0.1736 -0.3470  0.1176
14199W        W18499   9.887   1.309   7.406  0.0947 -0.1766 -0.3043
14200W        W18500  21.319   6.375   6.824 -0.2828 -0.0810  0.0712
14201W        W18501   5.289   2.116   4.884 -0.0381  0.0471 -0.0011
14202W        W18502  22.916   2.947  25.679  0.0158 -0.1629  0.0414
14203W        W18503  13.023   6.239  10.532 -0.1587  0.0334  0.1673
14204W        W18504  25.577   3.580  21.780  0.1028 -0.2422  0.0043
14205W        W18505  25.250   2.867   5.033  0.1164 -0.1326 -0.1973
14206W        W18506  15.098   7.429  19.422 -0.3520  0.2650  0.2248
14207W        W18507   2.810   1.269  17.685 -0.1404  0.3863 -0.1837
14208W        W18508  17.748   2.476   8.287 -0.0833  0.3003  0.0399
14209W        W18509  10.631   6.707  21.931 -0.0773  0.0962  0.0319
14210W        W18510  12.159   2.372  24.070 -0.2915  0.2256 -0.0436
14211W        W18511  18.941   1.898   6.708 -0.0032  0.4620 -0.2693
14212W        W18512   4.414   7.176   4.414 -0.0238 -0.4143  0.2015
14213W        W18513  13.741   3.796  19.297 -0.1111  0.0137  0.2340
14214W        W18514   4.503   0.396   6.355 -0.1308  0.3660  0.0192
14215W        W18515  22.738   2.691  11.121 -0.2026  0.0268  0.1224
14216W        W18516  14.508   6.446  26.415 -0.1075 -0.1732 -0.0872
14217W        W18517  18.963   0.504  21.567  0.1654  0.0389  0.1703
14218W        W18518   8.262   4.945  10.543 -0.0958 -0.2270 -0.0360
14219W        W18519  19.234   0.310  22.434 -0.0690  0.1932 -0.1485
14220W        W18520   5.983   1.700   6.842  0.4798 -0.0524  0.1040
14221W        W18521  19.708   5.409  16.149  0.0395 -0.3424 -0.0263
14222W        W18522  31.175   7.532  26.120  0.1586  0.2881 -0.2784
14223W        W18523  28.886   6.171  25.935 -0.0837  0.1124 -0.1932
14224W        W18524   1.584   3.493  19.344 -0.2108 -0.0562  0.1789
14225W        W18525   2.399   5.572   8.505 -0.1369  0.0791  0.2534
14226W        W18526  18.096   6.773   8.546  0.1771  0.2791 -0.2782
14227W        W18527   0.122   1.506   7.613  0.1089 -0.0009 -0.1123
14228W        W18528  28.370   6.008  18.975 -0.0067 -0.0324  0.0325
14229W        W18529  31.136   4.128   5.419  0.0122 -0.1757  0.0001
14230W        W18530  16.305   0.354   2.678 -0.0875 -0.1923  0.1193
14231W        W18531   7.058   3.956  22.939  0.3641 -0.2567  0.1484
14232W        W18532  30.114   6.443  15.367 -0.0674 -0.1066  0.0633
14233W        W18533  18.718   6.091   5.848 -0.2008 -0.3834  0.0500
14234W        W18534  29.953   2.594  20.245 -0.0423  0.2074 -0.2500
14235W        W18535  29.701   2.550   9.457 -0.0821 -0.0076  0.0375
14236W        W18536  19.569   6.959   2.909  0.0027 -0.0609 -0.1189
14237W        W18537  12.379   6.586  22.467 -0.2123 -0.0575 -0.2126
14238W        W18538  10.153   7.203   7.856  0.2090 -0.1648 -0.1042
14239W        W18539   3.858   2.764   2.550  0.3405  0.0267 -0.0378
14240W        W18540  26.930   6.239   2.459  0.0398  0.0028 -0.0636
14241W        W18541   0.069   3.133  22.314 -0.0047  0.1217  0.1410
14242W        W18542  30.222   5.129   0.055  0.1627 -0.1430 -0.4975
14243W        W18543  11.653   2.535  23.921  0.0044 -0.0192 -0.0805
14244W        W18544  13.957   3.564  22.062 -0.0346  0.0137 -0.0671
14245W        W18545  17.716   2.770  16.274 -0.0152 -0.1522 -0.2474
14246W        W18546  28.731   7.273  19.244  0.2322 -0.0087 -0.2804
14247W        W18547  21.334   2.461   6.115 -0.2196 -0.0194 -0.3207
14248W        W18548  26.856   0.935  22.094 -0.0221  0.3930  0.2140
14249W        W18549  30.222   6.276  21.340 -0.0135  0.0255 -0.0513
14250W        W18550  28.250   0.955   5.821 -0.0499 -0.0714  0.0271
14251W        W18551   9.721   0.132  22.323 -0.1001  0.3875 -0.1453
14252W        W18552   5.098   5.905  26.107  0.1924  0.1276  0.1537
14253W        W18553   1.783   2.654   0.450  0.0912  0.3026 -0.0947
14254W        W18554  20.593   2.001  21.204 -0.3112  0.0953  0.2552
14255W        W18555  21.901   0.366  19.949  0.0941  0.2005  0.0557
14256W        W18556  29.060   6.568   9.896  0.1300 -0.1147  0.1819
14257W        W18557  18.812   4.649   4.108 -0.0328  0.2276 -0.1630
14258W        W18558  15.619   0.971   6.964  0.1731  0.3254 -0.1817
14259W        W18559  25.049   0.691   5.153 -0.2086  0.1340 -0.2430
14260W        W18560  26.429   7.442  22.271  0.0451 -0.2238 -0.3474
14261W        W18561  17.852   2.494   9.543  0.1964 -0.0453  0.4202
14262W        W18562   7.997   4.605   2.082 -0.2438 -0.0391 -0.0135
14263W        W18563  11.269   2.929  20.411  0.2598  0.1418 -0.1111
14264W        W18564  12.288   1.019  20.515 -0.0689  0.0616 -0.4127
14265W        W18565  28.035   6.045  10.856  0.1497 -0.0892  0.1844
14266W        W18566   7.033   0.979   6.435  0.0017  0.1175 -0.1672
14267W        W18567  20.753   3.976  10.707  0.4949  0.1089  0.1384
14268W        W18568  18.260   3.932   3.255 -0.0535  0.0156 -0.3007
14269W        W18569   0.347   7.312  22.068 -0.1518  0.2770  0.0583
14270W        W18570  18.508   2.376  26.117  0.0390  0.3429 -0.0849
14271W        W18571  13.405   6.507  10.324 -0.0167  0.3837  0.2158
14272W        W18572   7.871   2.504  17.195  0.0881 -0.0240  0.0550
14273W        W18573   1.404   4.625   9.101  0.0902  0.2329  0.0339
14274W        W18574   4.958   2.162   0.263 -0.0205 -0.2966  0.0241
14275W        W18575   4.308   3.380   5.604 -0.0242 -0.1966 -0.1254
14276W        W18576  21.888   3.083   6.531  0.3122 -0.0764  0.1093
14277W        W18577  29.470   4.599  16.640 -0.1405  0.2417 -0.2601
14278W        W18578  12.213   5.106  15.959 -0.2535 -0.2235 -0.0393
14279W        W18579  11.824   5.195  21.267 -0.2366  0.1733  0.0421
14280W        W18580  30.490   2.391   9.955  0.1905  0.1900 -0.1290
14281W        W18581   9.440   1.987  26.082  0.3121 -0.0779 -0.0533
14282W        W18582   3.433   0.680  19.144 -0.1281 -0.0681 -0.0144
14283W        W18583   3.405   3.246   0.631  0.3913  0.0357  0.0490
14284W        W18584   0.876   2.331   5.748 -0.2555 -0.0806  0.3475
14285W        W18585  15.230   0.540   0.195  0.1534 -0.0604 -0.1237
14286W        W18586   3.735   6.428  17.005 -0.3918 -0.0838  0.0475
14287W        W18587   1.023   5.295  18.206 -0.0737 -0.0229  0.1101
14288W        W18588  23.409   6.148   9.129  0.1784  0.1693 -0.1297
14289W        W18589  31.120   7.637   0.592  0.1365  0.0116 -0.4087
14290W        W18590   6.205   0.573   0.780 -0.0155 -0.1187  0.1675
14291W        W18591  27.254   0.415  11.418 -0.1880 -0.1293  0.1372
14292W        W18592  17.292   6.570   9.200  0.1698 -0.1239  0.1123
14293W        W18593  16.498   4.832  19.257  0.2302 -0.0446 -0.1851
14294W        W18594  29.948   7.174   4.068  0.0805  0.2218  0.0739
14295W        W18595  13.744   5.174   0.720  0.0137  0.3226  0.0349
14296W        W18596  13.550   0.674   2.678 -0.1325  0.1144 -0.1187
14297W        W18597   2.611   1.265  16.540  0.0020  0.0365 -0.2061
14298W        W18598  29.489   7.194   6.251 -0.0560 -0.2636 -0.0048
14299W        W18599  28.683   7.196   6.171  0.0935  0.1837 -0.0020
14300W        W18600  29.340   5.036   9.939 -0.0023 -0.4139  0.2615
14301W        W18601  23.992   4.727  18.580  0.2976  0.1185  0.0305
14302W        W18602   2.999   0.470  17.970 -0.2274  0.0344  0.0997
14303W        W18603   5.630   4.233  16.103 -0.1790 -0.1247 -0.0705
14304W        W18604  28.945   2.944  19.704  0.2058  0.0262 -0.1111
14305W        W18605   1.351   0.631  16.323 -0.3855  0.0913  0.0051
14306W        W18606  30.722   2.488  18.368 -0.1176  0.1792 -0.3638
14307W        W18607   8.884   5.196   8.558  0.0010  0.0124  0.2486
14308W        W18608   5.481   3.132  20.757 -0.1418 -0.3052 -0.2105
14309W        W18609  14.967   1.316  25.359  0.0294  0.3155  0.1835
14310W        W18610  26.248   5.466   5.319  0.4793  0.2255 -0.1184
14311W        W18611  13.569   7.455   0.115  0.0551  0.0715 -0.1566
14312W        W18612   8.338   2.317   5.458  0.1295 -0.2402 -0.0568
14313W        W18613  14.291   1.493  19.581  0.0908 -0.1233  0.0711
14314W        W18614  17.862   2.678  10.694  0.0627  0.3810  0.1396
14315W        W18615  13.438   4.081  10.247 -0.2317 -0.3656 -0.1523
14316W        W18616   3.543   1.909   2.672  0.0941 -0.0644  0.1154
14317W        W18617  30.948   0.090  19.244 -0.1112  0.2712  0.0208
14318W        W18618  28.619   2.003  15.464 -0.3292 -0.2042 -0.2832
14319W        W18619  11.357   0.612   3.438  0.1122  0.1152  0.2036
14320W        W18620   6.149   4.035  16.836  0.2241  0.1121 -0.0579
14321W        W18621   6.210   3.783  21.991 -0.1633 -0.4105 -0.0790
14322W        W18622  16.224   4.235   2.377  0.4915 -0.0949  0.2699
14323W        W18623  29.247   0.033  17.286  0.1492  0.0494  0.3396
14324W        W18624   3.289   3.452   3.937  0.2315  0.3244 -0.0666
14325W        W18625  13.274   7.221   2.177  0.1616 -0.0002  0.0231
14326W        W18626   6.757   6.017  19.513 -0.0322 -0.2814  0.1118
14327W        W18627  27.749   3.977   0.608 -0.0891  0.0130 -0.0723
14328W        W18628   8.712   2.130   3.562 -0.1349  0.1576 -0.1251
14329W        W18629   7.653   5.117   4.436 -0.0055 -0.2671 -0.1072
14330W        W18630   4.716   0.084   9.772 -0.1599 -0.1356 -0.1444
14331W        W18631  29.677   3.040  21.378  0.1829  0.3479 -0.3211
14332W        W18632  17.796   7.291  16.129  0.1851 -0.0409  0.2807
14333W        W18633  24.790   3.859  16.374  0.5201  0.0921  0.0774
14334W        W18634  12.702   0.063  25.408 -0.1979  0.0115  0.1680
14335W        W18635  13.638   3.840   9.326  0.0118 -0.1050 -0.1161
14336W        W18636   3.328   5.108   4.630 -0.1226 -0.0145 -0.3009
14337W        W18637  16.654   3.766  20.255 -0.0716 -0.1631  0.0005
14338W        W18638   8.469   1.699  26.309 -0.0785 -0.2938 -0.2655
14339W        W18639  22.351   2.000   5.181  0.1940  0.1973  0.0510
14340W        W18640  11.001   4.979  26.188  0.0059 -0.0101  0.2800
14341W        W18641  12.655   4.365  18.174  0.1875  0.2184  0.2458
14342W        W18642  21.442   4.653   2.617  0.0665 -0.3332 -0.1181
14343W        W18643   8.757   1.204   5.514  0.2570  0.1224 -0.4000
14344W        W18644  12.994   1.053   3.849 -0.2081  0.1525  0.0543
14345W        W18645  29.484   1.297   1.992  0.1765  0.1730 -0.2448
14346W        W18646  16.350   3.332  24.866  0.1773  0.1978  0.0226
14347W        W18647  14.334   4.246  21.395  0.0508 -0.0171  0.3314
14348W        W18648   2.473   0.331  17.822 -0.0026  0.2874 -0.0638
14349W        W18649  26.641   5.482   0.833 -0.0786 -0.3392  0.1191
14350W        W18650  10.135   4.473   5.511 -0.1439 -0.1761  0.0763
14351W        W18651  18.556   0.687   0.747  0.0752 -0.1363  0.1421
14352W        W18652   5.354   1.040  20.657  0.0029 -0.0884  0.0368
14353W        W18653  18.721   1.967  15.534  0.2065  0.2208 -0.1854
14354W        W18654  19.379   3.157  25.482 -0.0957 -0.0461  0.1611
14355W        W18655   5.177   5.457  21.498 -0.0408 -0.0594  0.1404
14356W        W18656  14.814   2.706  19.521 -0.1208  0.1486  0.2824
14357W        W18657  28.202   0.688  10.372  0.0421  0.0259  0.0070
14358W        W18658  10.767   2.436   4.653 -0.3554  0.0071 -0.0758
14359W        W18659  20.736   3.273  19.569 -0.1918 -0.0961  0.0504
14360W        W18660  20.417   0.715  17.109  0.0805 -0.1338 -0.0162
14361W        W18661  31.031   6.109   8.431  0.0983  0.0093  0.0648
14362W        W18662   2.197   5.633  21.212  0.2328 -0.2598 -0.0234
14363W        W18663   2.249   4.670  17.794  0.1607 -0.0313 -0.0413
14364W        W18664   2.643   4.463   9.818  0.0026  0.1620  0.1198
14365W        W18665   0.278   5.466  19.794  0.2952 -0.5041 -0.1358
14366W        W18666   0.613   2.397  25.177  0.1087 -0.2811 -0.2044
14367W        W18667  11.734   3.031   7.759  0.3578 -0.0539 -0.0808
14368W        W18668  23.852   3.788  17.239  0.2125  0.1732  0.2760
14369W        W18669  11.791   5.903  22.869  0.1488  0.2398 -0.0188
14370W        W18670  18.158   3.708  17.983  0.0676  0.3179 -0.0238
14371W        W18671  28.096   6.958  20.355  0.1422 -0.0197 -0.1381
14372W        W18672   4.308   0.224   8.626  0.0452 -0.0174  0.0295
14373W        W18673  20.085   6.352   7.692 -0.0859 -0.2007 -0.1653
14374W        W18674  18.740   7.288   1.516  0.1526  0.0315 -0.0554
14375W        W18675  23.543   7.336  17.198 -0.3947  0.1375  0.0806
14376W        W18676  10.252   7.608   5.123 -0.0071 -0.1888 -0.2338
14377W        W18677  27.686   5.082   8.431 -0.2019  0.0958  0.0138
14378W        W18678  25.551   5.607   7.345 -0.3100 -0.1580  0.3255
14379W        W18679  12.974   2.806  23.745 -0.4094  0.0328 -0.2074
14380W        W18680  10.636   7.529  21.369 -0.0800 -0.1442  0.3624
14381W        W18681  22.136   3.355  19.243 -0.1312  0.1135  0.0048
14382W        W18682   4.408   0.170  10.277 -0.0931 -0.0654  0.1043
14383W        W18683  25.210   4.387   0.242 -0.0723 -0.1010 -0.0168
14384W        W18684   5.861   1.468   5.154 -0.2131 -0.1905  0.2534
14385W        W18685  22.379   6.637  22.311  0.3828  0.0562 -0.0438
14386W        W18686  23.003   1.534  17.346  0.0029  0.1802 -0.0841
14387W        W18687   0.133   3.736  23.879  0.0879 -0.0030 -0.2425
14388W        W18688   0.274   7.711  19.748 -0.0030 -0.0294 -0.0348
14389W        W18689  22.123   3.063   3.933  0.1606 -0.0425  0.0019
14390W        W18690   5.664   4.525  21.702 -0.0597 -0.1814  0.0207
14391W        W18691   9.316   3.095  18.811  0.0660 -0.0566  0.1764
14392W        W18692   2.403   1.417  25.434 -0.1627  0.0811  0.0927
14393W        W18693  10.376   0.892  20.377 -0.2060 -0.0127  0.3322
14394W        W18694  25.739   5.409  23.316 -0.1781 -0.3844 -0.2272
14395W        W18695   5.406   5.205  16.598 -0.2825 -0.0716 -0.2215
14396W        W18696  27.320   4.853   8.679 -0.1934 -0.0868  0.0772
14397W        W18697   2.806   6.918  20.496  0.0109  0.2276 -0.0745
14398W        W18698  10.384   6.991  26.057 -0.0218  0.1082  0.2669
14399W        W18699  28.665   0.502   4.623 -0.0631  0.0719  0.2402
14400W        W18700  24.488   7.425   7.113 -0.0896  0.3257 -0.1524
14401W        W18701   9.771   5.807  15.660  0.2479  0.0169 -0.0794
14402W        W18702  27.397   6.452   1.663  0.0256 -0.0343  0.2000
14403W        W18703  17.653   7.749  24.456 -0.1206  0.1687  0.0322
14404W        W18704  21.433   7.329  24.573 -0.2748  0.1668  0.0466
14405W        W18705  19.502   0.030  20.391 -0.1842 -0.0914 -0.2026
14406W        W18706   7.950   1.835  24.870  0.0756 -0.0702 -0.1161
14407W        W18707   9.264   2.124   6.445 -0.0521 -0.1395 -0.0824
14408W        W18708  15.434   3.069   9.150 -0.0389  0.2181 -0.0261
14409W        W18709   1.933   7.256   9.600 -0.0344 -0.2784  0.0859
14410W        W18710  20.648   3.360  23.894 -0.1523  0.0637  0.0670
14411W        W18711  12.728   5.741   5.775  0.2652  0.2588 -0.0148
14412W        W18712  10.287   0.091  24.964 -0.1817 -0.0365  0.1534
14413W        W18713  11.262   6.473   6.127  0.1321 -0.5058 -0.3219
14414W        W18714  21.780   4.864  19.167  0.0201 -0.0301  0.1907
14415W        W18715   6.687   0.785   5.981 -0.2188 -0.0328  0.0863
14416W        W18716   0.696   6.549   6.977  0.0428  0.3430  0.2059
14417W        W18717  15.169   2.326   9.049  0.1487  0.1616 -0.0300
14418W        W18718  25.215   5.550  10.168  0.0694  0.2588  0.0704
14419W        W18719   1.207   0.831  17.841 -0.3073  0.1117  0.2416
14420W        W18720  18.084   2.657   4.721 -0.0782 -0.1686 -0.2506
14421W        W18721  12.646   2.090   4.254 -0.0112 -0.1128  0.5108
14422W        W18722  11.825   4.469  25.837 -0.2781 -0.3066 -0.1142
14423W        W18723   8.340   3.123  21.991  0.0138  0.0892  0.1731
14424W        W18724  12.786   2.269  17.743  0.0803  0.3696 -0.1415
14425W        W18725  16.996   5.684  18.348  0.0495  0.1904 -0.3689
14426W        W18726  22.544   4.950   1.753  0.1757  0.0801  0.0009
14427W        W18727   8.096   5.070   6.879 -0.3001 -0.1248  0.0379
14428W        W18728  23.194   4.627  17.999 -0.1137 -0.1520 -0.4329
14429W        W18729  29.156   3.364   5.013  0.0610 -0.2345  0.3205
14430W        W18730  19.471   3.570  16.528 -0.2585  0.0043  0.0355
14431W        W18731  26.905   0.913   7.617 -0.2073  0.2879  0.0206
14432W        W18732   2.560   6.389   0.958  0.1410 -0.2616 -0.2734
14433W        W18733  13.741   4.980   8.050  0.2726 -0.0490  0.2129
14434W        W18734  20.083   7.341   6.202  0.0522  0.0148 -0.5114
14435W        W18735  14.227   4.463  15.616 -0.0969 -0.2279 -0.0907
14436W        W18736  22.529   3.991  16.006  0.0544 -0.4641 -0.1205
14437W        W18737  24.294   0.966  18.620  0.0969 -0.0333 -0.0030
14438W        W18738   2.520   5.725  19.834  0.0068  0.3631 -0.0134
14439W        W18739   8.147   6.110  18.931  0.3045 -0.0222 -0.2602
14440W        W18740  16.998   4.166  25.765  0.2857  0.0535 -0.4004
14441W        W18741   4.223   1.485   1.015  0.1533  0.0567  0.0420
14442W        W18742   4.277   5.481  10.169  0.0566  0.4250  0.3893
14443W        W18743  13.612   5.879  26.032 -0.2765 -0.1615 -0.4916
14444W        W18744  10.149   3.228  19.626 -0.1027 -0.1575  0.3259
14445W        W18745   7.602   1.322  15.464 -0.2093 -0.0139 -0.0209
14446W        W18746  18.481   3.022  10.072  0.0610 -0.0497 -0.1734
14447W        W18747   4.117   0.210  19.533 -0.0793  0.0211  0.3095
14448W        W18748   9.498   7.242   6.937  0.1771  0.2359  0.0960
14449W        W18749  21.903   5.902  19.698 -0.0924 -0.0104  0.0975
14450W        W18750  16.164   5.882  19.726  0.2869  0.0762 -0.0581
14451W        W18751   2.758   2.510  17.360 -0.2316  0.1321 -0.1496
14452W        W18752  10.770   6.044  26.273  0.0428  0.2334 -0.2452
14453W        W18753   6.338   6.420  25.432  0.1827 -0.0750  0.0876
14454W        W18754   1.606   5.840  23.761  0.0968  0.3146 -0.1502
14455W        W18755  20.138   7.358  17.624 -0.0874  0.2665  0.0843
14456W        W18756   4.730   2.829  25.961 -0.0702  0.1293 -0.1449
14457W        W18757  23.396   1.315  23.013  0.1583 -0.1122  0.0710
14458W        W18758  19.711   6.448   9.237  0.0908  0.0047  0.2736
14459W        W18759  22.695   3.378   7.848 -0.1221 -0.0948  0.1380
14460W        W18760   9.027   4.047  19.930 -0.0681  0.0195  0.1026
14461W        W18761   6.184   3.718   4.053  0.0951  0.0121  0.1501
14462W        W18762  16.606   2.063  17.553 -0.2594  0.2521 -0.0644
14463W        W18763  18.494   4.060  21.114  0.0718 -0.2027  0.1860
14464W        W18764   6.657   7.393  25.844 -0.2465  0.1575 -0.1490
14465W        W18765   2.160   2.615  10.930 -0.1824  0.1142 -0.1747
14466W        W18766  21.735   4.812  21.115 -0.1841 -0.1840  0.0526
14467W        W18767  25.311   1.440  21.195 -0.3890  0.2598  0.0466
14468W        W18768  13.666   4.780   6.891  0.0695  0.0833 -0.0556
14469W        W18769  13.307   5.393  16.349  0.1856 -0.1489  0.1984
14470W        W18770   0.784   6.950   9.642 -0.2938  0.1024  0.1298
14471W        W18771  21.142   3.146  22.831  0.4172  0.2033  0.1454
14472W        W18772  11.404   7.499  16.793  0.1281  0.1452 -0.2003
14473W        W18773  25.378   0.780  10.721  0.0783  0.2388  0.2327
14474W        W18774  30.511   7.169   9.789  0.1014 -0.2118  0.1508
14475W        W18775  29.122   5.629   2.229 -0.0697 -0.1152  0.0726
14476W        W18776  10.669   2.287   5.821 -0.1040  0.0340 -0.1291
14477W        W18777   5.362   1.283   5.155  0.0153 -0.1667 -0.1095
14478W        W18778   2.349   7.010  25.304 -0.2106  0.0169  0.1895
14479W        W18779   6.515   3.424   8.846  0.2300  0.1174  0.1745
14480W        W18780   0.672   3.256   9.646 -0.1433 -0.2227 -0.0428
14481W        W18781  26.613   4.233   9.235  0.0160 -0.0783  0.2396
14482W        W18782  24.308   2.509  23.910 -0.3306  0.4552  0.0525
14483W        W18783  28.347   4.749   1.634  0.1132 -0.0702 -0.1642
14484W        W18784  15.925   4.235  14.666 -0.0762 -0.1151 -0.2007
14485W        W18785   5.882   2.878   5.754 -0.0039  0.0351 -0.1482
14486W        W18786  22.682   6.199  10.156  0.1399  0.0397  0.2657
14487W        W18787  25.165   1.286   5.575  0.0026  0.1577 -0.0553
14488W        W18788   0.642   5.376   4.259 -0.0065 -0.1215  0.0760
14489W        W18789  13.124   0.194   3.563  0.1551  0.0268 -0.0487
14490W        W18790  27.994   0.036   1.564 -0.1143 -0.0466 -0.0600
14491W        W18791  14.133   6.249   9.844  0.1411 -0.1071  0.2364
14492W        W18792  26.258   3.733  10.986 -0.3256 -0.1088 -0.1208
14493W        W18793  30.114   1.500  21.555  0.0718 -0.0154  0.0127
14494W        W18794  22.495   6.227  25.964  0.0679  0.1845 -0.1246
14495W        W18795  22.026   4.569  23.627 -0.2548  0.0024 -0.0513
14496W        W18796  28.510   7.665   6.183  0.1380 -0.0612  0.0925
14497W        W18797  29.331   3.682   0.723  0.3768 -0.1179  0.2529
14498W        W18798  29.579   2.727  24.104 -0.0193  0.1210 -0.0834
14499W        W18799  26.848   3.863  15.671  0.0958 -0.4071 -0.1748
14500W        W18800   5.652   3.913   6.918 -0.0244 -0.2496  0.0686
14501W        W18801  13.469   5.471  15.154 -0.2391  0.2169 -0.0513
14502W        W18802  20.585   0.007   4.068 -0.2903  0.2055  0.1208
14503W        W18803  12.551   0.299  16.887  0.1182 -0.1407  0.1011
14504W        W18804  22.882   7.753  11.708 -0.0316 -0.0946  0.0222
14505W        W18805  18.459   6.736  18.823  0.0946 -0.1027  0.3903
14506W        W18806   0.236   3.463   6.532 -0.0538 -0.3472  0.1820
14507W        W18807  11.266   0.807   8.311  0.0027 -0.1550  0.0330
14508W        W18808  24.185   3.502   3.447  0.3461  0.2279  0.0095
14509W        W18809   8.556   3.549   9.739  0.2356 -0.1820  0.1267
14510W        W18810   0.226   5.047  22.908 -0.2735 -0.2084 -0.2942
14511W        W18811  23.921   3.964  19.078  0.1188 -0.0649  0.0137
14512W        W18812  23.208   7.182   4.686  0.1121  0.0184 -0.1170
14513W        W18813  19.369   3.824  18.844  0.1148 -0.0771 -0.1199
14514W        W18814   9.152   0.992   1.468  0.1411  0.0500 -0.1826
14515W        W18815  26.530   2.074   4.834 -0.1075 -0.2323 -0.0440
14516W        W18816  30.358   7.186  19.149  0.1260  0.3316 -0.0201
14517W        W18817  27.065   7.622  10.664  0.1207  0.0551 -0.2816
14518W        W18818   9.000   4.949  20.972  0.0800 -0.0177 -0.1351
14519W        W18819  21.697   0.191   6.213 -0.1408  0.0949  0.0735
14520W        W18820   8.648   4.564  10.677 -0.0342  0.1284 -0.1390
14521W        W18821  22.779   3.457  25.336  0.0526  0.1867 -0.0797
14522W        W18822   6.446   7.088  16.290  0.0214  0.0688  0.2494
14523W        W18823   4.983   0.641   0.485  0.1300 -0.1781 -0.1134
14524W        W18824   0.388   6.305   0.206  0.1593  0.5144 -0.0240
14525W        W18825  15.558   1.496   2.721  0.0444  0.0517 -0.0341
14526W        W18826  29.750   6.318  20.695  0.3493 -0.0739 -0.1628
14527W        W18827   2.777   3.284  16.460  0.1230  0.0936  0.3507
14528W        W18828  24.038   7.728   4.089 -0.0428 -0.0315  0.1094
14529W        W18829   7.666   7.618   6.948 -0.1595 -0.0388 -0.1264
14530W        W18830   3.363   3.574  24.683  0.0649 -0.1981  0.2722
14531W        W18831  26.492   6.642   3.801 -0.2695  0.0260 -0.0145
14532W        W18832  24.415   0.014  18.023 -0.0870  0.2391  0.4190
14533W        W18833  22.887   0.054   7.821 -0.1133  0.0101 -0.0716
14534W        W18834  29.357   6.635   1.764 -0.2992  0.1359  0.1665
14535W        W18835  28.319   0.157  17.816 -0.0005 -0.0291  0.2692
14536W        W18836  17.865   1.234  26.085  0.0939 -0.2295  0.1725
14537W        W18837   3.282   4.206   3.527  0.0244 -0.4819 -0.1418
14538W        W18838   4.691   4.336   7.355  0.0295  0.1136  0.0548
14539W        W18839  11.023   6.716   0.636  0.0812  0.2096  0.1330
14540W        W18840   0.964   1.327   0.555 -0.1034 -0.2371 -0.2764
14541W        W18841  22.283   4.354  15.271 -0.2287 -0.0498  0.2699
14542W        W18842  18.141   1.456  26.407 -0.2038  0.2757 -0.3351
14543W        W18843   9.564   3.597   8.018 -0.1625  0.0578 -0.4105
14544W        W18844  21.538   6.406   8.105 -0.0365  0.2032 -0.0875
14545W        W18845  17.459   1.695   2.447 -0.2910  0.2562 -0.1541
14546W        W18846   3.347   1.604  15.970 -0.0359  0.2589  0.0301
14547W        W18847  10.162   6.964  19.228 -0.0001 -0.1101 -0.1471
14548W        W18848  11.788   4.181   9.372  0.3468  0.4117 -0.0913
14549W        W18849  26.406   1.204  18.895 -0.0319 -0.1493 -0.0546
14550W        W18850  21.406   6.967   0.102  0.0171  0.0047 -0.0153
14551W        W18851   1.034   4.732  21.396 -0.1558  0.0161  0.0109
14552W        W18852   8.586   7.170  25.519  0.0196  0.0334 -0.4796
14553W        W18853  18.910   1.877   4.911  0.0107  0.2305  0.0875
14554W        W18854   9.066   2.101   9.647 -0.0551  0.0523 -0.1146
14555W        W18855  15.080   0.448  22.988  0.0746 -0.0251 -0.2752
14556W        W18856  10.883   6.216  16.584 -0.1317  0.0842  0.2805
14557W        W18857   8.922   0.613   4.441  0.2096  0.2534 -0.1965
14558W        W18858   3.862   0.292  16.189  0.1195 -0.1747  0.0536
14559W        W18859  29.008   5.831  19.661 -0.0673 -0.1636  0.0763
14560W        W18860   9.089   2.094   3.994  0.0404  0.1179  0.0425
14561W        W18861   5.125   6.148   2.907 -0.1067  0.0865  0.2529
14562W        W18862  22.012   6.205  22.415  0.1635  0.2037  0.2750
14563W        W18863  11.124   6.644  16.236 -0.1632  0.0560  0.0317
14564W        W18864  26.703   2.790  20.996  0.0223 -0.1451  0.0680
14565W        W18865   0.215   5.107  18.602 -0.1563  0.0718 -0.1052
14566W        W18866  18.532   4.288   1.780  0.1039 -0.1387  0.1539
14567W        W18867   2.572   7.787   9.665  0.1090  0.0709 -0.2089
14568W        W18868   1.596   4.802  23.684 -0.2225  0.1487 -0.1798
14569W        W18869  14.586   2.840  17.017  0.3119 -0.0869 -0.1692
14570W        W18870  17.860   2.769  17.717  0.0653 -0.2983 -0.1246
14571W        W18871   6.979   4.600  18.335 -0.1141  0.3466 -0.0528
14572W        W18872  15.328   0.791   5.638  0.2849 -0.2154  0.0942
14573W        W18873  10.941   0.728  15.432  0.2448  0.1808  0.1734
14574W        W18874  26.310   4.620  23.057  0.1377 -0.2019  0.0491
14575W        W18875  10.470   5.336   8.300 -0.0955  0.0119  0.1060
14576W        W18876  29.890   7.395   1.553  0.1080  0.2561  0.0761
14577W        W18877  16.465   1.559  17.654 -0.3161 -0.0071  0.2661
14578W        W18878  11.407   1.635   6.396 -0.5015  0.1030  0.1833
14579W        W18879  12.385   7.800  10.413 -0.1027  0.1529  0.0882
14580W        W18880  22.581   1.758  17.158 -0.0069 -0.0340 -0.0757
14581W        W18881  30.663   6.353   6.423 -0.3694 -0.1545  0.1071
14582W        W18882  13.310   0.077  23.559 -0.0845  0.2844 -0.2351
14583W        W18883   3.663   2.841  24.533  0.1008 -0.0363  0.2468
14584W        W18884   1.737   0.280  10.580 -0.0760  0.1517 -0.1777
14585W        W18885  26.807   3.313  17.593 -0.2697 -0.3539 -0.0504
14586W        W18886   3.267   1.480   3.888 -0.0621  0.1932  0.0128
14587W        W18887  17.681   4.405  11.131 -0.0825 -0.3021  0.0183
14588W        W18888   1.921   1.419   6.085  0.1403 -0.1550  0.3343
14589W        W18889   0.844   5.205   2.541 -0.0581  0.1943  0.2394
14590W        W18890  30.788   3.129  17.849  0.2326 -0.2015 -0.2921
14591W        W18891  30.512   4.308  16.010  0.1849  0.3199 -0.0001
14592W        W18892   9.679   3.423  20.088 -0.0601  0.0001  0.1271
14593W        W18893  21.528   0.360  20.552  0.1610  0.0963 -0.0107
14594W        W18894  21.045   2.847  17.547  0.0999 -0.0865 -0.0611
14595W        W18895  20.758   3.023   0.710 -0.1920 -0.2126 -0.0978
14596W        W18896  22.517   2.153  23.398  0.0615 -0.2711 -0.0781
14597W        W18897  16.852   4.609  16.169 -0.0259  0.4301  0.4679
14598W        W18898   3.071   7.229   1.208 -0.0958  0.1156 -0.2046
14599W        W18899   5.393   2.272   7.698 -0.2936 -0.2325  0.1643
14600W        W18900  13.534   5.738   3.912 -0.1151  0.1287 -0.0552
14601W        W18901  22.100   7.283  16.143  0.1192  0.0401 -0.3180
14602W        W18902  23.382   5.385  23.979  0.1373 -0.2125  0.1708
14603W        W18903  18.960   1.299  23.002  0.0786 -0.0320  0.1873
14604W        W18904   2.614   3.174   1.691 -0.0163 -0.3290  0.0817
14605W        W18905  15.443   7.693   3.736  0.2210  0.1392  0.0238
14606W        W18906  10.652   5.152   5.067 -0.1614 -0.0441 -0.0075
14607W        W18907  25.328   3.492   5.962 -0.3647 -0.0831 -0.0922
14608W        W18908   8.611   4.559   0.894 -0.0506 -0.0305 -0.1073
14609W        W18909  11.936   2.935   4.722  0.0525 -0.0509  0.2377
14610W        W18910   0.576   5.832   8.363  0.0052 -0.1933  0.0263
14611W        W18911  24.439   5.688  18.385  0.3451  0.2094 -0.2813
14612W        W18912  20.382   1.205   4.973 -0.1244 -0.1877  0.0044
14613W        W18913  10.819   4.375   9.850 -0.0499  0.3470 -0.0166
14614W        W18914  29.387   7.175  17.543  0.1169 -0.1132  0.3502
14615W        W18915  19.336   2.722  15.813 -0.0413  0.0617  0.1989
14616W        W18916  23.519   0.254  23.465  0.1726  0.1114 -0.0961
14617W        W18917  27.493   6.007  10.000 -0.0231  0.3388  0.2781
14618W        W18918  22.701   1.158  18.459  0.0234 -0.1920 -0.0486
14619W        W18919  25.770   1.588  10.671  0.1176 -0.2165  0.3043
14620W        W18920   5.336   3.742   2.124  0.0443 -0.1379 -0.0087
14621W        W18921  30.451   6.418  25.242 -0.1191 -0.1614 -0.0393
14622W        W18922   8.144   6.212  25.591 -0.1404 -0.1455 -0.1325
14623W        W18923  22.571   6.313   8.696  0.0379  0.2809  0.0899
14624W        W18924   5.520   5.687  24.837  0.1180 -0.1610  0.3284
14625W        W18925  29.155   2.034   8.338  0.1358  0.4729 -0.0680
14626W        W18926  18.353   0.130  25.892 -0.0222 -0.1782  0.0529
14627W        W18927  25.679   2.408  19.528  0.1799 -0.2175 -0.1138
14628W        W18928  21.808   4.306  21.078  0.2063  0.0382  0.1927
14629W        W18929   5.019   2.334   7.290  0.1456 -0.1915  0.1732
14630W        W18930  21.068   1.289  22.634 -0.2592  0.0145  0.0341
14631W        W18931  30.526   7.075  25.410 -0.1605 -0.0349  0.2457
14632W        W18932  18.033   2.976   9.181  0.0158  0.0779 -0.1893
14633W        W18933   7.903   1.813   2.564  0.0004  0.0727  0.1296
14634W        W18934  21.833   0.958  11.023  0.1149  0.1367 -0.0817
14635W        W18935  25.789   3.554  11.154 -0.3505  0.0781 -0.1144
14636W        W18936  28.702   2.551  22.970 -0.1761 -0.1648  0.4111
14637W        W18937  19.575   1.843   2.005  0.1111 -0.0115  0.0384
14638W        W18938  17.471   1.681  21.228 -0.0577 -0.1325  0.1520
14639W        W18939  15.743   5.055  15.026 -0.1669  0.0491 -0.2350
14640W        W18940  25.915   3.894   5.108  0.1012  0.1971  0.0706
14641W        W18941  14.029   6.377   7.046  0.0106  0.0658  0.2167
14642W        W18942  23.151   3.190  22.891  0.0950 -0.3220 -0.2625
14643W        W18943  30.529   4.837  26.257  0.1857 -0.2028 -0.0695
14644W        W18944  21.857   1.706  22.204  0.1023  0.1424  0.2067
14645W        W18945  14.556   4.987  23.102 -0.2052  0.0617 -0.1287
14646W        W18946  11.500   1.952   8.010  0.0329 -0.1309 -0.1730
14647W        W18947   9.615   5.555  16.847  0.0396 -0.1147  0.1123
14648W        W18948  14.162   1.655  24.118  0.0156 -0.1655 -0.0052
14649W        W18949  24.141   1.456  21.380  0.0958 -0.0425  0.1032
14650W        W18950  18.520   3.326   9.243 -0.0895  0.1978 -0.0372
14651W        W18951   3.910   2.417   8.513 -0.0637  0.1510  0.5734
14652W        W18952  24.598   1.942  19.394 -0.0300 -0.2920 -0.1294
14653W        W18953   6.755   4.874   1.501 -0.0889 -0.0255  0.1474
14654W        W18954  10.099   5.598  17.113 -0.1450 -0.3282 -0.0755
14655W        W18955  22.194   5.556  16.914  0.2437  0.2455 -0.0550
14656W        W18956  15.106   3.455  24.124 -0.0473  0.2857 -0.0073
14657W        W18957   0.188   2.053  14.864 -0.0805  0.3568  0.0599
14658W        W18958  26.189   1.995   9.981  0.0634  0.0660  0.0489
14659W        W18959  24.953   0.396  25.875  0.0649  0.0389 -0.1224
14660W        W18960   6.085   2.488  18.549  0.1357  0.3385  0.1470
14661W        W18961  25.211   3.853   3.345  0.1124 -0.0639 -0.1090
14662W        W18962   7.332   6.272   4.336 -0.0506 -0.1057  0.0507
14663W        W18963  17.532   6.657  10.962  0.1672  0.2560 -0.1874
14664W        W18964  18.621   5.570   1.779 -0.1351  0.0223 -0.0807
14665W        W18965   4.992   5.075   6.290  0.2844  0.1433 -0.0834
14666W        W18966   2.902   4.163  26.243 -0.1514 -0.1640 -0.3283
14667W        W18967  17.385   3.933   8.863  0.0887  0.0549  0.2630
14668W        W18968   4.926   7.014  23.936 -0.0245  0.1185  0.0113
14669W        W18969   5.162   7.464  18.681  0.0488 -0.0307  0.3197
14670W        W18970   0.651   4.982  24.433  0.1193  0.0635 -0.0257
14671W        W18971  21.968   4.532  24.667 -0.2578 -0.0409 -0.1248
14672W        W18972  23.194   0.417  25.439 -0.0172 -0.1786 -0.3149
14673W        W18973  23.558   1.986  17.939  0.1863 -0.1122 -0.0643
14674W        W18974  24.835   0.554   7.199  0.0666 -0.1700  0.1207
14675W        W18975  21.746   3.923  18.695  0.0691 -0.2102 -0.2321
14676W        W18976  13.542   6.645  21.732 -0.2448  0.1964 -0.0638
14677W        W18977  14.588   1.235   1.748  0.1786 -0.0882  0.0734
14678W        W18978  27.279   4.974  10.121 -0.1982 -0.0238 -0.1111
14679W        W18979  12.596   6.605  19.429 -0.2933 -0.1429  0.2518
14680W        W18980  11.906   1.249  18.806 -0.1222 -0.0235  0.1021
14681W        W18981   3.347   5.478  16.270 -0.0916  0.2817  0.3834
14682W        W18982  28.314   3.057   1.516 -0.0470  0.1078  0.1564
14683W        W18983   5.370   3.598  16.828  0.0306  0.0549 -0.0833
14684W        W18984  26.432   6.357  11.958  0.0660 -0.1499  0.0525
14685W        W18985  23.707   3.874  10.673  0.1010  0.2761 -0.1892
14686W        W18986  17.694   6.160   4.417 -0.0950  0.1821 -0.0971
14687W        W18987  24.511   2.280   5.521 -0.3266  0.0460  0.0655
14688W        W18988  11.811   3.247   0.326 -0.2357  0.1859  0.1219
14689W        W18989  30.249   7.435   3.812 -0.0063  0.1226 -0.0348
14690W        W18990   1.808   3.095  21.698  0.1837  0.0377  0.3220
14691W        W18991   4.577   0.370   9.033 -0.2512 -0.0668  0.1218
14692W        W18992  24.672   1.269   6.242  0.1895  0.0286 -0.1559
14693W        W18993  20.206   3.474   1.471 -0.1106  0.0628  0.0372
14694W        W18994  28.363   0.681  25.878  0.0852 -0.1242 -0.3942
14695W        W18995   3.193   1.790   5.158 -0.1358  0.2458 -0.3531
14696W        W18996  25.365   1.680  26.000  0.3638  0.2263  0.1307
14697W        W18997   5.853   3.671  24.010  0.1774 -0.0488 -0.0961
14698W        W18998  22.904   0.074   3.293  0.1036 -0.0354  0.0589
14699W        W18999  29.074   1.011  17.475 -0.0402  0.0679 -0.1139
14700W        W19000  27.933   3.532  23.016  0.3307  0.0151 -0.0905
14701W        W19001   7.506   4.433  16.431 -0.2327 -0.2077  0.0629
14702W        W19002  25.142   7.325  23.489  0.1349  0.2363  0.2886
14703W        W19003  25.938   7.378   9.250 -0.0613 -0.1781  0.0525
14704W        W19004   3.750   5.427  20.249  0.0912 -0.1788 -0.2416
14705W        W19005  29.626   1.356  10.294  0.0403 -0.2134 -0.0424
14706W        W19006  10.617   4.473  22.787  0.2183 -0.2510 -0.0454
14707W        W19007   3.364   2.403  16.902 -0.0364 -0.0083 -0.0835
14708W        W19008   9.383   3.479   3.642 -0.1778 -0.1164 -0.2214
14709W        W19009  29.159   3.247  11.142 -0.0835 -0.0049  0.3394
14710W        W19010  12.345   2.127   9.549 -0.2136  0.1339 -0.0966
14711W        W19011  25.026   0.846   5.666  0.0642 -0.0984  0.2115
14712W        W19012  26.753   6.048  20.705  0.1935  0.0770 -0.1375
14713W        W19013  25.114   5.031   0.399 -0.5177  0.0424  0.1081
14714W        W19014  14.220   6.328  16.428  0.0631  0.2621  0.2598
14715W        W19015  10.449   4.848   1.085 -0.1552 -0.3405 -0.3725
14716W        W19016  15.140   3.961  20.763  0.3497  0.0127 -0.0645
14717W        W19017  10.136   4.122  17.000  0.2923  0.2020  0.3000
14718W        W19018   8.281   4.510  18.750 -0.0688 -0.2028 -0.1367
14719W        W19019   4.016   0.802   5.495  0.0981 -0.0348 -0.0746
14720W        W19020  13.108   5.972  21.107 -0.0440 -0.0105 -0.1321
14721W        W19021  21.845   5.434  22.682  0.0007 -0.0955 -0.2037
14722W        W19022   2.488   1.318   4.889  0.0876  0.0762  0.2269
14723W        W19023  17.249   1.387   3.664 -0.3739 -0.0369  0.0443
14724W        W19024   4.254   2.393  16.927 -0.1919 -0.1124  0.0860
14725W        W19025  28.880   5.119   0.464  0.0531  0.1025  0.1210
14726W        W19026   7.108   0.978   2.105 -0.2647 -0.0311  0.0716
14727W        W19027  26.001   5.640  18.620 -0.0607  0.1214  0.1264
14728W        W19028  22.665   2.694   0.129 -0.1081 -0.0454  0.1272
14729W        W19029   4.156   2.138  24.185 -0.1061  0.4422  0.0255
14730W        W19030  17.111   0.821   4.845  0.2378 -0.2573 -0.1327
14731W        W19031  11.818   3.632  24.757 -0.2007 -0.0343  0.1181
14732W        W19032  14.825   3.998  15.698 -0.3245  0.3004 -0.1593
14733W        W19033   2.007   2.588  18.620  0.2028 -0.1647  0.2642
14734W        W19034  18.972   2.530  25.144  0.2013 -0.1882 -0.1828
14735W        W19035  10.315   3.060  21.018 -0.0681  0.2509  0.0484
14736W        W19036   1.785   3.264  15.476  0.2197  0.0596 -0.0053
14737W        W19037   8.283   7.575   9.854  0.0324  0.1173 -0.2008
14738W        W19038   5.163   2.292  19.026  0.2443 -0.2426 -0.2516
14739W        W19039  27.746   1.301   7.641  0.1830 -0.2444 -0.2365
14740W        W19040  15.880   7.212  20.641  0.2447  0.3702 -0.1729
14741W        W19041  13.925   0.693   5.306  0.1582  0.0048 -0.1616
14742W        W19042   8.284   6.981   1.473  0.1642  0.0608  0.1201
14743W        W19043  30.742   4.858  21.981  0.0651  0.1969 -0.0805
14744W        W19044  12.170   2.921   2.983 -0.1868  0.2296 -0.0117
14745W        W19045  23.828   7.487  21.634  0.0062 -0.5238 -0.1626
14746W        W19046  30.644   7.548   1.455  0.0686  0.1309  0.3060
14747W        W19047  14.189   0.292   3.837  0.0448 -0.3415 -0.0962
14748W        W19048   8.109   4.840  24.606  0.3867  0.0358 -0.3600
14749W        W19049  12.344   1.931  18.664 -0.0998 -0.4279 -0.1330
14750W        W19050  19.505   7.643   1.346 -0.0763 -0.0756 -0.2688
14751W        W19051  22.241   2.265   6.675  0.1159  0.1994  0.0380
14752W        W19052   9.639   7.508   2.407  0.4040  0.0952  0.0301
14753W        W19053  18.810   6.944   5.721  0.0991 -0.1124 -0.0181
14754W        W19054  12.965   5.637  25.360 -0.2456  0.2598 -0.4257
14755W        W19055  25.930   6.244   3.286  0.0453 -0.2471 -0.0531
14756W        W19056  22.341   0.443   6.402 -0.0158  0.0173  0.1219
14757W        W19057   2.613   4.041  17.097 -0.0038 -0.1640 -0.0138
14758W        W19058   7.948   3.777  23.827 -0.0505  0.1042 -0.1278
14759W        W19059  15.820   7.701  17.262 -0.1569 -0.1777  0.1069
14760W        W19060   8.142   5.629  18.161 -0.0208  0.1696 -0.0364
14761W        W19061  30.871   2.755   8.726 -0.2158  0.3405 -0.0299
14762W        W19062  23.769   0.625  21.265 -0.0957 -0.3099 -0.0882
14763W        W19063  15.605   6.311   0.422 -0.3276  0.1333  0.0997
14764W        W19064  18.144   1.339   9.300 -0.3495  0.1508 -0.1209
14765W        W19065   1.707   1.819  10.421  0.0079  0.0186  0.1849
14766W        W19066   1.541   1.269  15.973  0.0799 -0.0813 -0.0413
14767W        W19067  24.504   7.256   8.738 -0.0503  0.0385 -0.0892
14768W        W19068  15.689   1.457   0.471 -0.1551  0.0693 -0.0971
14769W        W19069   4.812   4.259   0.043  0.0665 -0.1895 -0.3990
14770W        W19070   4.259   2.782  18.225 -0.0480 -0.1878 -0.0798
14771W        W19071  13.865   6.742   7.634 -0.0164 -0.1740  0.1267
14772W        W19072  10.650   5.932   4.359 -0.2780  0.0628  0.1076
14773W        W19073  20.438   0.188  22.857  0.1164 -0.1776 -0.1050
14774W        W19074  14.793   2.025   5.241  0.0100  0.1233 -0.1105
14775W        W19075  23.685   6.162  25.994 -0.4726  0.4159  0.0718
14776W        W19076   3.919   1.633   0.628 -0.1015  0.2635  0.0274
14777W        W19077  11.417   3.169   8.261  0.2487 -0.2000  0.4397
14778W        W19078   2.740   7.009   9.716 -0.3573 -0.0499  0.2990
14779W        W19079  20.317   4.495   6.667 -0.0079  0.2406  0.1570
14780W        W19080   1.787   6.992   5.311  0.0885 -0.0199  0.0277
14781W        W19081  24.976   5.343   5.842 -0.2467  0.0015 -0.0348
14782W        W19082  27.712   2.944  25.187  0.1396 -0.0044 -0.0875
14783W        W19083  29.134   7.679   8.159 -0.1729 -0.0671 -0.2550
14784W        W19084   3.885   3.957  25.748  0.0789 -0.0022  0.1019
14785W        W19085  15.031   3.617  15.982  0.3542 -0.0358  0.0734
14786W        W19086  18.543   6.247  10.703 -0.0280 -0.0016 -0.2086
14787W        W19087  29.265   1.872  23.196  0.0652  0.0143  0.0426
14788W        W19088  10.252   3.535   1.518 -0.0039 -0.1503 -0.3098
14789W        W19089  12.754   5.146  17.527  0.1671 -0.0453  0.0455
14790W        W19090  19.677   6.747  26.018 -0.0227  0.0402  0.0020
14791W        W19091   9.451   2.927   4.543  0.1454 -0.2909 -0.1571
14792W        W19092   3.287   5.691   9.866 -0.0523 -0.1030  0.1629
14793W        W19093  23.435   6.003   2.252 -0.0415 -0.1608 -0.0777
14794W        W19094  18.928   5.607  25.814 -0.3377 -0.1436 -0.0786
14795W        W19095  20.348   5.801  10.610 -0.0287  0.0448 -0.3327
14796W        W19096  16.707   0.977  21.588 -0.0906  0.0944 -0.2391
14797W        W19097  10.308   6.456   6.019  0.1329 -0.0535  0.1311
14798W        W19098  14.127   7.590  24.686  0.0280  0.0666 -0.0856
14799W        W19099   2.951   6.486   5.673 -0.1899  0.2785 -0.0698
14800W        W19100  28.445   1.011  16.241  0.1259  0.1413 -0.0056
14801W        W19101  12.745   5.764  24.276  0.0525 -0.2248  0.1086
14802W        W19102  31.089   4.024  16.672  0.2338  0.1345  0.0759
14803W        W19103  22.105   4.020   2.925 -0.1081  0.1377  0.2668
14804W        W19104  24.956   0.521  22.574  0.0799  0.1383  0.1585
14805W        W19105  13.105   4.592   9.316 -0.2500  0.1878 -0.0523
14806W        W19106  22.124   1.425   8.635 -0.0908 -0.0669  0.1452
14807W        W19107  27.144   0.488   7.906 -0.2440 -0.0813 -0.1816
14808W        W19108  29.525   4.259  22.299  0.1545 -0.3238  0.0523
14809W        W19109   2.493   5.203   9.539  0.0284  0.0424 -0.4068
14810W        W19110  24.864   0.250   8.529  0.2731  0.0136  0.3519
14811W        W19111  28.563   4.242  19.334  0.1465  0.1547  0.2912
14812W        W19112  10.735   5.466  21.264  0.2493  0.0517 -0.4385
14813W        W19113  23.082   4.920  19.262  0.1348  0.0949 -0.0351
14814W        W19114  25.288   0.273  10.866  0.0109  0.0725 -0.0226
14815W        W19115  27.740   7.015   8.925  0.0734 -0.0566  0.1368
14816W        W19116  10.294   7.442  10.542  0.1803 -0.1477 -0.2028
14817W        W19117  13.019   2.481   4.204 -0.0591  0.1697 -0.0242
14818W        W19118  24.176   7.217  16.050  0.0685 -0.1462 -0.1049
14819W        W19119   1.744   4.599   7.314 -0.0908 -0.2233 -0.0451
14820W        W19120  29.960   1.615  21.086 -0.0153  0.1420 -0.1125
14821W        W19121  12.590   5.497   8.379 -0.5761  0.0001 -0.3595
14822W        W19122   8.110   0.425  19.678 -0.0345  0.0496  0.0715
14823W        W19123  13.659   5.655   0.906  0.4430  0.0636  0.1922
14824W        W19124  26.636   0.434   6.369  0.1095 -0.3265  0.0555
14825W        W19125  29.525   5.576   0.168 -0.2750 -0.0623  0.3865
14826W        W19126   8.260   3.515  10.401 -0.0032 -0.0820 -0.0353
14827W        W19127  15.457   7.660  15.093  0.0360 -0.0554  0.0683
14828W        W19128  30.651   2.428   6.995  0.1701 -0.0976  0.0093
14829W        W19129  13.463   6.577   2.749 -0.3948 -0.0255 -0.4200
14830W        W19130   9.458   1.544   3.894  0.2906  0.0604 -0.1347
14831W        W19131  21.116   1.895   7.893  0.1974 -0.1008  0.0203
14832W        W19132   4.395   2.000  21.937 -0.1889 -0.2819 -0.0074
14833W        W19133  30.740   3.981  15.096 -0.1644 -0.0549 -0.1815
14834W        W19134  21.964   7.301  22.738  0.0094  0.0639  0.0846
14835W        W19135  29.879   0.569  10.563 -0.0901  0.2097 -0.1634
14836W        W19136  11.619   1.511   3.944  0.1103  0.1095 -0.0503
14837W        W19137  30.101   6.809   2.274 -0.2011 -0.0569  0.0238
14838W        W19138   2.772   0.414  25.781  0.1186 -0.1100  0.0152
14839W        W19139  25.522   3.676  17.009  0.3131  0.0407 -0.0203
14840W        W19140   6.051   6.409   2.072 -0.2317 -0.2583 -0.2406
14841W        W19141   1.714   7.600   1.927  0.1618  0.0715  0.4324
14842W        W19142   0.491   1.926   5.587  0.0036  0.0426 -0.1246
14843W        W19143   0.670   6.521  16.041 -0.0886 -0.3507 -0.0062
14844W        W19144   5.133   3.654  17.296 -0.3675 -0.0929 -0.1291
14845W        W19145   9.992   4.848   9.877 -0.0080 -0.0160  0.0304
14846W        W19146   1.378   2.813   8.373 -0.1199 -0.1960 -0.0674
14847W        W19147  14.688   5.732  20.096  0.0519 -0.1763  0.1217
14848W        W19148   7.469   0.762  15.210  0.2581 -0.3339 -0.1424
14849W        W19149  17.972   5.612  17.256 -0.1712  0.1541  0.0120
14850W        W19150  17.515   1.782  17.836 -0.0471 -0.1302 -0.0634
14851W        W19151   6.990   1.599  16.304 -0.3082  0.1449  0.2291
14852W        W19152   9.274   1.164   6.679 -0.1004 -0.1609 -0.1020
14853W        W19153   6.501   4.605  18.494 -0.0421  0.0418  0.0380
14854W        W19154  16.353   0.282  15.904  0.1405  0.0036 -0.1538
14855W        W19155   9.933   3.535  21.029 -0.1226 -0.3349 -0.0237
14856W        W19156  13.555   3.934   3.649 -0.4477 -0.1335 -0.0954
14857W        W19157   7.348   6.410  16.689 -0.0351 -0.2667  0.0505
14858W        W19158  11.934   2.946   1.337 -0.3945 -0.1599  0.3416
14859W        W19159  16.044   6.835  23.850 -0.1583  0.1326  0.1026
14860W        W19160  11.941   2.454   1.027 -0.3915 -0.0670  0.1813
14861W        W19161   1.633   1.563   5.274 -0.1829 -0.0479 -0.0355
14862W        W19162   7.445   4.249  22.568  0.0242  0.2481 -0.0805
14863W        W19163   8.881   2.165  20.606 -0.2149  0.0091  0.0969
14864W        W19164  13.981   7.596  25.226 -0.0666 -0.4255  0.0062
14865W        W19165  14.891   4.862   3.844 -0.0857 -0.1886 -0.3608
14866W        W19166  19.261   5.995  17.333  0.0883 -0.2126 -0.1239
14867W        W19167  26.411   2.221  18.859  0.2435  0.0474 -0.1275
14868W        W19168  12.383   1.487  25.196  0.1109  0.0913  0.1683
14869W        W19169  14.447   1.072  18.619  0.4234 -0.1999  0.1262
14870W        W19170   8.570   1.069  23.458 -0.0991  0.3865 -0.2162
14871W        W19171   1.882   7.266  11.484  0.0014 -0.1739 -0.3357
14872W        W19172  28.705   3.285  20.996 -0.0989  0.0511 -0.1007
14873W        W19173  18.900   4.788  20.201  0.2256  0.0552  0.0790
14874W        W19174  12.784   7.107  21.794 -0.0596 -0.0642  0.0067
14875W        W19175   5.990   0.574  20.119  0.0073 -0.0068  0.1263
14876W        W19176  21.613   4.031  19.656  0.0104  0.2468 -0.2042
14877W        W19177  23.788   3.745   6.201 -0.1542  0.1161 -0.1981
14878W        W19178  28.756   1.561   3.667 -0.1833 -0.0053 -0.2935
14879W        W19179   3.650   0.041  10.215 -0.3105 -0.1093  0.0013
14880W        W19180  10.944   2.965  26.375  0.1474 -0.1649 -0.2060
14881W        W19181   9.342   2.020  20.498  0.0933 -0.1744 -0.0733
14882W        W19182   2.483   6.552  25.199 -0.0297  0.1606 -0.0441
14883W        W19183  23.604   6.737   4.336  0.1475 -0.1915 -0.0215
14884W        W19184   4.923   6.865   3.641 -0.2964 -0.2763  0.2397
14885W        W19185  17.505   5.608  25.172  0.1158  0.1631  0.0912
14886W        W19186   6.278   5.513  16.710 -0.0879  0.1311 -0.1400
14887W        W19187  24.953   4.279   9.026 -0.0310 -0.1752  0.0552
14888W        W19188  13.839   2.693   0.073 -0.2185 -0.2917  0.1302
14889W        W19189   5.699   2.832  22.705  0.0416  0.1336  0.0462
14890W        W19190   0.535   6.940   4.066 -0.2852  0.1514 -0.0928
14891W        W19191   6.249   1.687   6.303 -0.1624 -0.1539 -0.0799
14892W        W19192  16.558   6.188   5.319  0.0339  0.1733  0.0580
14893W        W19193   7.974   0.806   8.870  0.1456 -0.0587  0.1366
14894W        W19194  10.886   7.336  25.108  0.1510 -0.3661 -0.0399
14895W        W19195  28.782   0.688  22.539 -0.1526 -0.0123 -0.1020
14896W        W19196   2.238   2.993  16.223  0.0576 -0.1780  0.3472
14897W        W19197  22.124   1.234   3.871  0.0764 -0.1029  0.0553
14898W        W19198  30.659   4.732  17.492  0.1047  0.2856 -0.0703
14899W        W19199   6.313   5.224   9.889 -0.1849  0.2234 -0.3048
14900W        W19200   0.966   4.309   8.524 -0.0439  0.0979  0.0625
14901W        W19201   5.252   1.267   7.025  0.3953  0.3077 -0.0366
14902W        W19202  27.574   2.360  22.345  0.0885 -0.0908  0.0059
14903W        W19203   1.075   3.100  18.107  0.1974  0.2661  0.0209
14904W        W19204   3.071   0.908   1.102  0.1814 -0.0578  0.3359
14905W        W19205   4.400   5.654  17.083  0.1825 -0.0039  0.3383
14906W        W19206  14.108   0.924   7.987  0.1181  0.0299  0.3798
14907W        W19207   3.369   7.784  24.689  0.2310  0.1248  0.2864
14908W        W19208  20.635   0.320   0.320  0.0155 -0.1941  0.2423
14909W        W19209  26.830   1.818   5.235  0.0011 -0.2910 -0.0197
14910W        W19210  27.066   1.867   9.828 -0.2049 -0.2638 -0.2615
14911W        W19211   4.120   1.045   8.975  0.2139  0.3627 -0.0535
14912W        W19212  26.832   4.269   8.318  0.0097  0.1184 -0.0440
14913W        W19213  19.259   0.619  18.638  0.0293  0.2049 -0.2616
14914W        W19214   1.533   0.637  16.874  0.1314  0.2071  0.2525
14915W        W19215   7.972   7.208  10.201  0.1770 -0.5177  0.0928
14916W        W19216   6.979   3.603   0.621 -0.3910  0.0770  0.2714
14917W        W19217  18.533   0.859   6.734 -0.0997 -0.0042 -0.2153
14918W        W19218   3.524   6.663  24.466 -0.0423  0.3072  0.1885
14919W        W19219  29.179   4.630  26.084 -0.4958  0.0142  0.3067
14920W        W19220   7.903   7.116  15.925  0.0373  0.2561 -0.2631
14921W        W19221  18.941   0.189  19.827  0.3403 -0.0637 -0.1852
14922W        W19222  25.811   2.914  23.441 -0.0285 -0.1105 -0.2378
14923W        W19223   4.226   6.855   0.797  0.2699 -0.0427  0.0939
14924W        W19224  15.720   7.780   1.627  0.0514 -0.0600  0.1215
14925W        W19225  13.606   0.292  22.139  0.3166 -0.1165 -0.2427
14926W        W19226  14.377   5.668  16.760 -0.0167 -0.5059 -0.0998
14927W        W19227   6.987   4.611   7.781  0.2737 -0.0891 -0.1666
14928W        W19228  12.991   6.653   3.572  0.1072 -0.2555 -0.0588
14929W        W19229  20.834   7.202  16.404  0.0555  0.1856  0.2263
14930W        W19230   5.319   5.121  17.362 -0.0066  0.2623  0.0544
14931W        W19231  19.629   2.085  21.206  0.0797  0.1373  0.0204
14932W        W19232  20.361   5.110  17.477 -0.0893  0.1627 -0.0135
14933W        W19233   4.655   0.359  15.770 -0.0350 -0.0890 -0.0737
14934W        W19234  21.754   6.688  11.961 -0.1570  0.1437 -0.0117
14935W        W19235   0.118   7.661  11.125 -0.0110 -0.1763 -0.1356
14936W        W19236   5.947   5.114   0.878  0.0522  0.0901  0.3927
14937W        W19237   2.402   0.119  22.728 -0.0608  0.1867  0.0367
14938W        W19238  11.785   0.610  16.533  0.0150  0.0613  0.0914
14939W        W19239   4.800   6.835  20.890 -0.2176 -0.0499 -0.3037
14940W        W19240   7.627   3.550   4.477  0.1372  0.2768  0.1846
14941W        W19241   2.805   2.088   7.139 -0.1898  0.0466 -0.0494
14942W        W19242  11.952   4.262  15.724  0.0282  0.1013  0.2842
14943W        W19243   2.496   1.256   2.969 -0.0216 -0.2974 -0.2407
14944W        W19244   3.835   4.201  16.072  0.0960  0.0233 -0.2429
14945W        W19245  14.661   2.965   9.618  0.0023  0.0777 -0.1848
14946W        W19246  26.964   7.634   6.523  0.1206  0.2539  0.1089
14947W        W19247  10.357   6.970  19.735  0.0572 -0.1085  0.0101
14948W        W19248   3.572   3.440   9.344  0.1094  0.0197  0.0477
14949W        W19249  29.037   1.962  24.724  0.1005  0.2003 -0.0796
14950W        W19250  24.273   6.617   0.191  0.1072  0.1243  0.2628
14951W        W19251  24.234   5.597  16.896 -0.3534 -0.0196 -0.3277
14952W        W19252  26.984   3.552  22.149 -0.1486  0.2282 -0.0985
14953W        W19253  28.355   1.939   4.793 -0.1782 -0.2774  0.0496
14954W        W19254   4.707   2.110  17.271 -0.0622  0.3233 -0.1566
14955W        W19255  15.664   4.248  26.277 -0.2384  0.0045 -0.1157
14956W        W19256   7.916   0.211   6.733  0.1010  0.0107  0.0632
14957W        W19257  29.695   5.896   8.957  0.1848 -0.1917 -0.0691
14958W        W19258  12.808   3.683  16.409  0.0214  0.0812  0.0119
14959W        W19259  23.906   2.958  22.902  0.0636 -0.1102 -0.2703
14960W        W19260  15.647   7.385   7.194 -0.1547  0.1382 -0.2395
14961W        W19261   4.265   2.572   0.682 -0.0392  0.0350  0.1229
14962W        W19262   1.887   5.487  17.714  0.1250 -0.4497 -0.0165
14963W        W19263  11.289   2.385  10.591  0.1607  0.3159 -0.0559
14964W        W19264  29.472   7.171  25.532  0.1992  0.0852 -0.0186
14965W        W19265   5.152   6.762  18.279  0.1063 -0.0599 -0.1854
14966W        W19266  31.075   6.228   0.505  0.0657  0.2000  0.0383
14967W        W19267   5.902   0.869  20.733  0.0129 -0.0665  0.1288
14968W        W19268   8.338   5.900  24.631  0.1611  0.1342  0.0129
14969W        W19269   0.030   2.052  16.590  0.1683 -0.3302 -0.2445
14970W        W19270  15.513   2.179   3.605  0.0131  0.0301 -0.1442
14971W        W19271   5.831   7.279   9.324 -0.0215 -0.2344 -0.1669
14972W        W19272  20.198   3.012  23.312  0.1718  0.3035  0.1100
14973W        W19273  27.772   4.698   9.933  0.2319  0.1904  0.3920
14974W        W19274  22.082   0.677  20.943  0.0187  0.0146  0.1557
14975W        W19275   0.134   3.717  20.404 -0.1525 -0.0186 -0.0539
14976W        W19276  23.324   0.458  21.596  0.1231 -0.0905  0.0219
14977W        W19277   9.129   0.821  15.703  0.2654  0.0580  0.3167
14978W        W19278  28.713   7.594  23.427  0.2806 -0.1730 -0.0277
14979W        W19279   9.283   7.295   8.565 -0.0417  0.0485  0.0750
14980W        W19280   7.148   7.305   2.180 -0.0195 -0.0250 -0.1630
14981W        W19281  12.602   5.741   0.865  0.1096  0.0921 -0.1645
14982W        W19282  21.321   0.866  24.583  0.2635 -0.0766  0.0407
14983W        W19283  16.604   6.054  15.187 -0.0202  0.1251  0.1032
14984W        W19284  19.771   5.050  15.177  0.1471  0.1876  0.0534
14985W        W19285  22.302   2.830   1.679 -0.1793  0.2374  0.0761
14986W        W19286  29.234   5.007  19.274  0.0884 -0.1647  0.0917
14987W        W19287  13.086   4.263  10.922  0.1094  0.0539  0.2557
14988W        W19288   1.141   5.015  25.359 -0.1676  0.0534  0.3081
14989W        W19289  30.343   5.077  25.061  0.1893  0.0039 -0.2603
14990W        W19290  16.372   7.175  10.914 -0.0286 -0.4295 -0.0802
14991W        W19291  19.624   2.761   5.701 -0.0442  0.1387  0.0874
14992W        W19292  10.425   2.888   3.987 -0.2259 -0.0578  0.3101
14993W        W19293   8.055   2.988   2.066 -0.0442  0.0189  0.1879
14994W        W19294   0.298   4.448   0.683  0.1317  0.3566 -0.3400
14995W        W19295  11.411   2.566  16.972 -0.1417  0.0674 -0.3466
14996W        W19296  15.646   6.462  17.886  0.0604 -0.3499 -0.2418
14997W        W19297   5.489   7.437  26.401 -0.3218  0.1185  0.1777
14998W        W19298  11.529   1.734  17.239  0.0692  0.0013 -0.0295
14999W        W19299  30.482   2.557  11.200 -0.1192 -0.0548  0.1364
15000W        W19300  18.144   4.547  19.523  0.1668  0.1369 -0.1829
15001W        W19301  28.487   4.960   4.957 -0.1885  0.0465  0.0928
15002W        W19302  26.880   6.219  11.113 -0.1274 -0.2191 -0.0025
15003W        W19303  10.776   2.124  26.061  0.3395  0.1641  0.0376
15004W        W19304   7.942   4.116  22.581  0.1468  0.1113 -0.1441
15005W        W19305   9.784   4.898  22.758 -0.1377  0.0380 -0.1845
15006W        W19306   5.025   5.053   8.900 -0.0158 -0.3464 -0.2841
15007W        W19307  16.000   6.498  20.936 -0.0042  0.0703 -0.3352
15008W        W19308   6.027   2.169   8.240  0.0212  0.0915 -0.1474
15009W        W19309  22.749   4.809  17.583  0.1529  0.2229 -0.0789
15010W        W19310   6.258   0.368   9.126  0.0424  0.0980  0.2378
15011W        W19311  26.764   1.837  25.637 -0.1375  0.0004  0.0887
15012W        W19312   7.798   4.756   3.128  0.1230 -0.0225 -0.3068
15013W        W19313  10.246   4.521  23.754  0.0217 -0.0341  0.1946
15014W        W19314  30.177   4.570   2.647  0.3808 -0.1125 -0.1921
15015W        W19315  13.548   6.347  24.410  0.3409  0.1043  0.0442
15016W        W19316  13.167   5.864  21.812  0.2587  0.0388 -0.1854
15017W        W19317  14.775   5.476   5.626 -0.3980  0.0624  0.3649
15018W        W19318  24.684   1.224  24.518  0.4378 -0.1136 -0.0814
15019W        W19319  28.541   1.546  21.282  0.0640 -0.1349 -0.1634
15020W        W19320   8.496   2.494  18.167 -0.0937 -0.1152  0.0847
15021W        W19321   9.855   6.012  19.605  0.0345 -0.1049  0.3451
15022W        W19322  23.154   1.316   1.389  0.2362 -0.0583  0.0339
15023W        W19323   3.573   5.354  15.565 -0.0667  0.6185 -0.0614
15024W        W19324  25.995   0.163   9.046 -0.1499  0.1068 -0.1712
15025W        W19325   3.705   6.698  19.513 -0.2614  0.1374  0.0283
15026W        W19326  26.042   4.807   9.776 -0.1678 -0.0965  0.1592
15027W        W19327   8.209   3.409   8.315  0.0448  0.1404  0.4169
15028W        W19328  13.079   6.207  17.757  0.1598  0.1285  0.2000
15029W        W19329   1.480   4.338  23.686  0.0415  0.0726 -0.1806
15030W        W19330  18.555   6.885   8.342 -0.4013 -0.1474  0.2314
15031W        W19331   2.262   6.997   5.330 -0.0533  0.2043 -0.0412
15032W        W19332   2.201   3.004  10.204 -0.2219 -0.0351 -0.2997
15033W        W19333   2.100   1.738  20.526 -0.2507 -0.0419  0.3187
15034W        W19334  28.919   2.487   4.568 -0.2263 -0.2067 -0.0683
15035W        W19335   3.493   4.966  25.050 -0.0148 -0.5083  0.0316
15036W        W19336  23.483   2.664   7.049  0.0392  0.3180  0.1023
15037W        W19337  15.691   7.457   8.016 -0.0151 -0.3053 -0.0957
15038W        W19338   5.648   4.758   4.228 -0.2781 -0.3708 -0.0665
15039W        W19339   6.695   7.406   8.425  0.0441 -0.0039  0.0693
15040W        W19340  17.476   3.581   3.931 -0.1166 -0.2182  0.1087
15041W        W19341  12.776   7.440  23.210  0.3879  0.0080 -0.0140
15042W        W19342  16.533   5.232  26.256  0.0437  0.2203  0.0615
15043W        W19343  24.096   5.590  19.904  0.0166 -0.3667  0.2762
15044W        W19344   0.730   3.903  24.291 -0.0921 -0.2956 -0.0557
15045W        W19345  22.892   2.432  19.859  0.0898  0.1078 -0.0667
15046W        W19346  27.409   2.635  23.996 -0.1243 -0.0130 -0.0272
15047W        W19347  25.828   0.863   4.099  0.1097 -0.1020 -0.0084
15048W        W19348  20.634   3.226   1.425 -0.0922  0.1412  0.1996
15049W        W19349   4.990   4.049  26.052  0.1603  0.2139  0.1453
15050W        W19350  21.533   0.918   2.376 -0.1047  0.1137 -0.1680
15051W        W19351  24.503   1.928  10.435 -0.2389  0.0279 -0.0257
15052W        W19352   6.105   0.295  23.677  0.0847  0.1998 -0.1484
15053W        W19353  28.181   1.368  20.106 -0.2992  0.1635 -0.1003
15054W        W19354  28.208   0.285  10.080 -0.0738  0.0772  0.0818
15055W        W19355  24.237   0.729  19.610  0.2679 -0.1572 -0.0561
15056W        W19356   4.434   5.327  21.602  0.0905  0.1027  0.1047
15057W        W19357  14.555   5.999   9.553 -0.0430  0.1952 -0.1674
15058W        W19358  19.735   4.086  10.072  0.4072  0.0649  0.2139
15059W        W19359  20.163   0.958   9.866  0.1436  0.0321  0.2038
15060W        W19360  10.689   0.482  16.830  0.1110  0.0863  0.1378
15061W        W19361  10.634   4.902  21.378 -0.1212 -0.4626 -0.0954
15062W        W19362   5.755   5.578  16.800  0.2366 -0.4383 -0.0889
15063W        W19363  18.181   3.087   3.935  0.1351  0.0061  0.2051
15064W        W19364  26.580   2.580  25.565 -0.2795  0.3561  0.1023
15065W        W19365  15.057   5.812   4.316  0.0558 -0.2005  0.1312
15066W        W19366   3.169   5.772  18.231 -0.2719  0.0622 -0.0307
15067W        W19367   4.683   1.374   8.173 -0.2012  0.0108 -0.1231
15068W        W19368   9.328   1.100  21.111  0.0857  0.0147  0.3021
15069W        W19369  29.948   4.640   8.861 -0.0306  0.1130 -0.2941
15070W        W19370  30.803   6.386   5.602 -0.2530 -0.2588 -0.1992
15071W        W19371   6.212   2.001   8.984 -0.0048 -0.1061 -0.3620
15072W        W19372   4.477   6.106  18.360 -0.2577 -0.1551  0.0577
15073W        W19373  23.681   0.098   2.449 -0.2189  0.2706 -0.0538
15074W        W19374  19.696   2.770   9.770  0.0774 -0.2049  0.0698
15075W        W19375  23.752   2.128   0.965 -0.0588 -0.2684  0.1574
15076W        W19376   5.539   1.799  24.572 -0.1532 -0.1227 -0.0709
15077W        W19377  22.362   3.512  10.561  0.1355  0.0685 -0.1485
15078W        W19378   7.718   0.712  23.874 -0.0386 -0.2033  0.1003
15079W        W19379  23.731   4.763   3.521 -0.0216 -0.1528 -0.1367
15080W        W19380  18.434   7.641  22.122  0.2534  0.0683  0.1855
15081W        W19381  12.709   4.911  14.709  0.2025  0.1419  0.3984
15082W        W19382  28.410   2.989   6.465  0.4493 -0.1864  0.0006
15083W        W19383   2.031   1.239  25.769  0.0230  0.3125 -0.0674
15084W        W19384  30.970   3.047   7.848  0.1502 -0.0967  0.5236
15085W        W19385  14.036   3.838  20.202 -0.1710 -0.2403 -0.1885
15086W        W19386  20.184   1.626   9.163  0.1526 -0.0038 -0.1488
15087W        W19387  11.668   2.259  24.362 -0.0773 -0.0364 -0.4297
15088W        W19388  17.070   0.968  10.273  0.1006  0.0938  0.0248
15089W        W19389  24.818   0.861  21.918  0.4726 -0.0183 -0.0671
15090W        W19390   9.247   4.448   3.842  0.0187  0.0713  0.0521
15091W        W19391  11.772   2.417   4.737 -0.3002  0.0740  0.0526
15092W        W19392  30.934   7.062  18.935  0.0509  0.0005  0.3219
15093W        W19393  29.423   4.870   5.205 -0.1213 -0.3219  0.2765
15094W        W19394  12.674   7.141   2.838 -0.3218 -0.0347 -0.1693
15095W        W19395  17.837   5.754   1.436 -0.0564 -0.0739 -0.3008
15096W        W19396   2.545   2.993  21.141 -0.1072 -0.2882 -0.2532
15097W        W19397  11.262   0.640   4.363 -0.3788  0.1047 -0.0169
15098W        W19398  26.476   4.204  22.744  0.1342 -0.3295 -0.0859
15099W        W19399  12.835   3.626  19.503  0.3339  0.2813  0.1462
15100W        W19400   5.145   3.830  25.557 -0.1126 -0.1953 -0.2741
15101W        W19401  17.659   4.549  20.557 -0.0197  0.0406 -0.0423
15102W        W19402   4.281   0.614   5.962  0.2705 -0.0066 -0.1013
15103W        W19403  12.125   2.494  18.168  0.0290 -0.2038  0.2429
15104W        W19404  27.470   6.681  10.731  0.1004  0.1275 -0.0688
15105W        W19405   6.893   5.640  19.106  0.1141 -0.0551 -0.2130
15106W        W19406  16.022   1.420  21.964 -0.1449  0.1941 -0.3739
15107W        W19407  12.982   6.613   1.133  0.0393  0.2317  0.0842
15108W        W19408  12.769   3.641  17.663 -0.1193  0.2089 -0.0172
15109W        W19409  20.018   0.469  17.284 -0.0440 -0.0854  0.2222
15110W        W19410  14.393   4.298   0.191  0.2444  0.0539 -0.1716
15111W        W19411  28.592   1.510   8.737 -0.1194 -0.0894  0.2081
15112W        W19412  30.815   5.534  10.490  0.1102 -0.2613  0.1794
15113W        W19413  30.877   2.503  19.831 -0.1209 -0.1376  0.2025
15114W        W19414  13.745   0.424  20.760  0.0862  0.1880  0.0536
15115W        W19415   5.261   0.156  20.342  0.0736 -0.0788  0.0789
15116W        W19416   1.999   6.543   0.635  0.0962 -0.1627  0.1627
15117W        W19417  19.252   1.347  10.284  0.1097  0.2193  0.0078
15118W        W19418  15.927   1.156  18.825  0.2539  0.0435 -0.2948
15119W        W19419   9.515   7.452  15.515 -0.0303  0.1782 -0.0050
15120W        W19420  26.370   0.757   3.882 -0.0094 -0.0501  0.0084
15121W        W19421  13.945   7.650   1.568 -0.1469  0.1177  0.0068
15122W        W19422  23.219   5.958   4.889 -0.0795 -0.0535  0.1957
15123W        W19423   0.508   4.661   6.954  0.0180 -0.1033 -0.1496
15124W        W19424   1.122   0.886   3.996 -0.0451 -0.2140  0.0543
15125W        W19425  18.827   3.932  17.388 -0.0496 -0.0929 -0.0633
15126W        W19426   9.843   0.881  19.464  0.1037 -0.1700  0.1575
15127W        W19427   2.359   6.834   0.811 -0.3048 -0.0941  0.2356
15128W        W19428  14.964   1.214   7.612  0.1791 -0.3145  0.2091
15129W        W19429  29.354   4.099   6.514 -0.0841 -0.0137  0.0791
15130W        W19430   9.348   2.579  10.266 -0.1378 -0.0334 -0.0524
15131W        W19431  16.390   1.546   9.963 -0.0843 -0.0946 -0.3764
15132W        W19432  13.470   4.156   1.577  0.0367  0.0937 -0.1197
15133W        W19433  20.685   3.125  22.595 -0.1871  0.0125 -0.2661
15134W        W19434  25.654   1.750  26.426  0.2235  0.1817 -0.0764
15135W        W19435  15.522   5.978   2.734  0.1465  0.1459  0.0743
15136W        W19436  19.297   3.764   3.066 -0.1075  0.0023  0.2532
15137W        W19437   0.696   1.256   0.136 -0.0698  0.0802  0.0068
15138W        W19438  21.418   6.248  18.539 -0.2602  0.1650  0.0979
15139W        W19439   2.194   5.050   0.034 -0.1063  0.0678 -0.1288
15140W        W19440   6.067   1.118   7.935 -0.2019  0.0164 -0.2115
15141W        W19441   9.972   3.516   3.660 -0.2039 -0.1413 -0.1106
15142W        W19442  24.319   0.056   0.308  0.1008  0.1222 -0.0287
15143W        W19443   2.509   4.698  23.975 -0.1834 -0.1416 -0.1287
15144W        W19444  28.662   7.322   5.207  0.1443  0.4723  0.0249
15145W        W19445   9.281   7.752  10.184  0.1024  0.1021 -0.0634
15146W        W19446  17.076   5.027  10.916 -0.2564 -0.1660  0.0841
15147W        W19447   8.620   3.280   2.878 -0.2214  0.0948 -0.2036
15148W        W19448   5.269   6.290   8.860  0.0458  0.0687  0.2066
15149W        W19449  12.406   4.699  22.395  0.0766 -0.0794 -0.0546
15150W        W19450  23.519   2.929  20.259  0.1796  0.2856  0.2465
15151W        W19451  16.331   7.144   8.907 -0.1025 -0.0563  0.1267
15152W        W19452  10.599   3.197   5.821  0.1258 -0.1622  0.1037
15153W        W19453  28.734   5.381   3.185 -0.2718 -0.1828  0.0673
15154W        W19454  29.902   7.137  21.787  0.3910  0.0467  0.3174
15155W        W19455  22.726   7.126  18.193 -0.1961 -0.0995 -0.2979
15156W        W19456   6.802   3.673  18.279 -0.0939 -0.0213 -0.3393
15157W        W19457   4.540   4.509   4.327  0.4080  0.2634 -0.0827
15158W        W19458  23.452   7.466  16.335 -0.2538  0.2293  0.3308
15159W        W19459  21.701   5.277   0.804  0.0906  0.2868 -0.1761
15160W        W19460  17.420   5.862  16.241 -0.0678  0.0850 -0.2973
15161W        W19461   9.000   1.738  17.194  0.3475  0.0286  0.2805
15162W        W19462  20.557   4.481  22.292 -0.0675 -0.2042  0.2393
15163W        W19463   6.629   0.199   5.020  0.2303  0.1637  0.0703
15164W        W19464   0.935   2.388   9.072  0.0259 -0.2398  0.1457
15165W        W19465  23.545   6.487  22.622  0.0601  0.1487  0.0363
15166W        W19466  20.337   0.663  26.171 -0.1697 -0.1296  0.1083
15167W        W19467  10.612   0.560  10.857 -0.1946  0.2484 -0.1066
15168W        W19468  18.638   1.700  19.012  0.1626 -0.3304  0.0340
15169W        W19469   7.470   5.817  23.637  0.3859 -0.0882 -0.0040
15170W        W19470  16.799   6.227   1.171 -0.3110 -0.0328  0.2205
15171W        W19471  18.050   3.240  19.654  0.2728 -0.2513 -0.1056
15172W        W19472  11.981   5.486   5.462  0.0962  0.0759 -0.1795
15173W        W19473   2.732   0.561  26.246  0.2521  0.3190  0.2647
15174W        W19474  17.545   3.349   0.691 -0.3492  0.1369  0.1688
15175W        W19475  12.536   5.330  10.427  0.0190  0.3138  0.1640
15176W        W19476  12.923   1.374   7.301  0.0731 -0.0640  0.3734
15177W        W19477  10.583   7.215  17.954  0.2976  0.2196 -0.0990
15178W        W19478  18.929   3.980   2.602  0.0905 -0.3716  0.3138
15179W        W19479  26.917   5.555   6.677 -0.1139  0.0825 -0.1199
15180W        W19480  29.420   7.515  24.041 -0.0447  0.0576  0.5386
15181W        W19481  20.484   7.354   3.570 -0.1277 -0.0501 -0.1432
15182W        W19482   6.996   6.267  21.608  0.3910 -0.0058 -0.2686
15183W        W19483  21.304   7.574  20.150  0.0329 -0.2442 -0.0231
15184W        W19484  10.150   5.429   1.750 -0.2280  0.1425  0.1600
15185W        W19485   8.425   1.691   1.861  0.0090  0.0477 -0.2285
15186W        W19486  28.612   4.801   8.034 -0.0563 -0.0972 -0.0825
15187W        W19487   8.530   5.501   3.604 -0.1646 -0.1842  0.0480
15188W        W19488  25.399   3.960   8.915  0.1619  0.1843 -0.0017
15189W        W19489  19.921   5.429  18.824 -0.1741 -0.0694  0.0526
15190W        W19490   7.412   2.153   1.040  0.1349 -0.1358 -0.0431
15191W        W19491   9.492   0.590  19.315  0.1891  0.0869  0.2481
15192W        W19492  18.939   4.085  15.985 -0.1421 -0.2456 -0.0221
15193W        W19493  24.535   7.170  19.239  0.0551  0.0731  0.1793
15194W        W19494   8.396   6.873  23.608 -0.3162 -0.0042  0.0722
15195W        W19495   9.956   3.854   9.565  0.1148  0.1964 -0.3482
15196W        W19496   4.256   0.690   2.691 -0.1049  0.0459  0.2660
15197W        W19497   9.703   1.394  21.257 -0.3708 -0.0085  0.1124
15198W        W19498  11.699   2.663  19.075 -0.1993  0.0957 -0.2045
15199W        W19499   6.452   0.363  18.777 -0.0316 -0.0836  0.3636
15200W        W19500  13.865   1.646  23.721  0.2111  0.1196  0.1293
15201W        W19501   0.767   6.693  25.220  0.2072  0.2306 -0.3309
15202W        W19502   0.734   5.317  25.433 -0.1359  0.1346  0.2480
15203W        W19503   4.324   1.549  26.142 -0.0301  0.0590  0.1464
15204W        W19504   3.129   0.571   5.981  0.0180 -0.2089 -0.0921
15205W        W19505  14.454   5.119  16.781 -0.1308  0.0881  0.2125
15206W        W19506   8.531   4.212  11.065  0.1120 -0.2274  0.3532
15207W        W19507  10.673   5.485   1.594 -0.3987 -0.2456 -0.1892
15208W        W19508   0.311   6.109  16.109  0.0508 -0.1224  0.3207
15209W        W19509   9.214   7.321  10.395 -0.0272  0.3214  0.0168
15210W        W19510  16.704   3.615   3.926  0.0556  0.1293  0.1277
15211W        W19511  16.099   0.654   9.722  0.3287 -0.0758 -0.2024
15212W        W19512   3.802   2.432   9.998 -0.1897 -0.3065 -0.3206
15213W        W19513  11.592   0.520   8.163 -0.0306 -0.2452 -0.1579
15214W        W19514  15.907   6.800   1.092  0.1744  0.0068 -0.2991
15215W        W19515  30.130   5.295  24.115 -0.0552 -0.0313 -0.2792
15216W        W19516  11.648   0.339  22.657 -0.1422  0.1661 -0.1530
15217W        W19517  28.710   2.058  10.891 -0.2762  0.1184 -0.1317
15218W        W19518  21.604   5.619  20.456  0.1336 -0.1318  0.0698
15219W        W19519   1.608   0.510  18.786  0.1099  0.0605  0.3027
15220W        W19520  17.295   2.776  26.402 -0.1897 -0.0662 -0.0831
15221W        W19521  10.409   0.034   4.727 -0.0366 -0.6162  0.2704
15222W        W19522  26.843   2.782   1.655  0.3423  0.0069  0.1953
15223W        W19523  21.337   2.909  18.464  0.0077  0.1639 -0.0867
15224W        W19524  24.158   6.491   9.633 -0.1345  0.3673  0.0849
15225W        W19525  19.752   4.900  24.917  0.0456 -0.2351  0.1979
15226W        W19526   3.778   4.601   1.997 -0.4037 -0.2584 -0.1394
15227W        W19527  18.441   6.911   4.697  0.3975 -0.3020  0.0382
15228W        W19528  26.008   4.183  18.153  0.1144  0.0985 -0.2954
15229W        W19529   9.167   3.640   1.082  0.1135 -0.0297  0.1113
15230W        W19530   6.818   3.308  16.770 -0.4377  0.2265 -0.0303
15231W        W19531  21.393   3.249  17.443 -0.0985 -0.2277  0.1596
15232W        W19532  20.836   7.739  21.508 -0.0907 -0.0087 -0.0346
15233W        W19533  31.193   5.649  16.711  0.2183  0.0291  0.1372
15234W        W19534   1.232   5.714  18.948 -0.0613 -0.0532 -0.1897
15235W        W19535  23.955   6.701   8.656  0.1117  0.0557 -0.1078
15236W        W19536   2.344   6.794   4.020 -0.0824  0.0218 -0.0323
15237W        W19537   8.053   4.695   1.497 -0.3071  0.0921  0.0153
15238W        W19538  20.559   7.312  21.799 -0.0732  0.0655  0.2122
15239W        W19539  11.155   2.893  23.179  0.2806 -0.1048 -0.0126
15240W        W19540  18.871   0.194   6.365 -0.1325 -0.0450  0.2498
15241W        W19541  12.337   3.207  24.673  0.1876 -0.1951  0.3224
15242W        W19542  23.154   2.660   3.139 -0.2362  0.2228 -0.2246
15243W        W19543   1.840   7.467   6.459 -0.3725  0.1017  0.3042
15244W        W19544   0.487   1.329  16.812 -0.1434 -0.1631 -0.2969
15245W        W19545   5.839   7.716  10.172 -0.1377  0.3804 -0.1120
15246W        W19546  30.483   5.765   4.736 -0.1543  0.1081 -0.2225
15247W        W19547  20.930   6.520   6.104  0.2476  0.0800 -0.1891
15248W        W19548  15.619   7.419  16.847 -0.2581 -0.2716  0.0553
15249W        W19549   7.164   6.242   3.825 -0.1732  0.1026  0.0875
15250W        W19550  29.925   1.544  17.146  0.2995 -0.0230 -0.1474
15251W        W19551  10.672   1.847  24.579  0.1242  0.2942 -0.1186
15252W        W19552  21.655   4.019  20.129  0.3287 -0.1440 -0.2279
15253W        W19553  10.575   5.006  24.319 -0.0205  0.2130 -0.2081
15254W        W19554  15.947   3.712   6.543  0.1770  0.0048 -0.3375
15255W        W19555  24.555   0.323  23.568  0.1207 -0.4298  0.2510
15256W        W19556   5.568   4.746  16.511 -0.2712  0.0168 -0.0775
15257W        W19557  22.075   6.943  21.726  0.3137 -0.1103 -0.1878
15258W        W19558  27.336   2.273  26.178  0.0377 -0.2421 -0.0723
15259W        W19559  19.227   6.910  17.697 -0.0272 -0.0181 -0.2902
15260W        W19560  26.679   0.244  19.954  0.2415  0.1056  0.2911
15261W        W19561  29.739   5.268  25.080 -0.0918  0.0693 -0.2112
15262W        W19562  24.285   0.394  24.051  0.0337  0.0565  0.0693
15263W        W19563   4.860   3.052   4.829 -0.1120  0.1462  0.0012
15264W        W19564   8.478   3.638  24.731  0.0392  0.2868 -0.2056
15265W        W19565   0.114   4.901   0.901  0.1510 -0.0302  0.0582
15266W        W19566  12.495   2.165  18.198  0.1653  0.2730  0.3328
15267W        W19567  27.597   5.245   4.552  0.2728 -0.0528 -0.0670
15268W        W19568  12.881   1.460  24.194  0.1557  0.1794 -0.2350
15269W        W19569  20.322   2.005   9.464  0.2706  0.2183  0.2283
15270W        W19570  26.374   4.889  24.666 -0.2542  0.0498  0.0329
15271W        W19571  29.752   5.143  22.888  0.0421 -0.2146  0.2568
15272W        W19572  28.792   6.663   3.622  0.1429 -0.4452  0.0767
15273W        W19573  28.420   7.560  17.460 -0.0103 -0.3883  0.4486
15274W        W19574  30.638   5.600  20.191  0.2061  0.1845 -0.0896
15275W        W19575  13.098   1.650  19.859 -0.0634  0.1339 -0.0687
15276W        W19576  23.594   0.052  21.347  0.1430 -0.0164  0.0515
15277W        W19577   9.612   7.634  23.738 -0.0284  0.1015  0.1010
15278W        W19578  13.103   6.900   5.535  0.0300 -0.1040 -0.3154
15279W        W19579   1.773   2.898  23.939 -0.2660 -0.5051 -0.0259
15280W        W19580   5.917   7.393  25.067 -0.1400  0.2804 -0.0629
15281W        W19581   3.892   4.292   8.847  0.0476  0.0127  0.1349
15282W        W19582  13.734   6.844   7.025 -0.0550 -0.0902  0.2897
15283W        W19583  29.305   6.466  20.492  0.1512  0.1522  0.0080
15284W        W19584  16.151   0.739  18.689 -0.1004 -0.1023  0.2160
15285W        W19585  28.454   0.320  16.703  0.2818 -0.3278 -0.3030
15286W        W19586   5.835   0.754  18.532  0.2141 -0.0707  0.0971
15287W        W19587   4.970   4.235   1.123 -0.1384  0.1637  0.0286
15288W        W19588  18.148   0.924   3.388  0.2447 -0.0528 -0.0647
15289W        W19589   0.739   3.048  19.299  0.1310  0.0131 -0.1231
15290W        W19590   1.356   5.259  16.106  0.1517 -0.2550  0.1952
15291W        W19591  26.879   3.067   5.291  0.0101 -0.0539 -0.1517
15292W        W19592  19.225   2.174   6.040 -0.1323 -0.0033 -0.1765
15293W        W19593  18.817   7.118   3.005 -0.1510 -0.3420  0.1769
15294W        W19594   7.323   6.365  18.561 -0.0955  0.1543 -0.1992
15295W        W19595  30.657   0.345  11.670  0.0921 -0.0523  0.1134
15296W        W19596  18.496   3.656  17.062  0.2619 -0.3788  0.2530
15297W        W19597  11.723   5.538  19.989  0.4265  0.0268 -0.0629
15298W        W19598  14.489   2.321   0.557  0.0706  0.2342 -0.0470
15299W        W19599   2.198   6.530  21.697 -0.1073  0.0816  0.0271
15300W        W19600  18.239   6.587   7.221  0.1866 -0.2137  0.0755
15301W        W19601  26.227   6.863  24.123  0.0741  0.3304 -0.2009
15302W        W19602   2.171   3.988  16.742 -0.0211  0.3725 -0.2845
15303W        W19603  20.780   7.632   4.537 -0.0276 -0.0348  0.1923
15304W        W19604  16.146   3.848  17.333 -0.0850  0.0265 -0.0080
15305W        W19605  12.728   1.538  16.532  0.1697  0.0882 -0.1483
15306W        W19606   1.777   2.492  24.269 -0.1213 -0.1445  0.0100
15307W        W19607  15.769   3.762   0.588 -0.0711  0.2652  0.0452
15308W        W19608  28.938   4.058   1.028  0.0067  0.1886  0.0240
15309W        W19609  27.315   0.588   9.111 -0.1674 -0.0542 -0.1195
15310W        W19610  10.320   1.621   0.737  0.3997  0.0763 -0.1580
15311W        W19611  20.966   3.421  24.419  0.1887  0.2777  0.1935
15312W        W19612  11.292   7.366   3.826 -0.0100  0.1064 -0.0997
15313W        W19613  23.812   1.174   5.385 -0.0542 -0.1282  0.3588
15314W        W19614   5.238   0.816  16.507  0.0178  0.0554  0.4119
15315W        W19615   9.043   0.818  23.204 -0.1408 -0.3033 -0.3367
15316W        W19616  29.367   6.252   3.354 -0.0844  0.1833 -0.0808
15317W        W19617  30.403   3.356   7.267 -0.4016  0.1224  0.0857
15318W        W19618   8.064   0.537  26.166  0.0808 -0.2175 -0.0469
15319W        W19619  19.745   0.042   0.515 -0.0031 -0.0229  0.1872
15320W        W19620   2.158   7.379  24.082 -0.0616 -0.1937  0.0364
15321W        W19621  19.146   0.934  25.167 -0.2342 -0.0261  0.0686
15322W        W19622  14.784   1.657  23.916  0.0681 -0.0243  0.4394
15323W        W19623  20.041   1.154  22.586  0.2336  0.0830 -0.4333
15324W        W19624  21.687   6.971   6.338 -0.0099 -0.1612  0.0832
15325W        W19625  22.160   3.048  17.828  0.0583 -0.1242  0.2223
15326W        W19626  29.910   0.695  20.261 -0.2039  0.0290  0.2135
15327W        W19627   5.135   4.426  17.554  0.0282 -0.1215 -0.1172
15328W        W19628  23.471   7.791  17.419 -0.1445 -0.1342  0.0709
15329W        W19629  24.204   3.423   9.652 -0.1937  0.3096  0.3853
15330W        W19630   4.981   6.258   8.166  0.0647 -0.0238 -0.0625
15331W        W19631  21.325   5.198   0.468 -0.4843 -0.4260  0.0274
15332W        W19632   6.342   6.463   3.561  0.1019 -0.0298 -0.2774
15333W        W19633  15.973   2.030  15.421  0.0623  0.1174  0.1266
15334W        W19634  23.584   3.149   4.802 -0.0062  0.1058 -0.2549
15335W        W19635  22.805   3.235  20.302 -0.0076 -0.0549 -0.0346
15336W        W19636  12.977   3.302  23.948  0.0612 -0.0824  0.0558
15337W        W19637  18.311   3.525  22.448  0.3634 -0.0465  0.1642
15338W        W19638  13.154   1.562  10.713 -0.2645 -0.0441 -0.2609
15339W        W19639  16.713   3.102  16.856 -0.1680 -0.0531  0.1801
15340W        W19640   3.177   6.528  17.216  0.0298  0.0519  0.1452
15341W        W19641  22.285   5.040  10.720 -0.0347 -0.1232 -0.0329
15342W        W19642  12.382   0.344  23.415 -0.1989  0.1757  0.0033
15343W        W19643  31.053   3.848  25.307  0.0372 -0.1116  0.2990
15344W        W19644  25.616   5.257  20.682  0.3166  0.0882  0.2731
15345W        W19645  12.057   3.461  23.712 -0.1936 -0.0386  0.1678
15346W        W19646  25.253   6.471  10.608  0.1575 -0.0141 -0.1292
15347W        W19647  14.342   5.513   8.859  0.0553 -0.0372  0.1062
15348W        W19648   8.641   5.175   7.716 -0.0740 -0.0714  0.3189
15349W        W19649   1.913   3.032  10.587  0.0744  0.0651 -0.3696
15350W        W19650  24.452   1.301   8.433 -0.0070 -0.1249 -0.0017
15351W        W19651  14.289   7.739   5.606 -0.2128 -0.0761  0.2092
15352W        W19652   9.371   0.987  25.067 -0.1195  0.3251  0.1145
15353W        W19653  26.732   5.136  20.758  0.1078  0.0479  0.1713
15354W        W19654  19.789   2.250  26.029  0.2699 -0.1302  0.1650
15355W        W19655  25.634   3.069   7.499 -0.0030 -0.1782  0.1956
15356W        W19656  13.025   3.850   6.070 -0.4248  0.0065 -0.3749
15357W        W19657   2.145   7.343  20.290 -0.0579 -0.2553  0.0876
15358W        W19658   3.455   1.563   8.030  0.0669  0.2402  0.3609
15359W        W19659   5.335   2.885  18.586  0.1029  0.2894 -0.0045
15360W        W19660  10.553   1.944  18.338  0.0453  0.0773 -0.0334
15361W        W19661   5.698   0.093   6.577  0.1337  0.3264 -0.2607
15362W        W19662  26.864   5.984   0.181  0.0882  0.0865  0.0530
15363W        W19663  30.406   1.190  19.511 -0.0839  0.0267 -0.1300
15364W        W19664  30.176   6.768  21.506  0.1194 -0.1109  0.0338
15365W        W19665   6.029   5.694  23.837  0.0103 -0.2836 -0.2239
15366W        W19666  26.609   1.409   5.301 -0.0408 -0.1351  0.1241
15367W        W19667  18.112   6.731  18.409 -0.0872 -0.0034 -0.2219
15368W        W19668  10.098   3.450   2.750  0.0805  0.1060 -0.0226
15369W        W19669  15.278   7.214   5.920 -0.2137 -0.2158 -0.0444
15370W        W19670  26.170   2.539   7.270  0.0880 -0.0592  0.0699
15371W        W19671  15.269   5.728  14.463 -0.1575 -0.0018 -0.2511
15372W        W19672   9.858   2.221   7.003 -0.3293 -0.4239 -0.0031
15373W        W19673  21.960   6.071   1.170 -0.1204 -0.0662 -0.2593
15374W        W19674  11.543   5.291  20.494  0.0943 -0.1087 -0.2316
15375W        W19675  22.287   2.363   0.677  0.1274 -0.1068 -0.0580
15376W        W19676  25.341   4.621  20.422 -0.0186  0.1019  0.0058
15377W        W19677  20.822   5.762  10.755  0.0845 -0.1375  0.0151
15378W        W19678  27.573   3.110  19.884  0.0414  0.0381 -0.0281
15379W        W19679  19.013   1.463  10.963  0.0213  0.0972  0.2657
15380W        W19680   2.869   7.562  25.521  0.2168  0.0078  0.0476
15381W        W19681   2.395   4.055   0.864  0.0337  0.1221  0.2104
15382W        W19682  12.508   1.659  17.839  0.1224 -0.0776 -0.0543
15383W        W19683   5.582   7.352   9.946  0.0720  0.0362  0.0659
15384W        W19684  30.396   5.100   4.713  0.0190 -0.0602 -0.1522
15385W        W19685  25.562   7.791  16.570 -0.1519 -0.2701 -0.1936
15386W        W19686  29.499   2.992  23.658 -0.1853 -0.2239  0.1356
15387W        W19687   3.328   5.529  10.324 -0.0678  0.3746 -0.2971
15388W        W19688  10.505   4.816  19.278 -0.0549  0.0375 -0.0684
15389W        W19689  23.115   1.003   7.909 -0.2427  0.1010 -0.0511
15390W        W19690   7.595   4.498  21.449 -0.1725  0.3281  0.1034
15391W        W19691  29.232   3.337   4.103  0.0962 -0.1746  0.1059
15392W        W19692   1.850   5.884  17.083  0.0867 -0.3226  0.1545
15393W        W19693  21.693   7.225  25.127 -0.1636  0.1856  0.2889
15394W        W19694  12.973   7.547   3.400  0.2392 -0.4019  0.1345
15395W        W19695  22.512   1.677   8.376  0.0034  0.1797  0.2241
15396W        W19696   0.120   5.440  21.977 -0.0437 -0.3920  0.0774
15397W        W19697  29.514   6.704   6.186  0.1707  0.0430 -0.1010
15398W        W19698   5.790   6.945   4.063 -0.1707  0.4155 -0.0096
15399W        W19699   4.640   4.658  10.837  0.2164  0.4230 -0.0196
15400W        W19700   9.963   4.546  17.234  0.1295  0.0856 -0.1144
15401W        W19701  24.697   5.086   3.822 -0.2089 -0.1237 -0.3078
15402W        W19702   7.146   4.259   3.145  0.0463  0.3204  0.0164
15403W        W19703  29.456   4.644  23.052 -0.0132 -0.1093  0.0270
15404W        W19704  22.884   3.792  26.149  0.1712  0.0429 -0.1064
15405W        W19705  19.657   2.897   0.280  0.1775  0.1079 -0.0875
15406W        W19706   9.821   6.738  16.639 -0.1008 -0.2709  0.0651
15407W        W19707  23.297   6.656  16.000 -0.1004 -0.0999 -0.0364
15408W        W19708  18.093   1.429  21.938 -0.1045 -0.1883 -0.1334
15409W        W19709  20.737   1.790   9.262  0.0481  0.0442  0.0658
15410W        W19710   0.673   4.297  15.329 -0.0180  0.1619 -0.2496
15411W        W19711  15.455   4.116  18.310  0.1410 -0.3548 -0.1412
15412W        W19712  26.756   5.965  10.720  0.0805  0.0912  0.2327
15413W        W19713   8.842   6.821  23.319 -0.2848  0.0492  0.2319
15414W        W19714   9.983   5.107  17.293  0.1376 -0.0861 -0.1336
15415W        W19715   6.891   7.076   5.541  0.0992 -0.1385 -0.0846
15416W        W19716  26.281   6.615   5.795  0.2611  0.1848 -0.0984
15417W        W19717  10.184   0.375   4.988  0.1610 -0.0606  0.1329
15418W        W19718  10.714   7.227   7.988  0.0974  0.2195  0.1022
15419W        W19719   9.319   4.425  18.598  0.0485 -0.0358 -0.0463
15420W        W19720  26.773   6.709  15.793 -0.0697  0.0979  0.0140
15421W        W19721   7.069   4.144  20.833  0.1159  0.0062  0.3942
15422W        W19722  22.856   6.135   6.098 -0.3009 -0.0665  0.0217
15423W        W19723   5.894   5.476   8.834 -0.2416 -0.2317 -0.1315
15424W        W19724  12.351   1.619  22.385  0.0054  0.1333  0.1685
15425W        W19725  10.990   0.514  22.511  0.2652  0.0311 -0.0965
15426W        W19726  12.864   5.033  15.648 -0.1081  0.3489 -0.2619
15427W        W19727  27.802   7.753   9.870 -0.0120  0.1877 -0.1801
15428W        W19728  18.411   0.324   6.551  0.1636 -0.0562 -0.0678
15429W        W19729  15.138   7.221  22.963 -0.2851 -0.1359  0.1739
15430W        W19730  15.116   5.691  24.430 -0.1037  0.0009  0.0312
15431W        W19731   8.453   2.941   9.345 -0.0074 -0.0767  0.2639
15432W        W19732  18.174   2.219   1.656  0.2096  0.2001 -0.2386
15433W        W19733   9.671   3.983   4.517 -0.4065 -0.0104 -0.1335
15434W        W19734   5.302   0.286  24.214  0.1853 -0.1070 -0.0157
15435W        W19735  12.872   0.113  23.357 -0.2555 -0.2556 -0.0262
15436W        W19736  12.770   2.754  17.551 -0.1016  0.0042 -0.0816
15437W        W19737  16.861   4.470  17.110 -0.0178  0.0166  0.1906
15438W        W19738  25.699   1.077   8.898  0.1376 -0.0546  0.3382
15439W        W19739  10.086   6.641  25.361  0.4248 -0.2299  0.3496
15440W        W19740  26.741   7.158  18.405  0.0007  0.2582 -0.0367
15441W        W19741  24.831   0.009   9.942 -0.0174 -0.3024  0.0267
15442W        W19742  27.855   3.932  18.413 -0.0557  0.1193 -0.1048
15443W        W19743  15.297   2.492  21.554 -0.2494  0.0589 -0.2951
15444W        W19744  12.229   7.085   7.514  0.2750 -0.0272 -0.0703
15445W        W19745   8.002   7.763   5.403  0.2433 -0.1554  0.2000
15446W        W19746   6.654   1.457  16.682 -0.1193 -0.0859  0.2447
15447W        W19747  22.867   6.947  11.091  0.2189 -0.2397  0.0641
15448W        W19748   9.821   2.237   1.287  0.0983  0.0035 -0.5668
15449W        W19749  23.140   5.891  18.375  0.3260  0.1528  0.0153
15450W        W19750   0.995   6.244  22.743  0.3522  0.2371  0.1348
15451W        W19751  14.553   1.922  24.633  0.0348  0.1515 -0.3473
15452W        W19752  20.437   1.609  24.253  0.0694 -0.1999 -0.0844
15453W        W19753  22.026   7.446  18.668 -0.2466  0.3066 -0.1254
15454W        W19754  20.967   3.328  26.152  0.3636  0.0108  0.3740
15455W        W19755  20.742   1.392  24.538  0.0004 -0.0648 -0.2389
15456W        W19756   4.527   6.877   9.469  0.1682 -0.0230 -0.1291
15457W        W19757   4.627   5.714   5.115  0.0812 -0.0378  0.1519
15458W        W19758  28.824   0.715  19.939  0.1629  0.0074 -0.1086
15459W        W19759   3.845   6.462  16.137  0.0166 -0.0865  0.0975
15460W        W19760  15.709   2.477  15.448 -0.3365 -0.2529 -0.1177
15461W        W19761  25.705   1.669  20.741  0.1709 -0.1834 -0.1745
15462W        W19762  26.910   0.043  19.585  0.1186 -0.1287  0.1558
15463W        W19763   9.963   5.438   3.464  0.1325 -0.2208 -0.2199
15464W        W19764  13.273   1.013  17.799 -0.1309  0.2170 -0.4154
15465W        W19765   9.152   6.607   9.120 -0.0592 -0.1348 -0.2315
15466W        W19766  29.492   0.761   9.718  0.0889 -0.2741 -0.0897
15467W        W19767   2.693   0.944   6.330  0.0128  0.1476  0.3875
15468W        W19768   2.486   6.894   3.140 -0.3519  0.1644  0.2309
15469W        W19769   8.555   1.783  21.922  0.0341  0.2607 -0.1856
15470W        W19770   0.377   7.233   6.141  0.1215  0.0319  0.0619
15471W        W19771  14.401   6.210   8.126  0.1140  0.0840  0.0260
15472W        W19772   9.605   4.220   4.087  0.0721  0.0900 -0.0153
15473W        W19773  17.092   2.015  20.616 -0.0812  0.2749 -0.1477
15474W        W19774  27.821   6.452  20.581 -0.0549  0.0609  0.2027
15475W        W19775   2.156   4.820   0.765 -0.0976  0.1282 -0.0398
15476W        W19776  22.733   0.218  10.324 -0.2668 -0.0120  0.3193
15477W        W19777  14.691   2.309  15.410  0.0587  0.0595  0.1174
15478W        W19778  30.668   3.748  23.567  0.0144  0.0809  0.0479
15479W        W19779  17.961   6.116   0.465  0.0304 -0.1136  0.1224
15480W        W19780   5.306   3.058  21.332 -0.1865 -0.3468 -0.0903
15481W        W19781  24.923   2.623   6.020 -0.1229  0.2733 -0.1798
15482W        W19782   0.146   0.519  20.484  0.1231  0.1863 -0.3169
15483W        W19783   1.737   7.772   0.096 -0.0332 -0.0728 -0.1053
15484W        W19784  12.926   5.395   7.465 -0.0511  0.3480 -0.0454
15485W        W19785  28.080   6.516  19.505  0.2386  0.0934  0.2464
15486W        W19786   3.719   6.841   7.527  0.1120 -0.0480  0.1287
15487W        W19787  29.488   4.145   5.987  0.0373  0.3939 -0.2386
15488W        W19788   2.845   1.139   4.520 -0.0816 -0.0823  0.0877
15489W        W19789  18.197   4.864  23.458 -0.1483  0.5870 -0.2496
15490W        W19790  14.875   1.504   5.074 -0.0542  0.0353 -0.2496
15491W        W19791   1.049   4.463   7.002 -0.1216 -0.1364 -0.1404
15492W        W19792  19.793   7.683  22.001  0.0601 -0.0045  0.0670
15493W        W19793   0.870   5.296  24.088 -0.1707 -0.5290  0.0492
15494W        W19794  28.214   1.494   7.407  0.1685  0.3153 -0.1212
15495W        W19795  11.686   0.140  24.781  0.0653 -0.0334 -0.2510
15496W        W19796  18.671   4.306  18.910  0.1423 -0.1872  0.1779
15497W        W19797  22.467   5.958  21.703  0.1638  0.1902 -0.2997
15498W        W19798  12.583   2.770   7.225 -0.1087 -0.2933 -0.0760
15499W        W19799   6.299   0.000   9.946  0.1995 -0.1626  0.2043
15500W        W19800  27.864   3.290   1.727 -0.0283  0.0310 -0.0099
15501W        W19801  11.508   7.257  25.759  0.0071  0.0049 -0.0051
15502W        W19802  29.650   1.759  19.610  0.1217  0.4179 -0.2150
15503W        W19803   5.073   0.842  26.001 -0.0826  0.1813 -0.2274
15504W        W19804  30.393   5.423  11.142 -0.1486  0.1603 -0.1986
15505W        W19805  27.683   6.669   7.995  0.0037 -0.2297  0.1519
15506W        W19806  18.983   1.310   4.951  0.0384  0.1182 -0.3094
15507W        W19807   7.145   0.033  19.688  0.1323  0.1036 -0.0570
15508W        W19808  16.556   6.097  24.107  0.1086 -0.0157  0.3371
15509W        W19809  17.546   1.750  20.750 -0.3496 -0.0373  0.0226
15510W        W19810   8.409   1.348   7.756 -0.1007  0.0068 -0.1028
15511W        W19811  18.329   6.851   3.739  0.0355 -0.4696  0.2256
15512W        W19812   0.209   3.856  24.387 -0.1681  0.1305  0.1168
15513W        W19813  24.864   3.222  10.916  0.1668 -0.0122  0.0777
15514W        W19814   3.827   5.573  10.350 -0.0779  0.1836 -0.3434
15515W        W19815  29.484   2.475   3.254  0.0910 -0.2506 -0.1168
15516W        W19816   3.900   2.858   3.839  0.1568  0.0888  0.1383
15517W        W19817  22.795   6.460   8.261 -0.0917 -0.0466  0.0290
15518W        W19818  29.783   4.256  18.964  0.0540 -0.0098 -0.0401
15519W        W19819  20.587   0.282  10.367  0.0458  0.1221  0.3533
15520W        W19820  22.274   0.392   9.744  0.1621  0.0731 -0.0772
15521W        W19821  11.637   5.230   5.667 -0.1766 -0.0207 -0.0832
15522W        W19822  23.538   4.449   4.168 -0.1519 -0.1389 -0.0628
15523W        W19823   6.784   4.621   5.607 -0.1823 -0.3608  0.1813
15524W        W19824  14.469   5.509   2.673 -0.3745  0.0317 -0.0456
15525W        W19825  29.701   0.395  18.620 -0.0266  0.0062 -0.0577
15526W        W19826  27.877   5.190   5.502 -0.1345  0.0602 -0.1241
15527W        W19827  10.019   7.032   5.376 -0.2421 -0.0965 -0.4274
15528W        W19828   1.861   7.798   1.451 -0.0320  0.0730  0.3658
15529W        W19829  28.968   4.221  10.738 -0.3099 -0.0315  0.2047
15530W        W19830   2.005   6.327  25.528  0.0366 -0.0795  0.0593
15531W        W19831  10.849   4.003  18.028  0.1214 -0.1296 -0.0251
15532W        W19832  16.324   2.805  22.849 -0.0425 -0.2018 -0.1860
15533W        W19833  22.860   3.187  19.115 -0.3974 -0.0067 -0.0070
15534W        W19834  15.223   4.883   9.759 -0.0471  0.0988 -0.0197
15535W        W19835  25.951   1.114   0.125  0.1289  0.0723 -0.1120
15536W        W19836  25.945   6.783  20.090  0.0898  0.1387  0.0648
15537W        W19837  15.692   5.639  23.678 -0.0766 -0.1223 -0.0946
15538W        W19838  11.214   7.756  19.310  0.1106 -0.1573 -0.0393
15539W        W19839  16.431   5.904  16.074 -0.2317 -0.1573 -0.4026
15540W        W19840  15.139   2.267  18.123  0.0041  0.0984  0.3751
15541W        W19841  16.558   4.822   4.811 -0.2077 -0.0465 -0.0848
15542W        W19842   4.527   3.953   1.810 -0.0681  0.0056  0.3863
15543W        W19843  16.592   6.699   2.108 -0.3164 -0.0770 -0.0674
15544W        W19844  29.391   3.598  11.394  0.1701  0.0558 -0.0869
15545W        W19845   6.966   7.006   2.971  0.1856 -0.2067  0.1455
15546W        W19846  13.762   6.799  21.066  0.1958  0.3730  0.2554
15547W        W19847   3.948   4.980   6.480 -0.3019  0.2484  0.2084
15548W        W19848  10.726   2.758  23.464 -0.0513  0.0582  0.1936
15549W        W19849  17.605   6.194   8.180  0.2096  0.0324  0.2566
15550W        W19850  28.125   5.402  25.125  0.1759 -0.1314  0.2900
15551W        W19851  22.718   0.102  16.968 -0.1702 -0.2652 -0.2002
15552W        W19852   2.471   1.820   2.277 -0.1447 -0.0847  0.1632
15553W        W19853   6.769   2.061  20.158  0.0508 -0.0148 -0.1308
15554W        W19854  20.595   2.447   4.411  0.0057  0.3632 -0.3594
15555W        W19855  20.720   7.211  21.292  0.3261 -0.1352 -0.0159
15556W        W19856  15.817   2.890   3.575 -0.2325 -0.2269 -0.1482
15557W        W19857  11.059   3.830  16.715 -0.1615  0.4403  0.0832
15558W        W19858  13.580   7.114  16.584  0.4319  0.0110  0.0369
15559W        W19859  13.575   4.345   9.384 -0.0143 -0.3666 -0.1087
15560W        W19860   3.289   6.719  14.998  0.3130 -0.0548 -0.0258
15561W        W19861  27.100   2.162  22.622 -0.3305  0.2951 -0.0545
15562W        W19862  13.851   7.329  25.772 -0.1532 -0.0076  0.2392
15563W        W19863  18.468   3.309  23.391  0.2954 -0.1779 -0.1408
15564W        W19864  25.494   2.005  21.010 -0.0475 -0.1401 -0.1544
15565W        W19865   6.086   6.513   2.642  0.2945  0.3671  0.1964
15566W        W19866  10.200   5.197  22.900 -0.1191  0.0190 -0.1417
15567W        W19867   2.402   2.279  25.625 -0.0325  0.0754  0.1140
15568W        W19868  26.393   1.254  17.712  0.3430  0.1035  0.2970
15569W        W19869  29.550   1.842  24.821  0.3111 -0.1916 -0.1933
15570W        W19870  28.882   3.824  15.671  0.1021 -0.0766  0.0110
15571W        W19871   7.029   1.202  19.859  0.2783 -0.1414 -0.0392
15572W        W19872   6.459   0.440  26.221  0.0740 -0.2812  0.1082
15573W        W19873  12.055   5.230  25.440 -0.0982 -0.2182  0.0057
15574W        W19874  11.786   4.840  17.602 -0.1388 -0.0662  0.1057
15575W        W19875   0.959   5.426   8.733 -0.3207  0.0872 -0.0567
15576W        W19876  24.183   2.505  21.054 -0.0742 -0.2457 -0.1414
15577W        W19877   5.831   6.991   7.973 -0.0208 -0.0801  0.2188
15578W        W19878  15.044   6.542  25.788 -0.0750 -0.0217  0.1082
15579W        W19879  27.564   7.159  19.620  0.2653 -0.0414  0.2443
15580W        W19880   5.778   6.523  15.826  0.0148  0.1470 -0.0785
15581W        W19881   9.565   4.259   8.333 -0.0078 -0.0781  0.0423
15582W        W19882  19.617   5.222  21.390  0.2047 -0.0890  0.0883
15583W        W19883   2.864   3.103   6.349 -0.0201 -0.1656 -0.0749
15584W        W19884  11.726   3.641   6.121  0.0715 -0.1248 -0.0068
15585W        W19885   3.885   2.150  23.183  0.0102  0.0404  0.3696
15586W        W19886  19.701   4.541   8.282  0.1526 -0.0824  0.0249
15587W        W19887  23.015   0.681  15.449  0.0339  0.1603 -0.1371
15588W        W19888  29.701   0.712  15.424  0.0603  0.3835  0.0898
15589W        W19889  13.069   3.167  10.101 -0.0827  0.3426  0.0448
15590W        W19890   0.893   3.750   8.023  0.0076  0.1103  0.2928
15591W        W19891  17.445   0.841   3.603 -0.1200  0.0843 -0.2090
15592W        W19892  13.608   7.603   6.560  0.0524 -0.3188  0.0382
15593W        W19893   0.129   7.578  25.108 -0.1059  0.3710 -0.0389
15594W        W19894   0.147   2.971   0.283  0.0320  0.1229  0.0668
15595W        W19895  12.018   1.128   3.885 -0.1886  0.1295 -0.2916
15596W        W19896  28.986   4.762  25.074 -0.0901 -0.0160 -0.0113
15597W        W19897   7.437   4.838   8.568  0.0904 -0.1080 -0.1297
15598W        W19898   2.905   0.087   4.107  0.1461  0.2525 -0.1558
15599W        W19899   8.034   1.386  16.378  0.0427  0.1762  0.2972
15600W        W19900  30.008   6.773  10.819 -0.1452  0.1559 -0.1534
15601W        W19901  23.917   4.169  16.147  0.0471  0.1560 -0.0217
15602W        W19902   7.510   4.805   1.696 -0.1025  0.1118  0.0937
15603W        W19903  29.662   0.027   1.635 -0.1291 -0.2097 -0.1664
15604W        W19904  25.206   5.222   2.373  0.1016  0.0228  0.0453
15605W        W19905  24.629   7.303  23.379 -0.1682  0.4519  0.2180
15606W        W19906   7.460   7.124  10.639 -0.0709 -0.1476  0.1339
15607W        W19907   2.097   4.756  24.233 -0.0726 -0.3058  0.2963
15608W        W19908   0.217   1.869  11.548  0.0694 -0.2483  0.0458
15609W        W19909  30.091   2.853   0.987 -0.0837 -0.1212  0.0198
15610W        W19910   4.508   0.538  25.193 -0.0437 -0.0662  0.0123
15611W        W19911  26.645   1.665   9.144  0.3623 -0.3007  0.0689
15612W        W19912  15.576   6.814  21.004 -0.2778 -0.0839  0.0160
15613W        W19913  19.942   1.548  24.277 -0.0198  0.3902 -0.1086
15614W        W19914  26.505   1.873  16.869  0.1570 -0.0025 -0.0767
15615W        W19915  13.321   3.612  17.754 -0.0416  0.0258 -0.0921
15616W        W19916   5.548   5.976  16.064 -0.0077  0.1452  0.0650
15617W        W19917   0.482   7.046  20.602 -0.1594 -0.1647  0.1062
15618W        W19918   1.187   0.394   5.302 -0.1238 -0.1282 -0.3718
15619W        W19919  30.318   5.394   6.078 -0.2652  0.0446 -0.1523
15620W        W19920   7.483   7.190  15.550  0.0331 -0.1668 -0.1614
15621W        W19921  19.409   3.473  17.655  0.2187  0.1088 -0.0247
15622W        W19922  23.985   1.475   9.839 -0.4084 -0.3689 -0.1364
15623W        W19923  28.399   5.746   8.621  0.1416  0.1444 -0.0069
15624W        W19924   7.055   0.130   5.311 -0.0572  0.1205 -0.0044
15625W        W19925   1.189   6.598  18.715 -0.2539 -0.0013  0.2075
15626W        W19926   2.423   2.438  18.805 -0.0233  0.0205  0.1181
15627W        W19927  10.937   1.343  19.172 -0.1367 -0.0752  0.1049
15628W        W19928   5.745   7.609   4.840 -0.0767 -0.3818  0.0776
15629W        W19929  12.402   3.870   0.282 -0.2568 -0.0306  0.2755
15630W        W19930  18.356   3.133   1.005 -0.1515 -0.3089  0.0426
15631W        W19931   7.714   7.623  20.894  0.1887  0.1359  0.5462
15632W        W19932  20.442   0.175  17.172 -0.0934 -0.2523 -0.0430
15633W        W19933   6.470   1.803   2.360  0.0649 -0.1406 -0.0301
15634W        W19934  27.481   2.029   6.572 -0.1605 -0.0106  0.0553
15635W        W19935  15.284   4.544   3.784 -0.0283  0.2593 -0.0560
15636W        W19936   7.351   3.148  25.929  0.1598 -0.0571 -0.2297
15637W        W19937   7.142   6.119   2.535 -0.0272 -0.2476 -0.0020
15638W        W19938  31.196   5.206   2.418 -0.2455 -0.0566  0.1201
15639W        W19939  24.200   5.966   3.948  0.0543  0.1151  0.4651
15640W        W19940   3.771   1.676  11.173  0.3615  0.0120 -0.0864
15641W        W19941  27.520   1.202  17.689 -0.0883  0.1527  0.1888
15642W        W19942   6.839   6.764  25.236  0.0155 -0.2134 -0.0142
15643W        W19943  22.298   3.571  25.537 -0.0004 -0.1045 -0.2546
15644W        W19944   5.132   3.646   3.553  0.0857  0.1883 -0.3269
15645W        W19945  10.012   2.138   3.088  0.0982  0.1299 -0.2473
15646W        W19946  25.208   2.733   5.603  0.2712 -0.0448 -0.0910
15647W        W19947  30.947   1.609   2.984  0.1671  0.0844  0.0173
15648W        W19948  16.204   3.919  20.467 -0.0200 -0.0749  0.2829
15649W        W19949  11.478   2.598  22.365 -0.0684  0.2311 -0.0378
15650W        W19950  19.923   3.196  24.438 -0.2942  0.0851 -0.1138
15651W        W19951  11.960   0.020  21.243  0.0805 -0.1104  0.2249
15652W        W19952  28.339   2.033   2.324 -0.2521  0.2186 -0.0841
15653W        W19953  31.020   0.160   4.301  0.0126  0.0965 -0.0391
15654W        W19954  13.171   1.650  25.781 -0.2345 -0.1293 -0.1074
15655W        W19955  22.786   7.356  24.267  0.0165 -0.2118  0.3147
15656W        W19956  12.768   2.338   9.803  0.0557 -0.0774 -0.1529
15657W        W19957  13.194   3.243   2.965 -0.0618  0.2323  0.0458
15658W        W19958   7.945   3.769  19.549  0.1351 -0.0393  0.0798
15659W        W19959  10.467   3.637   9.232 -0.0589 -0.0143 -0.1947
15660W        W19960  10.357   1.903  25.989  0.4045  0.0806 -0.0484
15661W        W19961  21.664   7.478  21.893 -0.3460  0.1712 -0.0376
15662W        W19962   7.374   1.334   9.348 -0.2598  0.1004 -0.0974
15663W        W19963  28.247   1.618   3.664 -0.0922 -0.0932  0.0455
15664W        W19964  23.696   2.352  18.983  0.1251  0.0766 -0.0164
15665W        W19965  25.680   1.399  22.174 -0.0889  0.1051  0.0491
15666W        W19966  30.940   0.716  20.737 -0.0544 -0.2111  0.1924
15667W        W19967  11.876   4.278   2.724  0.0572  0.4014  0.0198
15668W        W19968  23.289   7.610  11.922 -0.0411  0.0853  0.0392
15669W        W19969   8.341   3.053   4.230  0.1624  0.1536 -0.4253
15670W        W19970  17.822   3.667  19.526 -0.1492  0.1816  0.1847
15671W        W19971  11.803   5.371   6.114  0.1536 -0.1334 -0.1401
15672W        W19972  15.629   3.556   4.297 -0.2901 -0.0751  0.2944
15673W        W19973  14.846   2.991   6.396  0.0766  0.0944  0.1589
15674W        W19974   9.479   4.982  20.914  0.0129 -0.1948  0.1345
15675W        W19975  22.402   5.159  18.424 -0.0792  0.1897  0.1011
15676W        W19976  17.271   2.088   7.692 -0.2271  0.2194 -0.2208
15677W        W19977  14.517   4.108   2.420 -0.2817 -0.1620 -0.0525
15678W        W19978  24.282   6.787  11.495 -0.0038  0.2199  0.5681
15679W        W19979   7.301   3.405   1.416  0.0248  0.2480  0.1576
15680W        W19980  18.304   3.172  22.859 -0.0448  0.0351 -0.1033
15681W        W19981   7.472   6.348  25.953  0.2768  0.0423  0.1742
15682W        W19982   1.524   0.788  15.811 -0.5303 -0.2077  0.0691
15683W        W19983  29.408   1.809  25.920 -0.5130  0.2186 -0.2839
15684W        W19984   9.180   3.999   9.162  0.0941 -0.2516  0.4193
15685W        W19985   7.488   7.527  17.611 -0.2308 -0.0977  0.0351
15686W        W19986  15.196   2.538  10.184  0.1771 -0.0603  0.2041
15687W        W19987  22.021   3.314  18.235  0.2941  0.1522 -0.0306
15688W        W19988   2.891   3.463   8.809  0.0134  0.0767 -0.0098
15689W        W19989  18.095   5.954   9.095 -0.2946 -0.0647 -0.2189
15690W        W19990   6.356   2.252  22.812 -0.0744  0.0230 -0.0422
15691W        W19991  22.072   2.017   7.711  0.2405  0.0867  0.4083
15692W        W19992  25.225   7.531   3.623  0.1517 -0.2184 -0.0732
15693W        W19993  14.585   3.427   1.668 -0.1324 -0.0493  0.0908
15694W        W19994  23.997   0.343   3.544 -0.2176 -0.1700 -0.1383
15695W        W19995   7.436   4.170  15.993 -0.3815 -0.0835  0.0759
15696W        W19996  25.763   4.760   3.495 -0.0744  0.4056  0.1063
15697W        W19997  16.790   2.598  23.497  0.0867  0.0735 -0.0091
15698W        W19998  18.691   1.046  20.194 -0.0464 -0.0178 -0.2970
15699W        W19999  22.669   5.392   0.521  0.0625  0.0485 -0.3031
15700W        W20000  21.197   5.454  19.664 -0.1360 -0.1611 -0.2521
15701W        W20001   8.632   1.127   8.453 -0.1405  0.0455  0.3525
15702W        W20002  28.890   4.780  10.648 -0.2237 -0.2033  0.0322
15703W        W20003   0.702   1.853   3.631 -0.0989  0.2324 -0.1684
15704W        W20004   7.966   6.593   1.749 -0.0897  0.1507 -0.0226
15705W        W20005  21.556   3.554  20.378  0.2247  0.0610 -0.1212
15706W        W20006  20.342   4.329   2.176 -0.0665 -0.1531  0.2310
15707W        W20007  30.729   3.183  22.237  0.1471 -0.1038 -0.1667
15708W        W20008   3.100   3.248   9.265 -0.1827 -0.1649 -0.4076
15709W        W20009  27.116   7.604  15.840 -0.0736 -0.1071 -0.1422
15710W        W20010  17.887   6.486  21.684  0.1632  0.2943 -0.0594
15711W        W20011   6.517   1.625  21.898  0.1408 -0.1410  0.3229
15712W        W20012  14.202   2.585  21.502 -0.0368 -0.0622  0.2905
15713W        W20013  30.826   1.233  25.574  0.1785  0.1888  0.3671
15714W        W20014  11.918   1.543   0.049  0.0401  0.1491  0.0862
15715W        W20015   3.728   0.954  20.698  0.2186 -0.0586 -0.1076
15716W        W20016  10.501   0.532  22.527  0.0146 -0.0690  0.0372
15717W        W20017  28.726   6.115   1.532  0.1477 -0.4684 -0.0043
15718W        W20018   5.708   2.547   6.323  0.2705 -0.2096  0.0240
15719W        W20019   5.723   4.813   3.005 -0.1861  0.0294 -0.1221
15720W        W20020  22.549   6.175  22.364 -0.2786 -0.0886  0.0392
15721W        W20021   1.621   1.802   8.539 -0.0296  0.1838 -0.2121
15722W        W20022  15.872   5.864  24.854  0.0236 -0.3539 -0.0896
15723W        W20023   3.714   1.691  24.021  0.2037  0.0573  0.2769
15724W        W20024   3.825   7.251  23.305  0.0697 -0.0713 -0.2459
15725W        W20025  13.555   3.700  17.027 -0.0688  0.1850 -0.2699
15726W        W20026  17.530   1.805  21.710 -0.0272 -0.4125  0.1250
15727W        W20027   6.543   2.297   3.256 -0.1755 -0.1729  0.0401
15728W        W20028  12.532   6.124  23.848 -0.1611  0.0878  0.1278
15729W        W20029  15.110   4.859  15.600 -0.1783  0.3324 -0.4193
15730W        W20030  29.386   4.447  23.589 -0.0921  0.0128 -0.0872
15731W        W20031  29.185   2.225  16.365 -0.0721 -0.1209 -0.0765
15732W        W20032  28.189   3.636  10.332 -0.0077  0.2283 -0.3392
15733W        W20033  12.414   2.228  23.243  0.1423 -0.1626 -0.0807
15734W        W20034   3.207   4.035   7.606  0.3384 -0.0375 -0.3550
15735W        W20035  18.360   7.120  26.309 -0.2599  0.0145  0.3145
15736W        W20036  25.154   5.093  24.178 -0.1509 -0.0341  0.0031
15737W        W20037  14.372   7.120  22.734 -0.1836 -0.0913  0.2950
15738W        W20038  19.191   3.026   0.074  0.0927 -0.4013 -0.1445
15739W        W20039  11.637   2.135  16.805 -0.0411  0.2695 -0.3248
15740W        W20040  24.797   4.555   2.525 -0.3256 -0.1741 -0.1567
15741W        W20041  16.954   4.631  17.942 -0.0601  0.0918  0.1813
15742W        W20042  12.618   7.645  25.809 -0.0989  0.0097  0.1162
15743W        W20043  21.047   6.075   3.730  0.0194  0.1263 -0.0906
15744W        W20044  21.214   5.353  10.050  0.0454  0.2689 -0.2412
15745W        W20045   8.221   7.413  16.152 -0.1242 -0.0752  0.1887
15746W        W20046  18.715   1.727   1.366 -0.1140 -0.0441 -0.0076
15747W        W20047  30.599   6.244   8.600 -0.0613 -0.1743  0.2296
15748W        W20048  20.661   1.590   9.758 -0.2585 -0.0455  0.2617
15749W        W20049  28.555   0.155   6.659  0.0572 -0.2622 -0.0580
15750W        W20050  19.686   0.096   9.213  0.0156  0.1702  0.0821
15751W        W20051  10.058   7.766   1.105  0.1877  0.1992 -0.2282
15752W        W20052   5.906   5.182  18.786 -0.0122  0.0708 -0.2991
15753W        W20053  28.554   1.040   4.424 -0.1194 -0.3936 -0.2618
15754W        W20054  22.304   2.542  19.083  0.0316 -0.1795  0.0269
15755W        W20055  18.879   4.675   1.848  0.2341  0.2376 -0.2571
15756W        W20056  19.779   0.081  10.491 -0.1084  0.1914 -0.1621
15757W        W20057  29.105   7.748  23.699 -0.0561 -0.0227 -0.1357
15758W        W20058  11.673   4.314   7.941  0.0676  0.0546 -0.2812
15759W        W20059  20.762   1.795  25.560 -0.0277 -0.0975  0.0886
15760W        W20060   1.447   3.641  22.358  0.3416 -0.2460  0.5396
15761W        W20061  22.389   2.319  11.064 -0.0908 -0.0242  0.0638
15762W        W20062  19.713   3.542  15.098  0.2434  0.0077 -0.4776
15763W        W20063   7.693   3.074   8.293 -0.2119 -0.1067 -0.0179
15764W        W20064  22.636   2.736  21.367 -0.0679  0.1708  0.0234
15765W        W20065  29.289   1.346  23.927 -0.0033  0.0337  0.1982
15766W        W20066  26.528   0.148  21.038  0.0391  0.1798  0.2198
15767W        W20067   9.193   5.045  21.931 -0.1883  0.0811 -0.0784
15768W        W20068  23.029   0.176   9.342 -0.1415  0.0460  0.0616
15769W        W20069  14.529   0.608  26.060 -0.0579 -0.1936 -0.3712
15770W        W20070  16.643   0.515  17.901 -0.1537  0.1423  0.2400
15771W        W20071  28.269   3.304  19.657 -0.0445 -0.0534  0.2147
15772W        W20072  17.636   7.319  19.805  0.1832  0.0573 -0.0778
15773W        W20073  17.975   6.649   3.235  0.0053  0.3090 -0.1003
15774W        W20074  18.918   5.982   0.371 -0.0997  0.0116  0.1319
15775W        W20075  28.851   2.115   4.905 -0.3666 -0.1536  0.0537
15776W        W20076   4.639   3.467  18.949 -0.0946  0.0633  0.0598
15777W        W20077   2.976   7.107   6.767  0.0368 -0.1106  0.0299
15778W        W20078  25.781   3.618   8.815 -0.0360  0.0648  0.0948
15779W        W20079  26.321   5.995  10.476  0.3934 -0.1060 -0.0120
15780W        W20080   1.715   0.467   3.948  0.1367  0.1271 -0.0174
15781W        W20081  26.094   6.010   7.097 -0.2181 -0.0593  0.0239
15782W        W20082  23.432   3.700   0.796 -0.1066 -0.2359  0.1764
15783W        W20083  27.709   1.628  18.499 -0.2242 -0.0096  0.0833
15784W        W20084  25.315   3.576   2.389  0.0900  0.0376 -0.1712
15785W        W20085   1.898   6.549   7.505  0.0675 -0.2456 -0.1178
15786W        W20086   8.198   0.966   7.415 -0.0212  0.1977  0.0670
15787W        W20087  17.289   1.762   0.037 -0.0297  0.1099 -0.0434
15788W        W20088   8.115   2.337  21.388 -0.3194 -0.0527 -0.1448
15789W        W20089   3.939   0.154  23.982  0.0949 -0.2571 -0.2064
15790W        W20090  28.930   7.309  24.101 -0.3421 -0.0247  0.1189
15791W        W20091   7.142   5.263   9.803  0.0058  0.0316 -0.0140
15792W        W20092  31.021   4.382   9.850 -0.1892 -0.0004  0.1714
15793W        W20093   5.210   6.870  24.309 -0.1022  0.0226 -0.2364
15794W        W20094  23.420   4.465  22.695  0.2119 -0.0929  0.2487
15795W        W20095   5.701   1.216  22.168 -0.1582  0.0165 -0.0834
15796W        W20096  25.664   0.093   5.501  0.0588 -0.1167  0.0332
15797W        W20097  16.394   7.583   2.597 -0.2738  0.2179 -0.1288
15798W        W20098  22.145   3.389  18.737  0.1247  0.0655  0.1729
15799W        W20099   3.267   4.743   6.066  0.0310 -0.0775 -0.0474
15800W        W20100  19.378   3.078  16.726  0.1798 -0.0526 -0.2677
15801W        W20101  19.280   1.850  18.435  0.0448 -0.0218 -0.2932
15802W        W20102  13.116   5.352  22.639  0.0840  0.0630 -0.0231
15803W        W20103  16.327   2.806  17.969 -0.1046 -0.0958 -0.0113
15804W        W20104   6.409   2.984  15.926 -0.1551  0.1534  0.0633
15805W        W20105   2.139   4.381   2.730 -0.0481 -0.2717 -0.2730
15806W        W20106  15.906   6.354  17.123  0.1688 -0.4684 -0.0966
15807W        W20107   0.340   3.508   0.352  0.4802 -0.0794  0.1801
15808W        W20108   2.129   5.052   5.633  0.3223 -0.3351  0.1532
15809W        W20109   5.355   5.975   5.209  0.3043 -0.0609 -0.1236
15810W        W20110  24.048   5.602  25.148 -0.3807 -0.4341  0.2098
15811W        W20111  13.218   2.707   5.698 -0.1603 -0.1491  0.2211
15812W        W20112   4.628   0.826   8.216 -0.0653  0.1446  0.1613
15813W        W20113   1.299   5.658  22.794 -0.0951  0.0172 -0.2516
15814W        W20114  19.211   7.142   0.637 -0.1973  0.0246 -0.1171
15815W        W20115  28.663   3.311   4.969  0.2606 -0.0695  0.3601
15816W        W20116   4.486   5.578  20.143 -0.1782  0.0708 -0.1960
15817W        W20117  21.862   7.359  26.421 -0.0640 -0.0917  0.0826
15818W        W20118  22.103   6.150  11.795  0.2443 -0.1945  0.3343
15819W        W20119  22.519   1.541   3.685  0.2297 -0.0090 -0.0578
15820W        W20120  26.226   1.427  24.723  0.0895  0.3074 -0.2760
15821W        W20121  24.463   2.751  15.741  0.0411  0.1158  0.0536
15822W        W20122   4.299   2.440  25.438  0.1742 -0.0230  0.0879
15823W        W20123  10.630   1.464  18.254  0.3570 -0.2831  0.0335
15824W        W20124  22.366   7.697  22.533 -0.0130 -0.3219 -0.1588
15825W        W20125   9.525   6.059   4.704  0.0054 -0.2964  0.1983
15826W        W20126  10.316   5.615  24.776  0.2302 -0.1342 -0.2015
15827W        W20127   7.388   4.210   7.540 -0.0652  0.0814 -0.0024
15828W        W20128  26.937   7.038  21.236  0.0158 -0.1012 -0.3301
15829W        W20129  17.378   5.018  17.797 -0.0522  0.1094 -0.3504
15830W        W20130  22.621   6.709   6.803  0.1416  0.0373  0.3044
15831W        W20131  28.242   7.495  21.159  0.1133 -0.1360 -0.0026
15832W        W20132  26.875   0.573  25.706 -0.1416  0.2347  0.2751
15833W        W20133  19.432   4.628  15.605  0.1942 -0.0716 -0.0214
15834W        W20134  12.326   6.645  25.267  0.2381  0.1380  0.0343
15835W        W20135  22.027   5.912  24.258 -0.1707  0.0625  0.0851
15836W        W20136  21.814   4.249  18.280 -0.0338  0.0291  0.2031
15837W        W20137  16.596   5.876   3.058 -0.0403 -0.0118  0.0898
15838W        W20138  17.883   2.225   1.210 -0.1559  0.3081  0.0380
15839W        W20139  28.882   0.950   9.803 -0.0518 -0.1987 -0.0204
15840W        W20140  23.814   2.873   0.504 -0.0264 -0.1442 -0.1600
15841W        W20141  14.900   2.370   9.755 -0.0813  0.2201 -0.2563
15842W        W20142   9.508   5.680   2.871  0.0375  0.1615 -0.1184
15843W        W20143  14.220   0.978  22.655  0.2709  0.1190  0.3419
15844W        W20144  12.144   7.233  25.456 -0.1983  0.2107  0.0260
15845W        W20145  31.069   6.168   9.822  0.0820 -0.0307 -0.1544
15846W        W20146  20.584   3.159   4.774 -0.0358  0.0584 -0.3045
15847W        W20147  28.405   3.920   7.294  0.0441  0.0478  0.0605
15848W        W20148  14.201   5.424   5.103 -0.0851 -0.0512 -0.1701
15849W        W20149   5.370   5.500  16.140  0.0127 -0.1600  0.0775
15850W        W20150  16.075   7.406   5.703  0.0059  0.1010  0.0987
15851W        W20151   9.828   2.815  21.486  0.0155 -0.2271 -0.0167
15852W        W20152  24.552   3.349   3.016  0.2215  0.0270  0.0830
15853W        W20153   5.725   0.810  24.561 -0.1509  0.2374 -0.0402
15854W        W20154  20.878   2.199  23.678 -0.0933  0.3534  0.0997
15855W        W20155   0.671   4.496  19.216 -0.1007  0.1482 -0.1313
15856W        W20156   1.027   2.134   2.451  0.0766 -0.3404 -0.2051
15857W        W20157  13.483   1.236  25.725 -0.3356  0.2057 -0.0384
15858W        W20158  18.653   0.536  15.329  0.2209 -0.0118 -0.0680
15859W        W20159  30.866   3.917   2.777  0.2151  0.2473 -0.0724
15860W        W20160   4.130   4.406  20.075  0.1200  0.1171 -0.0863
15861W        W20161  23.618   5.570   0.588 -0.1623 -0.1677  0.0925
15862W        W20162   8.718   4.199   0.489 -0.3307 -0.1490  0.0379
15863W        W20163  17.908   6.338   4.035  0.1212 -0.2134 -0.3231
15864W        W20164   0.151   1.537  20.922 -0.0772  0.0214 -0.0848
15865W        W20165  12.879   1.610  22.647  0.1147  0.1324 -0.0314
15866W        W20166  21.259   0.425  26.072 -0.1774 -0.0779  0.3177
15867W        W20167  19.528   2.410  24.329 -0.1887 -0.2428  0.0270
15868W        W20168  23.889   1.744  20.534 -0.0045  0.3658  0.3528
15869W        W20169   5.583   2.541   8.274  0.1232  0.1847 -0.0175
15870W        W20170  31.032   0.066   6.745 -0.0650  0.1792  0.1842
15871W        W20171  28.877   1.983   1.054  0.3169  0.1521 -0.2097
15872W        W20172  18.041   0.481   1.584 -0.2127 -0.1024  0.1355
15873W        W20173   4.060   0.602  25.584 -0.0931 -0.1397 -0.1802
15874W        W20174   9.186   3.228  23.806 -0.0816 -0.0844  0.2512
15875W        W20175  12.652   5.170  22.778 -0.2562  0.0006  0.0409
15876W        W20176   0.838   6.565  21.798 -0.0025  0.2376 -0.0096
15877W        W20177   5.601   3.397  24.348 -0.1643  0.0502  0.2229
15878W        W20178   9.686   2.072  17.904  0.3800 -0.0790 -0.0801
15879W        W20179   9.873   5.518  25.531 -0.0029 -0.2146  0.1622
15880W        W20180  30.240   4.734   7.801 -0.0796 -0.2688 -0.1259
15881W        W20181  26.496   6.708   6.632  0.0448 -0.0122 -0.1243
15882W        W20182   8.483   4.996   2.014  0.0822 -0.0991 -0.0497
15883W        W20183  10.861   2.653   8.572 -0.0113 -0.2197 -0.2510
15884W        W20184   6.709   3.034   4.295  0.1338 -0.2593 -0.2641
15885W        W20185   0.760   3.601  21.829  0.0810 -0.0182  0.2775
15886W        W20186  15.967   4.841   8.234  0.0625 -0.1238 -0.0192
15887W        W20187  24.639   2.803   5.602 -0.0197 -0.1613  0.1966
15888W        W20188  28.072   1.149   2.365  0.1702 -0.2619 -0.2161
15889W        W20189  24.067   7.318  23.999 -0.0794 -0.1525 -0.2601
15890W        W20190  11.424   2.199  21.003 -0.0084 -0.1461  0.1728
15891W        W20191  25.947   1.221  16.225  0.3789 -0.1196  0.0808
15892W        W20192   1.726   1.312   4.309 -0.0389 -0.1027 -0.0933
15893W        W20193  21.097   0.403  16.462 -0.3455  0.0177  0.1738
15894W        W20194   2.065   0.838  24.187 -0.1568  0.0483 -0.1547
15895W        W20195  16.586   6.462  18.128 -0.1125  0.2721 -0.2435
15896W        W20196   3.818   7.597  21.591  0.1286  0.0733  0.2628
15897W        W20197  25.879   1.131   0.633  0.1494  0.2438 -0.0201
15898W        W20198   7.583   6.713   0.079 -0.1941  0.2236 -0.1520
15899W        W20199  17.437   5.318  10.698 -0.0459  0.1304 -0.3284
15900W        W20200  12.723   0.287  19.384  0.2688  0.1974  0.3907
15901W        W20201  10.896   4.427   0.379  0.1217  0.0105  0.0678
15902W        W20202   5.426   6.964   7.686  0.0746  0.4239  0.1525
15903W        W20203   3.456   6.882   2.079 -0.1657 -0.0069  0.5123
15904W        W20204  11.089   6.005   7.382  0.0123  0.0012 -0.0199
15905W        W20205   1.367   6.717  19.832 -0.1867 -0.0699  0.0457
15906W        W20206  27.656   0.753  16.677 -0.0480 -0.1031 -0.0512
15907W        W20207  25.449   3.948   0.058 -0.0515 -0.2110 -0.1287
15908W        W20208   3.852   5.656  16.273  0.1233  0.2205  0.2691
15909W        W20209  23.839   2.803   2.669 -0.0565  0.1105 -0.0742
15910W        W20210  29.651   2.838   1.390  0.3168  0.0405  0.1211
15911W        W20211  26.115   6.819  25.747 -0.2878  0.0177 -0.0293
15912W        W20212   4.842   1.486  23.840 -0.3526 -0.1584  0.0533
15913W        W20213  25.672   3.985  22.026 -0.3165  0.2268  0.1913
15914W        W20214  24.629   7.635  25.167 -0.1152 -0.1705 -0.1157
15915W        W20215  18.384   5.235  15.598  0.1619  0.0737  0.1095
15916W        W20216   5.006   5.788  18.153 -0.0177 -0.2420 -0.1959
15917W        W20217   8.665   1.621  25.856 -0.1833 -0.0224 -0.2715
15918W        W20218  24.009   1.488   3.967 -0.0483 -0.4232  0.0246
15919W        W20219  26.894   4.015  22.948 -0.0337  0.0091 -0.0492
15920W        W20220  22.108   4.433  22.357  0.1221  0.0613  0.0358
15921W        W20221   7.170   4.285   0.403  0.1052 -0.1487  0.0062
15922W        W20222  22.387   3.819  26.018 -0.1917  0.0782 -0.2380
15923W        W20223   6.477   6.979  24.973 -0.0697 -0.2160 -0.1186
15924W        W20224  16.391   1.178  17.336  0.1632 -0.1160 -0.1309
15925W        W20225   0.391   5.791  10.470 -0.1755  0.3329 -0.1313
15926W        W20226  29.057   0.613  20.455  0.0625  0.1758  0.0919
15927W        W20227  12.286   5.242   2.488  0.0273 -0.1737 -0.0526
15928W        W20228  13.588   2.555  16.690  0.1886  0.2355 -0.0877
15929W        W20229   9.917   2.706   2.837  0.1408  0.1302 -0.2567
15930W        W20230  12.653   6.823   9.567 -0.0663 -0.2230  0.5580
15931W        W20231  22.353   5.836   0.485  0.0627 -0.1060 -0.1386
15932W        W20232  14.501   6.950   4.697  0.1635 -0.0230 -0.0619
15933W        W20233   1.903   0.668   0.708  0.2229  0.2034 -0.1543
15934W        W20234  20.351   4.249  23.900 -0.0742  0.0352 -0.0501
15935W        W20235  25.225   4.164  19.648 -0.0751 -0.0962  0.2911
15936W        W20236   5.841   7.673   3.474 -0.0458  0.0074 -0.1420
15937W        W20237  27.774   1.759  23.199  0.1272  0.0528 -0.2882
15938W        W20238   9.009   6.709  21.610 -0.0036 -0.1930 -0.0750
15939W        W20239  24.107   4.728   8.739  0.2044  0.0529 -0.2424
15940W        W20240   6.115   5.060  17.649  0.0732 -0.0386 -0.1209
15941W        W20241  17.673   6.473   5.142 -0.0820  0.0632  0.0228
15942W        W20242  30.120   7.329  25.033 -0.2823 -0.1158 -0.1048
15943W        W20243  28.204   3.739  22.128  0.0769 -0.3236 -0.1101
15944W        W20244   2.509   1.991   1.132 -0.0058 -0.2984  0.0065
15945W        W20245   1.745   4.309   8.826  0.0906  0.1682  0.0800
15946W        W20246   0.714   6.153  10.683 -0.2812  0.1353 -0.0926
15947W        W20247  23.236   3.998   4.792  0.1679  0.3804  0.1272
15948W        W20248  25.172   2.422  24.996  0.1368  0.1413  0.2796
15949W        W20249   5.244   6.278   0.001 -0.0252 -0.0731 -0.1785
15950W        W20250  23.125   1.247  20.741  0.2864 -0.0091  0.2420
15951W        W20251   1.641   5.278   3.944 -0.1906 -0.0100  0.1296
15952W        W20252  25.007   6.863  23.125 -0.1247 -0.0862  0.1980
15953W        W20253   4.860   1.773  21.164 -0.3871  0.2352  0.1213
15954W        W20254  23.620   5.246  19.202 -0.1840 -0.2702  0.1076
15955W        W20255   0.225   0.447  19.811  0.0324 -0.0532 -0.5420
15956W        W20256  25.659   1.161   2.072  0.2012 -0.0730  0.1894
15957W        W20257   1.551   7.777  25.102 -0.1518  0.2964  0.1215
15958W        W20258  18.193   5.507  20.969 -0.1241 -0.1606  0.1445
15959W        W20259  20.644   4.898   8.493  0.1596 -0.0308 -0.1437
15960W        W20260  22.551   1.088   2.095  0.0387  0.1980  0.1017
15961W        W20261  20.594   1.021   8.404 -0.0092 -0.3652  0.1464
15962W        W20262  22.436   1.812  24.723 -0.1826  0.1111  0.0219
15963W        W20263   1.093   5.586  21.570  0.2483 -0.0239  0.0980
15964W        W20264  22.306   0.298  20.197 -0.4161  0.1987  0.0092
15965W        W20265  30.433   0.713  21.266  0.2665 -0.1760 -0.2903
15966W        W20266   0.186   0.802   1.675  0.2417 -0.0549 -0.2469
15967W        W20267   5.282   2.073  15.328  0.2519 -0.1718  0.2491
15968W        W20268  14.781   3.462   0.599  0.0067 -0.2040 -0.2206
15969W        W20269  24.195   1.885  15.333 -0.1649 -0.0384  0.1255
15970W        W20270  22.023   4.073  25.600  0.0842 -0.0400  0.0807
15971W        W20271   5.847   1.559  25.706  0.0966 -0.2602  0.0282
15972W        W20272  11.500   5.194  17.835  0.1011 -0.0546 -0.0895
15973W        W20273  14.712   4.780  10.131  0.1068 -0.0588  0.0496
15974W        W20274  19.616   4.839   5.222  0.0582 -0.2275  0.1522
15975W        W20275   3.221   2.901   2.439 -0.0445  0.0173 -0.3403
15976W        W20276  21.144   4.253  21.490 -0.1561  0.0113 -0.1827
15977W        W20277  28.338   2.089  23.970  0.1592  0.0113  0.0255
15978W        W20278  17.767   2.563   6.866 -0.1358  0.2617 -0.0233
15979W        W20279   8.430   5.956  17.634 -0.0809 -0.2529  0.0585
15980W        W20280  26.143   1.870  10.485 -0.1762  0.2557  0.1603
15981W        W20281   0.087   2.840  19.863 -0.1327  0.2382  0.0945
15982W        W20282  29.142   5.953   7.569  0.2471  0.0624  0.6840
15983W        W20283  13.735   3.003  10.841 -0.0459 -0.1389 -0.1223
15984W        W20284  25.115   2.930   7.757 -0.0540  0.0025  0.2809
15985W        W20285   2.266   0.307  25.564 -0.1892 -0.1628 -0.4834
15986W        W20286   7.860   6.653   3.974  0.1571  0.1192  0.2960
15987W        W20287  18.673   1.354   8.600  0.2837 -0.1548 -0.1643
15988W        W20288  26.284   1.739  19.944  0.0710  0.0276 -0.0294
15989W        W20289   6.031   7.022  20.880 -0.2038 -0.0725 -0.0043
15990W        W20290   4.234   1.401  19.792 -0.0691  0.1048 -0.0004
15991W        W20291  29.065   2.412   6.899 -0.3654 -0.0424 -0.0652
15992W        W20292  26.915   0.566   3.318 -0.0274  0.2671 -0.1552
15993W        W20293  20.372   1.089   3.075 -0.0234 -0.2846  0.1479
15994W        W20294  30.671   4.229   3.580 -0.2734  0.0355 -0.0212
15995W        W20295   8.006   7.164  23.346 -0.1868 -0.0682  0.1687
15996W        W20296   1.388   4.191  18.635 -0.0109 -0.2248 -0.0211
15997W        W20297  11.730   2.584   7.682 -0.3206  0.0251 -0.0819
15998W        W20298   3.878   4.587   0.308  0.0800  0.1726 -0.1624
15999W        W20299   0.201   1.053  21.927 -0.1292 -0.0536  0.2638
16000W        W20300  16.884   2.827   0.571 -0.0918  0.1523  0.0019
16001W        W20301  13.881   6.271  21.542  0.0085  0.1428  0.1253
16002W        W20302  13.885   6.773  23.730 -0.1291  0.2016  0.1739
16003W        W20303  23.967   0.337  10.930 -0.0102  0.2298  0.0273
16004W        W20304   1.517   7.091   2.149 -0.0488 -0.1695  0.1556
16005W        W20305   4.078   2.812   6.301  0.0156  0.0020 -0.3921
16006W        W20306  21.817   0.471   8.749 -0.0503 -0.1835 -0.2808
16007W        W20307  25.626   7.723  21.337  0.1292 -0.0203 -0.1933
16008W        W20308  11.445   4.942  24.465  0.1466 -0.1073 -0.0489
16009W        W20309  27.251   6.975   4.034 -0.1465  0.3005  0.1744
16010W        W20310  14.875   3.334  18.164 -0.0826 -0.1676  0.1276
16011W        W20311   0.147   3.840  17.257 -0.1238 -0.1905 -0.4213
16012W        W20312  19.755   2.555  22.151 -0.2124  0.1971 -0.2809
16013W        W20313   8.158   6.959  26.320 -0.1322 -0.3147 -0.2444
16014W        W20314   9.428   6.033   6.794  0.0959  0.0570 -0.1784
16015W        W20315   6.207   6.110   0.943  0.0138 -0.1454 -0.0646
16016W        W20316  20.465   1.867  23.830  0.2401  0.0819 -0.0529
16017W        W20317   9.172   6.147  25.711  0.2518  0.0305 -0.1445
16018W        W20318  22.955   4.455  20.118  0.1852  0.0424  0.0817
16019W        W20319  21.070   3.683  17.361 -0.2568  0.2793 -0.0894
16020W        W20320  13.139   3.171   1.072 -0.0763 -0.1269 -0.0132
16021W        W20321  29.843   5.529   2.853 -0.1990 -0.0803  0.0067
16022W        W20322  19.667   5.143   2.387  0.2127 -0.3095 -0.0882
16023W        W20323  14.179   4.776  26.395 -0.2250  0.0540  0.0574
16024W        W20324  18.180   4.865  22.768 -0.0046  0.3354  0.4822
16025W        W20325   9.882   7.059  17.391  0.1403  0.2232 -0.5278
16026W        W20326  15.182   7.009  25.703 -0.0076 -0.0667 -0.2912
16027W        W20327  29.512   4.164  22.774 -0.3502 -0.0124 -0.0885
16028W        W20328  18.078   1.398  10.671  0.1384 -0.3147 -0.2075
16029W        W20329  14.898   0.551   7.903 -0.2431  0.1022 -0.0664
16030W        W20330  14.371   2.708  25.685 -0.0715 -0.1120  0.1388
16031W        W20331  16.870   1.348   5.804  0.2258 -0.2121  0.0670
16032W        W20332  28.746   2.948  10.463 -0.1858  0.1095 -0.2836
16033W        W20333  14.332   1.578  18.927  0.1019  0.2833 -0.3937
16034W        W20334  14.115   5.589  23.913  0.0141 -0.1690  0.0533
16035W        W20335  20.022   3.679  24.392  0.0726 -0.1083  0.1282
16036W        W20336   7.125   5.217  22.733 -0.0367  0.5276  0.5218
16037W        W20337   2.569   3.107   9.851  0.0082 -0.0340 -0.1372
16038W        W20338   1.592   2.239  16.661  0.2281 -0.0614 -0.0007
16039W        W20339  29.702   7.340   9.640  0.0404  0.1516  0.2013
16040W        W20340  22.728   5.459  22.924 -0.0748 -0.2201 -0.2368
16041W        W20341   3.173   1.504   2.548  0.1795  0.1244  0.1228
16042W        W20342  25.633   6.995  18.269  0.0575  0.1082  0.3717
16043W        W20343  28.834   4.214   8.180 -0.1896 -0.0529 -0.0214
16044W        W20344  26.426   3.420  25.748 -0.1461  0.1542  0.0440
16045W        W20345   1.481   0.671  15.315 -0.3094 -0.2316 -0.0379
16046W        W20346   6.964   3.310  25.526 -0.1540  0.2759  0.1448
16047W        W20347  24.882   3.644   6.909  0.0735  0.0030 -0.1315
16048W        W20348  20.312   0.526   8.114  0.2052 -0.1147 -0.1181
16049W        W20349  10.168   3.862  20.645 -0.2131 -0.2462  0.0515
16050W        W20350  16.862   6.365   6.152  0.0807 -0.0483  0.1068
16051W        W20351  22.598   1.041  19.745  0.4207 -0.1134 -0.1094
16052W        W20352   3.638   3.222   2.566  0.0354  0.0295  0.1101
16053W        W20353   4.263   5.874   8.044  0.0044  0.0010 -0.1052
16054W        W20354   9.022   6.462  23.022 -0.0327  0.1117 -0.1030
16055W        W20355   9.222   3.915   8.110 -0.1002 -0.1428  0.1944
16056W        W20356  25.971   6.733  16.865 -0.1346 -0.1274  0.0342
16057W        W20357  15.334   3.542   2.679 -0.1744  0.0188  0.0423
16058W        W20358  10.820   5.440  26.363  0.0480  0.0426  0.1451
16059W        W20359   2.811   6.518   0.536  0.3556 -0.0104  0.1766
16060W        W20360   3.763   0.616  21.376  0.1847  0.2397 -0.0025
16061W        W20361   3.616   0.634  10.261  0.1835 -0.1796  0.2810
16062W        W20362  18.404   3.969   0.947  0.1659 -0.0448  0.1990
16063W        W20363  18.534   2.115   3.431 -0.1836 -0.2150  0.2074
16064W        W20364   2.884   2.464  23.972  0.5370 -0.0674  0.0118
16065W        W20365  18.927   0.059  24.565 -0.2228 -0.5012 -0.0451
16066W        W20366   5.077   3.653   7.707  0.0926  0.2842  0.2055
16067W        W20367  27.217   6.864  23.333 -0.1926  0.0278 -0.0535
16068W        W20368  14.742   3.983  16.470  0.0222 -0.2281 -0.1220
16069W        W20369  24.275   1.479  19.292 -0.2344 -0.1663 -0.1177
16070W        W20370  16.358   7.397   3.884 -0.2261  0.0723  0.1431
16071W        W20371  14.257   4.986  20.837 -0.0961 -0.2038  0.1401
16072W        W20372  24.788   5.837   6.767  0.2812 -0.2780  0.2513
16073W        W20373  19.412   0.675   5.592  0.0247 -0.0509  0.0853
16074W        W20374   4.683   5.122   8.120 -0.1764  0.2111  0.3750
16075W        W20375   0.983   6.381   1.825 -0.2513 -0.1103 -0.0075
16076W        W20376  21.725   1.902  25.981  0.1310 -0.1403 -0.0280
16077W        W20377  24.779   5.020  11.210  0.3767 -0.3082  0.1551
16078W        W20378   1.335   2.629  23.074 -0.1122 -0.0828  0.1076
16079W        W20379  29.962   3.891   5.837 -0.0122 -0.1505  0.3114
16080W        W20380  16.590   4.043  21.047 -0.1480  0.0546  0.3270
16081W        W20381  28.687   5.813   5.309  0.0708  0.0404 -0.0895
16082W        W20382  25.850   1.014  19.625  0.3055  0.2934  0.0941
16083W        W20383   9.273   2.644  16.014 -0.2859  0.0416 -0.0112
16084W        W20384  15.472   1.284   6.511  0.3137 -0.0435 -0.0740
16085W        W20385   0.669   2.875  18.827 -0.1768  0.2110  0.1010
16086W        W20386  20.233   2.021   1.707  0.2105  0.2070 -0.1095
16087W        W20387  22.570   6.475   6.298 -0.2016 -0.2162  0.0478
16088W        W20388   0.208   7.347   2.009 -0.0465  0.4318  0.0374
16089W        W20389   1.156   1.940  17.147 -0.2543  0.0328 -0.1324
16090W        W20390   3.051   2.914  15.865  0.3372 -0.0396 -0.0371
16091W        W20391  22.356   2.500  22.923 -0.0448  0.1825  0.2398
16092W        W20392  21.495   5.381  19.028  0.0080 -0.0925  0.1812
16093W        W20393   1.622   5.001   9.403  0.0982 -0.2821  0.3767
16094W        W20394  18.661   6.764   4.101  0.0260  0.3306  0.3383
16095W        W20395  10.408   4.422  22.220  0.2491 -0.1880  0.0862
16096W        W20396   9.076   7.306  21.985  0.0533 -0.1017 -0.0299
16097W        W20397   9.656   0.200   7.422 -0.1204  0.1682 -0.1706
16098W        W20398  21.896   6.068   4.038  0.2075 -0.1624  0.4277
16099W        W20399  19.170   6.802   9.892  0.0084 -0.2346  0.0260
16100W        W20400   3.427   7.209  24.746 -0.5796 -0.1819 -0.2274
16101W        W20401   7.624   4.696  23.488  0.1054 -0.0126 -0.0098
16102W        W20402  24.994   4.664   8.186 -0.1473 -0.2671 -0.0923
16103W        W20403   2.942   1.846  22.335 -0.1569 -0.2392 -0.1597
16104W        W20404  11.870   7.696   4.077  0.1288  0.2325 -0.1842
16105W        W20405  21.145   0.323   6.249 -0.1188  0.0252 -0.1018
16106W        W20406  23.298   2.879   9.851 -0.1088 -0.2098 -0.1844
16107W        W20407   6.884   1.660  15.779 -0.0765 -0.1573 -0.2845
16108W        W20408   6.482   1.379   8.069 -0.3629  0.4784  0.1295
16109W        W20409  29.620   0.720   3.298  0.2344  0.1323  0.1013
16110W        W20410  22.564   1.907   1.360  0.0201 -0.0328 -0.0907
16111W        W20411  11.949   7.437   0.831 -0.2524  0.1839 -0.1938
16112W        W20412  29.405   3.152  16.127  0.2563  0.1253  0.0106
16113W        W20413  26.657   7.493   1.435  0.1019  0.0450  0.1439
16114W        W20414   2.232   6.534   2.812 -0.0812 -0.0513 -0.0381
16115W        W20415   4.451   0.576  23.260 -0.2234  0.0016  0.0807
16116W        W20416  25.249   1.676  18.910  0.2045  0.4266 -0.1888
16117W        W20417   5.431   3.973  26.365 -0.2605  0.1109  0.1269
16118W        W20418  16.079   5.154   3.546  0.1892  0.1307  0.3044
16119W        W20419   8.219   7.738   8.567 -0.1339 -0.1428 -0.3444
16120W        W20420   0.263   0.019  17.528  0.0917 -0.6285  0.0224
16121W        W20421   5.634   1.028  18.879 -0.1979 -0.0981 -0.1027
16122W        W20422  28.386   7.242   0.159  0.4107  0.2271  0.0442
16123W        W20423  16.435   0.329  15.405  0.0943  0.0896 -0.0995
16124W        W20424  13.653   0.509  22.813  0.0211 -0.2941  0.0416
16125W        W20425   5.674   6.374   9.670 -0.0440  0.2594  0.3809
16126W        W20426  19.401   1.808   6.399 -0.1495  0.1277  0.2892
16127W        W20427   9.870   2.837  20.575  0.1295  0.2282 -0.2511
16128W        W20428   4.711   3.418  24.318 -0.2793  0.1583 -0.1173
16129W        W20429  21.695   7.640  10.777  0.0821 -0.1233 -0.2778
16130W        W20430  18.982   7.109  24.210  0.3028  0.2207  0.1846
16131W        W20431  30.189   6.527   8.772 -0.0819  0.1151  0.0286
16132W        W20432  29.165   0.913   4.983  0.0564  0.3709 -0.0215
16133W        W20433  27.198   2.637  24.481  0.0269 -0.0098 -0.1134
16134W        W20434  20.529   4.571   4.864  0.1617  0.2630 -0.0979
16135W        W20435  10.909   0.745  16.401  0.0865  0.0719  0.2143
16136W        W20436   5.913   1.652   0.745  0.2026  0.0521 -0.0228
16137W        W20437  22.487   1.891   4.060 -0.1182  0.2056  0.0148
16138W        W20438  19.704   6.063  17.031  0.2182  0.0466  0.0420
16139W        W20439  22.400   6.198  23.495 -0.3506  0.2136 -0.1012
16140W        W20440   1.138   1.162   7.379  0.0475 -0.0514  0.1735
16141W        W20441  27.672   0.314  17.076  0.0510 -0.0119 -0.0340
16142W        W20442  27.316   0.346  19.608  0.0736  0.2537  0.1431
16143W        W20443  17.210   7.100   0.871 -0.2692  0.1942 -0.1938
16144W        W20444  27.865   3.770   5.421 -0.0914  0.1888 -0.1189
16145W        W20445  19.363   4.731  20.385  0.0504 -0.0951 -0.0597
16146W        W20446   8.726   5.928  16.776  0.0113 -0.0537 -0.1561
16147W        W20447   9.585   1.718   4.714  0.0078  0.3399  0.0545
16148W        W20448   0.465   7.700  18.754  0.0800  0.2186 -0.1413
16149W        W20449   3.181   1.289   6.888  0.0265 -0.1669  0.0754
16150W        W20450  17.812   5.975  25.852 -0.2072  0.0529 -0.1406
16151W        W20451  25.277   1.877   9.407  0.1823 -0.0834 -0.1863
16152W        W20452  24.711   4.407   5.985 -0.3510 -0.0604  0.0468
16153W        W20453  27.276   3.307   5.596  0.2438 -0.0577 -0.1438
16154W        W20454  21.632   2.688  26.019 -0.1906 -0.1122 -0.0589
16155W        W20455  13.561   5.434  20.280 -0.2226 -0.2655  0.0909
16156W        W20456   2.575   4.510   0.666 -0.1292 -0.0901 -0.0143
16157W        W20457  30.418   1.524  11.475 -0.0355 -0.1022 -0.0982
16158W        W20458  24.330   5.738   2.410 -0.3066  0.0870  0.0780
16159W        W20459  16.403   5.938   1.052  0.0343  0.0036 -0.2050
16160W        W20460   8.653   3.893   7.515  0.3726  0.1142  0.0604
16161W        W20461  26.361   6.926  15.605  0.0301 -0.1024  0.0903
16162W        W20462   9.120   7.023   9.441 -0.1593 -0.0529 -0.0345
16163W        W20463   4.565   1.594   6.694  0.0031 -0.0122 -0.0899
16164W        W20464  18.692   2.583  10.303  0.1319 -0.1520 -0.0568
16165W        W20465   9.021   1.603   5.474  0.2664 -0.3293 -0.1702
16166W        W20466  15.040   5.212  15.917  0.1844 -0.1572  0.1111
16167W        W20467  23.184   5.526   6.657  0.0589  0.1485  0.1655
16168W        W20468  11.248   4.556  10.702  0.2264  0.2315  0.0233
16169W        W20469  20.883   0.175  20.091 -0.1495 -0.0185 -0.0276
16170W        W20470  13.166   1.514  16.193  0.0445 -0.3322  0.0558
16171W        W20471  11.209   4.612  15.519 -0.0194  0.1142  0.0966
16172W        W20472  18.863   7.393  15.828 -0.0184  0.1915 -0.2342
16173W        W20473  10.682   5.296   3.382  0.0871 -0.3448  0.0717
16174W        W20474   7.270   1.111  17.664  0.1095 -0.2073 -0.2284
16175W        W20475  26.392   7.409  17.568 -0.1798  0.2309 -0.0472
16176W        W20476   8.472   3.045  10.372  0.2447 -0.0831  0.0739
16177W        W20477  22.225   2.384  26.045 -0.0813 -0.1836  0.1235
16178W        W20478  14.926   5.543  24.935  0.0796 -0.2545 -0.1736
16179W        W20479  14.343   5.379   7.027 -0.0348  0.1660  0.0068
16180W        W20480   2.538   1.639  22.584  0.0387  0.0985 -0.1916
16181W        W20481   7.303   0.855  10.091 -0.1260  0.2131 -0.0751
16182W        W20482  19.182   4.805   9.000 -0.2013 -0.0666  0.0018
16183W        W20483  26.837   6.804   7.718 -0.0131 -0.0064  0.0759
16184W        W20484  18.459   0.183   7.113  0.2815 -0.2522 -0.0325
16185W        W20485  26.481   0.817   1.991  0.2395 -0.0645  0.0074
16186W        W20486  29.708   2.942  22.513 -0.0532  0.0975 -0.1569
16187W        W20487  18.267   4.946   0.002  0.4551  0.1061 -0.0689
16188W        W20488  15.972   5.068   6.447  0.1539 -0.1244  0.2779
16189W        W20489   4.665   6.000  19.214 -0.1332  0.0793  0.2302
16190W        W20490  30.698   1.504   0.122  0.0896 -0.1903 -0.1944
16191W        W20491  20.031   0.836   2.819  0.3267  0.2265  0.1497
16192W        W20492  10.009   0.112  14.628  0.2354 -0.1166 -0.0251
16193W        W20493  16.461   3.592   1.685 -0.0725  0.1699 -0.3912
16194W        W20494   7.569   4.292  20.875  0.2330 -0.1151  0.1090
16195W        W20495  26.450   7.626  10.438 -0.1772 -0.1614 -0.0614
16196W        W20496  22.390   4.236   4.261  0.0888 -0.0560 -0.0861
16197W        W20497  12.438   4.320  19.956 -0.2017  0.3118  0.2248
16198W        W20498  13.120   2.307  23.894  0.2249 -0.0282 -0.0128
16199W        W20499  29.125   2.508  16.936 -0.1886 -0.1132  0.2730
16200W        W20500   8.529   5.357  10.247 -0.1613  0.0065  0.0050
16201W        W20501  26.721   4.675  18.198  0.1311  0.1384 -0.3665
16202W        W20502  15.207   3.746   4.258  0.0543  0.1352  0.1756
16203W        W20503  24.370   2.109  11.871  0.1051  0.1318  0.1054
16204W        W20504   0.547   5.095   7.973 -0.3187  0.1353 -0.2386
16205W        W20505   7.943   0.383  16.538 -0.0153  0.2636 -0.0275
16206W        W20506  17.514   0.791   8.872 -0.0779  0.1522  0.1902
16207W        W20507   2.375   6.018  22.853  0.1780 -0.0388 -0.1454
16208W        W20508  29.923   2.663  19.723 -0.1316  0.0141 -0.3519
16209W        W20509  14.108   1.358  18.434  0.0338 -0.0364 -0.1772
16210W        W20510  28.404   0.088  20.213  0.1974  0.2808  0.1198
16211W        W20511  25.591   0.343  18.436 -0.0051 -0.2202  0.3114
16212W        W20512  29.383   0.887   1.085 -0.1703 -0.1559 -0.0242
16213W        W20513  29.070   5.900   7.071 -0.0444  0.4102 -0.1770
16214W        W20514   3.565   1.547   7.072  0.1496  0.0794 -0.1164
16215W        W20515  26.466   2.174   3.822  0.2339  0.2355  0.1125
16216W        W20516  23.198   4.416  19.260  0.1996  0.1527 -0.1987
16217W        W20517  30.061   0.914  21.487 -0.0725 -0.3439 -0.0795
16218W        W20518   9.485   6.485  10.102 -0.0380 -0.1590 -0.1088
16219W        W20519  10.845   6.457  18.885 -0.1877  0.1409  0.2881
16220W        W20520   2.063   5.894  25.954  0.0526 -0.2509  0.2602
16221W        W20521   9.592   4.498   5.562 -0.1577  0.3320 -0.1771
16222W        W20522  27.977   0.420  23.635 -0.2147 -0.0361  0.3254
16223W        W20523  17.999   7.311   2.966 -0.0762  0.0715  0.0774
16224W        W20524  23.797   3.770  16.522 -0.1289 -0.0747 -0.1687
16225W        W20525   5.476   7.585   1.573 -0.0958 -0.1011 -0.1430
16226W        W20526  17.549   7.004   8.979 -0.3150 -0.1470 -0.1050
16227W        W20527   7.693   3.563   8.075 -0.0941  0.3942 -0.3512
16228W        W20528  22.771   0.721   3.969  0.0862  0.0955  0.2649
16229W        W20529   6.817   7.542  19.410  0.0586 -0.1142  0.0511
16230W        W20530  11.226   7.682  17.376  0.0297 -0.0588  0.0269
16231W        W20531   6.273   4.218   4.299 -0.1155  0.0768  0.1415
16232W        W20532   2.973   0.628   2.005  0.1341 -0.0020 -0.0536
16233W        W20533   2.541   5.413  16.755 -0.1906 -0.0596 -0.3237
16234W        W20534  12.483   4.361   0.534  0.0185  0.1380  0.3382
16235W        W20535  30.375   4.242  22.865  0.0352 -0.2122  0.1815
16236W        W20536  25.709   5.090  17.414 -0.1437  0.2283 -0.3962
16237W        W20537  23.044   6.468  24.027 -0.3737  0.2092  0.1006
16238W        W20538  19.913   0.433   7.774 -0.2056  0.0103 -0.3190
16239W        W20539   4.527   3.867  10.543 -0.1169  0.0569 -0.0550
16240W        W20540  29.189   3.505  18.057 -0.4202 -0.2408 -0.1270
16241W        W20541  25.287   5.687   5.706  0.1503 -0.2355  0.2283
16242W        W20542  12.750   6.493  21.170 -0.2973 -0.2300  0.1772
16243W        W20543  25.149   4.520  24.112 -0.2101 -0.0898  0.1510
16244W        W20544  10.808   2.539   8.100  0.1831  0.1572  0.3213
16245W        W20545  15.127   6.671  20.885  0.0069  0.0884 -0.1183
16246W        W20546  23.183   0.251   0.632  0.0999 -0.3255  0.0052
16247W        W20547  22.525   3.918  22.650  0.0320  0.1129  0.1314
16248W        W20548   8.197   6.129   9.999 -0.2264  0.0379  0.0617
16249W        W20549  14.271   3.074   1.861 -0.1266  0.0134  0.1110
16250W        W20550  24.388   1.550   6.568  0.0232  0.1648 -0.0062
16251W        W20551   4.491   1.619   5.602  0.1041  0.1687 -0.0926
16252W        W20552   4.755   4.803  24.041 -0.0687  0.0146 -0.0554
16253W        W20553   0.476   3.810   5.303 -0.0677 -0.1052 -0.0999
16254W        W20554  11.324   7.462  19.767  0.0293  0.0410  0.0624
16255W        W20555   2.408   7.343  10.642  0.1139 -0.0942  0.0084
16256W        W20556   9.718   0.357  10.774  0.0884  0.0796  0.0718
16257W        W20557  19.485   5.039  19.948 -0.2450  0.0481  0.1383
16258W        W20558  16.428   5.811  21.073  0.0093 -0.2908 -0.2280
16259W        W20559   7.997   4.959   0.463 -0.0571  0.1864 -0.2642
16260W        W20560  25.991   1.803   5.743  0.3749 -0.1060 -0.1491
16261W        W20561  29.102   7.272   7.390  0.1339  0.1848 -0.1224
16262W        W20562  10.605   1.144   0.030  0.0801 -0.0561  0.1064
16263W        W20563  28.343   2.284  16.237 -0.0940 -0.3241  0.0987
16264W        W20564   1.386   1.692   1.888  0.0146  0.3407 -0.0529
16265W        W20565  25.332   4.589  19.887  0.1784  0.0393  0.1045
16266W        W20566   2.363   5.534  20.623  0.0993  0.3185 -0.0094
16267W        W20567  11.163   4.594  20.062  0.0750 -0.1149 -0.2055
16268W        W20568   1.027   6.663   2.839  0.1126 -0.3656 -0.0720
16269W        W20569  25.438   4.134  18.264  0.0325 -0.0207 -0.2235
16270W        W20570  18.270   2.352  18.947 -0.3868  0.0670 -0.0099
16271W        W20571  15.430   2.310  19.882  0.1941 -0.2298  0.2426
16272W        W20572   2.995   5.628  19.313  0.0542 -0.1529  0.0578
16273W        W20573  22.913   6.436  23.350 -0.1555 -0.1520 -0.1337
16274W        W20574  19.101   3.515   8.403 -0.1281 -0.0112  0.3238
16275W        W20575  26.181   4.479  19.788 -0.0926  0.3167 -0.2145
16276W        W20576   0.958   7.732  10.799  0.0472 -0.0299  0.0061
16277W        W20577  15.203   5.377   5.922  0.2280 -0.1450  0.1426
16278W        W20578  19.493   6.229  15.397 -0.0393  0.1697  0.0913
16279W        W20579  24.095   3.877  23.283  0.2531 -0.0545 -0.0148
16280W        W20580   5.220   4.942   2.180  0.1997  0.2155 -0.0727
16281W        W20581  26.103   3.091   1.592  0.0119  0.0153 -0.1648
16282W        W20582  30.840   7.419  22.609 -0.0720  0.0981  0.0496
16283W        W20583   5.525   3.783   4.351  0.2341 -0.1032 -0.1929
16284W        W20584   7.006   2.058  24.301  0.1537 -0.0138  0.1370
16285W        W20585  27.134   0.773   2.859 -0.0129  0.1558 -0.0056
16286W        W20586  10.590   6.766   9.673  0.0611 -0.0162  0.0564
16287W        W20587  17.028   3.916  15.703  0.1006 -0.2988 -0.0028
16288W        W20588  29.464   1.062  19.237 -0.0155 -0.4147 -0.0411
16289W        W20589  13.152   3.391  23.486 -0.1804  0.1334  0.0385
16290W        W20590  12.658   6.173   0.606 -0.0796 -0.0655  0.2143
16291W        W20591  26.909   2.144  23.986 -0.1657 -0.1828 -0.0955
16292W        W20592   5.471   0.698  19.214 -0.2831  0.1502 -0.0157
16293W        W20593  15.726   4.320  15.511  0.3446  0.0481  0.0909
16294W        W20594   2.272   2.457  20.415 -0.0833 -0.1962  0.0970
16295W        W20595  18.642   3.288   8.527  0.0280 -0.0472  0.0007
16296W        W20596   1.591   5.182  25.468 -0.1707 -0.1613 -0.1691
16297W        W20597   3.353   1.249   5.402 -0.0154 -0.0396  0.0589
16298W        W20598  22.300   4.500   7.073  0.1548  0.0092 -0.2075
16299W        W20599  16.776   4.788  18.401 -0.0078  0.2043 -0.0099
16300W        W20600   0.990   2.718  16.185  0.1265 -0.1357 -0.2510
16301W        W20601  12.593   1.061   5.786 -0.2470 -0.3261  0.1484
16302W        W20602   6.524   1.768   6.929 -0.2507  0.0493  0.0825
16303W        W20603   0.915   5.492   0.104 -0.1204 -0.0746  0.3257
16304W        W20604  10.019   0.031  20.027 -0.1636  0.1774  0.1634
16305W        W20605   9.932   6.897   8.300  0.3618 -0.1812 -0.1437
16306W        W20606  25.938   5.867  11.018  0.1529  0.0744  0.2507
16307W        W20607   6.918   7.230   3.924  0.1500  0.3790 -0.0309
16308W        W20608  20.931   0.719   0.923 -0.2228  0.2252 -0.3314
16309W        W20609   9.252   1.267  22.482  0.2704 -0.2335 -0.0262
16310W        W20610   8.478   7.361  17.972 -0.1192 -0.3687  0.0253
16311W        W20611  30.679   1.805  10.531  0.2948 -0.1761 -0.2391
16312W        W20612  12.942   0.993   8.694 -0.1734  0.1289 -0.3202
16313W        W20613  30.570   3.793   6.876  0.2258  0.2022  0.0870
16314W        W20614  15.294   6.123   7.979 -0.0258  0.1476 -0.2059
16315W        W20615  10.130   4.991   3.765 -0.2476  0.1265  0.0623
16316W        W20616  12.054   0.925   8.533 -0.0350 -0.1330  0.0170
16317W        W20617  22.327   1.323  17.905  0.0003  0.0095 -0.0249
16318W        W20618  25.904   6.505   7.323 -0.0167  0.0450  0.1233
16319W        W20619   2.835   2.577  15.532  0.4559  0.0432  0.1933
16320W        W20620  21.550   4.102  24.395 -0.4887 -0.2268  0.1578
16321W        W20621  14.356   6.742  24.209 -0.0980 -0.2110  0.0410
16322W        W20622  27.120   4.981  21.019 -0.0044  0.0358  0.0409
16323W        W20623  27.025   2.140   2.189 -0.0583  0.3635  0.0968
16324W        W20624  21.714   6.130  21.983 -0.0876 -0.0830  0.2067
16325W        W20625   8.745   6.377  25.420  0.0038  0.0502  0.2224
16326W        W20626  27.147   0.396   5.601 -0.0961  0.0732 -0.3141
16327W        W20627  25.412   5.708  18.744  0.0153 -0.2751  0.0159
16328W        W20628  19.952   5.675   1.810 -0.3196 -0.1669 -0.0929
16329W        W20629   2.033   7.508  18.883 -0.0213  0.0017  0.1923
16330W        W20630  22.849   0.217   6.421  0.1522  0.1922 -0.2503
16331W        W20631  25.184   1.880   8.918 -0.1803  0.0957  0.1153
16332W        W20632   0.607   7.632  17.850  0.3194 -0.2138 -0.2909
16333W        W20633  22.595   5.733   9.358 -0.2759  0.0765  0.0944
16334W        W20634  22.742   7.173   5.898  0.2433  0.3245  0.1578
16335W        W20635   4.260   5.033   8.958 -0.0533 -0.1203  0.1355
16336W        W20636   2.077   2.292  16.569  0.2509  0.0685 -0.0971
16337W        W20637  17.180   5.456   2.458 -0.1414  0.1869 -0.0138
16338W        W20638  29.781   7.177  21.049  0.0243 -0.0664  0.3138
16339W        W20639   4.186   5.214  23.403  0.1338 -0.1358 -0.3172
16340W        W20640  24.844   2.417  17.445  0.0961  0.0067  0.0379
16341W        W20641   5.873   6.778  25.087  0.2894  0.0039  0.1913
16342W        W20642  12.630   0.922  17.245 -0.2309  0.1682 -0.3130
16343W        W20643   0.449   1.943  15.279  0.2145  0.0631 -0.1118
16344W        W20644  25.913   5.100   9.347 -0.0420 -0.1736  0.2080
16345W        W20645  23.104   7.253  15.988 -0.3360  0.0974 -0.1111
16346W        W20646   1.835   6.205  17.918  0.0221  0.3525  0.1612
16347W        W20647  16.992   1.444  16.224 -0.1092  0.2369  0.0778
16348W        W20648   7.943   2.675  23.810  0.1327  0.0285  0.1238
16349W        W20649  19.391   6.186   7.015 -0.0361  0.1089  0.1330
16350W        W20650   8.720   0.957  16.690 -0.0921 -0.1108  0.1902
16351W        W20651  18.118   7.764  24.241  0.0927  0.0309 -0.1921
16352W        W20652   4.487   3.892  24.890  0.1653 -0.0525 -0.3681
16353W        W20653  20.703   6.373   2.051 -0.1488 -0.1568  0.0103
16354W        W20654  16.002   4.679  23.540 -0.0094  0.3845  0.1665
16355W        W20655  29.647   3.761  22.155 -0.4108  0.2561 -0.3173
16356W        W20656  24.423   1.081   7.590  0.0005  0.0647  0.1295
16357W        W20657  25.304   4.580   4.754 -0.0452 -0.1317 -0.1229
16358W        W20658   2.184   4.379  24.718 -0.1736 -0.2339 -0.0072
16359W        W20659  14.372   1.387   0.529 -0.1664  0.2272 -0.2975
16360W        W20660  24.979   4.039  19.133 -0.0990 -0.2247 -0.0655
16361W        W20661  13.817   1.774   0.531 -0.2184 -0.2216 -0.1413
16362W        W20662  15.527   1.624   9.564 -0.2385  0.1550 -0.1290
16363W        W20663  10.471   7.375  24.745 -0.3616  0.0163 -0.0333
16364W        W20664  15.700   6.751   8.403 -0.1358 -0.4104 -0.1521
16365W        W20665   8.725   6.215  15.384  0.0511  0.2044 -0.1841
16366W        W20666  27.391   3.547  19.145 -0.2270 -0.2845  0.0373
16367W        W20667  21.361   0.934   3.505  0.0228  0.1580 -0.1081
16368W        W20668  23.120   3.033  15.703  0.0119  0.0558  0.2513
16369W        W20669  24.103   6.795  25.723  0.0214 -0.0488 -0.0245
16370W        W20670  15.072   5.647  18.880 -0.0663  0.2676  0.2995
16371W        W20671  24.048   2.681  10.751 -0.0868  0.1035 -0.1880
16372W        W20672  10.163   1.932  22.114 -0.1280  0.0090  0.0005
16373W        W20673  14.895   3.145  21.036  0.0977 -0.0504  0.3981
16374W        W20674   6.529   2.278  21.707 -0.0494 -0.0976 -0.0475
16375W        W20675  21.603   0.945   4.391 -0.3169  0.4466  0.0404
16376W        W20676  31.020   5.495  21.178  0.0759  0.0948 -0.1518
16377W        W20677  20.224   5.671  19.594  0.1242  0.0011  0.1454
16378W        W20678   5.859   6.144  25.443  0.4093  0.2745  0.0588
16379W        W20679  24.702   2.519  16.436 -0.2734 -0.0153 -0.3436
16380W        W20680  29.215   1.529  19.405  0.0452 -0.1983 -0.2671
16381W        W20681   1.735   6.168   1.979 -0.0983 -0.0876 -0.0195
16382W        W20682  17.702   1.497   5.519 -0.0556 -0.2181 -0.1675
16383W        W20683  21.717   7.719  22.370  0.1701 -0.0297 -0.2227
16384W        W20684   5.136   4.020  16.715  0.1925  0.0608 -0.0048
16385W        W20685  26.408   3.638  17.359 -0.0996 -0.3376 -0.0170
16386W        W20686  23.962   2.761  25.177 -0.1680 -0.1058  0.1991
16387W        W20687  10.319   3.543  18.758 -0.2036 -0.2685  0.2137
16388W        W20688  11.600   7.214  17.273  0.2468 -0.0792 -0.0157
16389W        W20689  28.955   1.027   7.220 -0.1155 -0.2801  0.0154
16390W        W20690   9.326   7.326   6.127  0.1909 -0.2914 -0.2397
16391W        W20691   0.524   4.937  21.746  0.1454 -0.1678  0.2392
16392W        W20692   3.620   0.561   4.672  0.1786 -0.1259  0.1210
16393W        W20693  21.383   4.533   6.297 -0.0878 -0.1836 -0.2614
16394W        W20694   5.325   5.260   0.408 -0.0587  0.4853 -0.1321
16395W        W20695  27.735   4.479  22.569  0.1178  0.2029  0.3752
16396W        W20696  13.699   2.396   6.794 -0.1609  0.1194 -0.2323
16397W        W20697   9.624   3.982   3.531  0.3113  0.2748 -0.1943
16398W        W20698  29.205   2.479   3.706 -0.0298  0.0562 -0.2112
16399W        W20699   5.336   6.506  20.420 -0.1000 -0.3235 -0.0511
16400W        W20700  23.948   3.613   6.752 -0.1352  0.1689  0.2289
16401W        W20701  16.295   4.141  15.006 -0.0572  0.1875 -0.0228
16402W        W20702  25.918   6.907  19.563 -0.2322  0.0361 -0.0504
16403W        W20703  14.329   4.532  20.520 -0.1549 -0.3259 -0.3063
16404W        W20704   2.628   4.560   4.280  0.0114 -0.1162  0.1444
16405W        W20705  20.008   0.870   7.383 -0.0126  0.1522 -0.1114
16406W        W20706  14.507   3.029   9.113  0.1255  0.0054  0.0657
16407W        W20707  30.889   6.439  17.331  0.2205  0.0060  0.0255
16408W        W20708  15.734   1.880  19.894 -0.0253  0.1064 -0.1327
16409W        W20709  16.612   2.526  21.623  0.1649  0.0141 -0.1793
16410W        W20710   7.580   6.697   4.455 -0.1187 -0.0911  0.1389
16411W        W20711  18.707   2.289  17.269 -0.1437  0.1878 -0.0580
16412W        W20712  13.471   6.712  20.628 -0.1035 -0.1570  0.1303
16413W        W20713  28.312   4.551   2.718 -0.2572 -0.2334  0.1715
16414W        W20714  20.858   1.612   4.335 -0.1193  0.1776 -0.1255
16415W        W20715  26.444   4.404  24.834  0.2796  0.2544 -0.1375
16416W        W20716  15.202   3.841  16.440 -0.0317 -0.1945  0.0920
16417W        W20717   3.424   1.390  24.867  0.0514 -0.0107 -0.2628
16418W        W20718  12.081   6.112  18.785 -0.1962 -0.0942  0.0243
16419W        W20719  29.221   5.808   8.806  0.0725 -0.1387  0.2010
16420W        W20720  20.925   2.189  16.037  0.3945  0.0729  0.0803
16421W        W20721   5.740   1.656   3.023 -0.1295 -0.1191  0.3079
16422W        W20722  27.933   5.895  24.615  0.1064  0.1117  0.1417
16423W        W20723   4.763   5.813  10.073 -0.1268  0.0264 -0.2140
16424W        W20724  12.334   0.344   8.970  0.0592  0.2297 -0.2407
16425W        W20725   0.661   1.585  11.187 -0.2872  0.2032 -0.0783
16426W        W20726  10.293   2.319  22.385 -0.0790 -0.0718 -0.2615
16427W        W20727   8.308   2.964  18.082  0.2836  0.0925  0.1363
16428W        W20728  17.462   7.632   0.030  0.0466 -0.1342 -0.1367
16429W        W20729  28.222   2.757  16.096 -0.1898  0.2196 -0.0085
16430W        W20730  12.549   1.777  16.099 -0.0383 -0.0304  0.1292
16431W        W20731  27.479   1.163   0.846 -0.2460 -0.1189  0.0068
16432W        W20732  14.373   3.931   3.743  0.1979 -0.1589 -0.0570
16433W        W20733  23.236   0.538   9.799  0.1503  0.0246  0.2724
16434W        W20734  13.432   5.723   1.895 -0.2629 -0.2209 -0.0227
16435W        W20735  29.341   4.075  14.971  0.2742 -0.0373  0.2237
16436W        W20736   0.239   1.435  24.976  0.4617  0.0944  0.3340
16437W        W20737   0.980   3.738  24.693  0.0122 -0.1699 -0.3545
16438W        W20738  10.054   0.396  15.555  0.1541  0.0235  0.0281
16439W        W20739  25.530   0.661  18.012 -0.1695  0.3033 -0.0768
16440W        W20740   4.025   3.289   2.092  0.0688 -0.0196  0.0878
16441W        W20741   7.092   1.616  16.864 -0.1603  0.0124 -0.0492
16442W        W20742   3.019   3.294  23.155 -0.1528  0.1810  0.2105
16443W        W20743  23.447   5.898   8.498  0.1603 -0.2780  0.2319
16444W        W20744   7.523   2.028  24.459  0.1071  0.2960  0.3336
16445W        W20745  20.948   2.580  25.776 -0.0268  0.1993  0.1042
16446W        W20746  24.923   3.796  18.141 -0.1918 -0.0113 -0.0877
16447W        W20747  10.003   0.230   3.991 -0.0422 -0.3854 -0.0890
16448W        W20748   6.505   6.246   2.060  0.0493 -0.0595  0.0985
16449W        W20749   3.101   2.421   2.699  0.2499 -0.1068  0.0707
16450W        W20750  26.482   1.640  20.413 -0.1258 -0.0720  0.1520
16451W        W20751  11.058   3.258   6.071 -0.2819 -0.2377  0.1817
16452W        W20752  24.955   5.707  21.207 -0.0180  0.2688 -0.2114
16453W        W20753   2.658   5.293   6.668  0.1829 -0.0863 -0.3137
16454W        W20754   8.851   4.591  18.703  0.0427 -0.2274 -0.0583
16455W        W20755  23.872   1.861  11.086  0.0304 -0.0136  0.0743
16456W        W20756  26.641   1.671  10.555 -0.4244  0.1846  0.1066
16457W        W20757  16.918   4.695  25.766  0.0017  0.1257 -0.1761
16458W        W20758  28.609   0.829  21.732 -0.0440  0.1488  0.2092
16459W        W20759   0.457   0.242   4.724  0.1825 -0.0528 -0.3404
16460W        W20760  23.912   7.279  20.766  0.0216  0.2897  0.0920
16461W        W20761  14.391   2.793   6.403 -0.3509 -0.1375 -0.2318
16462W        W20762  26.255   5.915   3.076  0.1699 -0.3016 -0.1547
16463W        W20763  29.783   1.020  14.999 -0.0316 -0.1950  0.0945
16464W        W20764  20.964   2.679  23.059 -0.0560 -0.2000 -0.0880
16465W        W20765  21.629   0.955   1.818 -0.1694 -0.2919  0.0307
16466W        W20766   0.630   7.073  22.504  0.0693 -0.1000  0.1999
16467W        W20767  18.806   3.224   6.493  0.2330  0.1376 -0.0506
16468W        W20768   9.196   6.311  21.235 -0.0603 -0.0935  0.0735
16469W        W20769  21.925   3.449   2.199 -0.2048 -0.0383 -0.3059
16470W        W20770  13.571   5.499  24.237 -0.1892 -0.0748  0.1236
16471W        W20771   8.192   1.697  21.215  0.0120  0.0415  0.0089
16472W        W20772  11.798   3.794  21.422  0.3055 -0.2143  0.2645
16473W        W20773  16.942   1.455   4.054  0.3533 -0.1858 -0.1619
16474W        W20774  30.903   6.995  23.545 -0.0988  0.1893  0.1759
16475W        W20775  13.333   3.706  25.944  0.1259  0.2103 -0.0007
16476W        W20776  29.870   2.579   8.201 -0.1308  0.5983  0.1067
16477W        W20777  30.994   6.416  10.254  0.3024 -0.0544 -0.2642
16478W        W20778  17.475   2.236  24.579 -0.0508  0.1133 -0.0216
16479W        W20779  27.570   3.462  24.365  0.2237 -0.2362  0.1980
16480W        W20780   1.826   5.198   2.824  0.1226  0.1030 -0.1077
16481W        W20781  27.786   7.132   3.233  0.1783 -0.0516 -0.1187
16482W        W20782  26.248   1.570   8.862  0.0138 -0.1524  0.3535
16483W        W20783  25.266   7.755  25.845 -0.0616  0.1593 -0.0789
16484W        W20784  25.060   0.638   2.728 -0.2661 -0.1727  0.2374
16485W        W20785  18.147   4.266  17.938  0.3129  0.0231  0.2196
16486W        W20786  31.044   6.537   0.953  0.1737 -0.0756  0.0795
16487W        W20787   9.867   1.356   0.884 -0.1585  0.0351  0.2774
16488W        W20788  25.534   2.687  11.405 -0.1554  0.0488 -0.0449
16489W        W20789   7.753   6.756   8.266 -0.4133  0.1383  0.1736
16490W        W20790  20.425   7.758  25.905 -0.1792 -0.1212  0.3998
16491W        W20791   8.401   7.483  21.716 -0.1122 -0.0204 -0.1682
16492W        W20792  30.936   2.903   5.934  0.1579 -0.0765  0.0822
16493W        W20793  11.574   0.115   9.497  0.2601  0.4335 -0.2305
16494W        W20794  26.726   7.648   9.209  0.1712 -0.3449 -0.0420
16495W        W20795  30.667   1.460   1.644  0.0466  0.0555  0.0089
16496W        W20796  19.587   1.140   7.084 -0.0966 -0.0033 -0.0653
16497W        W20797  20.871   1.710  22.354  0.1291  0.2623  0.0041
16498W        W20798  11.596   1.205  19.927 -0.1885 -0.0959  0.1006
16499W        W20799  24.494   4.166  19.061 -0.0222  0.1340 -0.1004
16500W        W20800  17.424   2.433  10.607  0.0208  0.3271  0.1129
16501W        W20801  20.693   7.372   5.095 -0.0182 -0.2121  0.1310
16502W        W20802   5.503   3.283   9.328  0.2528  0.2887 -0.0600
16503W        W20803  29.390   4.565  19.400 -0.0248  0.0964  0.0173
16504W        W20804  19.187   1.850   2.328  0.0089 -0.0079 -0.1816
16505W        W20805   0.917   0.814  25.120 -0.0126 -0.0656  0.1423
16506W        W20806   6.669   5.633  20.803  0.2054 -0.4053  0.0781
16507W        W20807   6.273   7.252   4.399 -0.0391 -0.2661  0.0548
16508W        W20808  28.605   0.555   5.877 -0.0426 -0.0336  0.3104
16509W        W20809  14.147   7.282  15.985 -0.0699 -0.0686  0.1837
16510W        W20810  26.410   4.696  21.486  0.0271  0.0754  0.5856
16511W        W20811   7.819   0.725  25.251 -0.1370  0.2760 -0.0650
16512W        W20812  17.765   4.049  16.571  0.2307 -0.0658 -0.0256
16513W        W20813   1.634   6.341  17.113 -0.1200 -0.3995  0.1192
16514W        W20814  15.620   6.338  10.645 -0.0445 -0.0495 -0.0959
16515W        W20815  14.074   2.642  22.615 -0.1226 -0.0485  0.0461
16516W        W20816   0.816   5.584  24.524 -0.0549  0.2602 -0.3659
16517W        W20817  24.971   3.623   1.615 -0.0550  0.1515 -0.0562
16518W        W20818   7.906   7.044   1.812 -0.0757  0.0392 -0.2944
16519W        W20819  17.487   6.001   0.520  0.0306 -0.3335  0.6899
16520W        W20820   3.790   2.314  17.120  0.1529 -0.1372 -0.2756
16521W        W20821  29.647   4.170   7.752  0.0827  0.1320 -0.0163
16522W        W20822  28.721   3.623  17.330 -0.3445  0.0827 -0.0039
16523W        W20823  10.906   2.739  19.414  0.2725 -0.1139 -0.1059
16524W        W20824   1.003   0.318   0.238 -0.0459 -0.2670  0.3294
16525W        W20825   3.232   2.852   6.098  0.0186  0.1277 -0.0071
16526W        W20826  28.241   7.443  16.175 -0.1349  0.1897 -0.1440
16527W        W20827   8.371   7.141   4.728  0.1167 -0.1919 -0.1626
16528W        W20828   6.356   5.791  21.191 -0.1859 -0.1052 -0.1689
16529W        W20829  15.477   6.151  26.078  0.1790  0.3942  0.0194
16530W        W20830  10.762   7.172   3.913 -0.0901  0.1486 -0.0763
16531W        W20831  17.277   1.525   4.624  0.0203 -0.1254  0.1889
16532W        W20832  18.157   1.869  23.200 -0.2527 -0.1298  0.0814
16533W        W20833  27.588   2.799   8.282  0.0419 -0.2265 -0.0312
16534W        W20834   2.946   4.107  25.304 -0.1785  0.1662  0.0121
16535W        W20835  14.498   5.765  17.734  0.0934 -0.0211 -0.1831
16536W        W20836  23.565   3.824  25.018 -0.4183 -0.0685 -0.0279
16537W        W20837  11.812   4.879   6.972  0.1776  0.0741 -0.0243
16538W        W20838  18.628   0.063  17.558 -0.2193  0.1573 -0.1361
16539W        W20839   7.908   6.388   2.653 -0.0021 -0.0812 -0.3398
16540W        W20840   8.715   1.991   5.365 -0.0754 -0.0685 -0.0054
16541W        W20841  19.358   3.693  23.757 -0.0875 -0.2649 -0.0761
16542W        W20842  30.732   4.872   0.317  0.1691 -0.2723 -0.2114
16543W        W20843  31.191   5.829   3.596 -0.0427 -0.1627 -0.1585
16544W        W20844  31.029   4.644  21.011 -0.0915 -0.2972 -0.1495
16545W        W20845  11.370   2.051  23.001  0.0523 -0.4691 -0.2433
16546W        W20846  11.868   3.426   4.631 -0.3185 -0.0047  0.1656
16547W        W20847  23.736   3.127  25.510  0.3595  0.2167 -0.0090
16548W        W20848   4.080   6.694  10.267  0.0147 -0.0724 -0.1429
16549W        W20849  24.563   4.086  15.474  0.1999 -0.1078 -0.0871
16550W        W20850   3.102   5.894  23.491 -0.0048 -0.0289 -0.2228
16551W        W20851  14.873   7.563  10.297 -0.0289 -0.0068 -0.1932
16552W        W20852   5.676   5.948   6.620  0.1038 -0.4387 -0.0089
16553W        W20853  10.156   4.671   4.587 -0.3190  0.0105 -0.1000
16554W        W20854  19.288   2.133  10.503 -0.2457  0.2622 -0.0881
16555W        W20855  25.719   5.020  19.065  0.2196 -0.2803 -0.1345
16556W        W20856   7.788   3.663  20.083  0.1358  0.0330  0.1463
16557W        W20857  25.521   1.595   5.795  0.2142  0.0416 -0.1548
16558W        W20858  21.321   6.637   2.489  0.1504 -0.0295 -0.0459
16559W        W20859   8.877   5.428   8.048 -0.3674 -0.2826 -0.0792
16560W        W20860  25.876   0.023  25.311 -0.3093  0.0980  0.1558
16561W        W20861   1.391   5.499  21.956  0.1683  0.0173 -0.0533
16562W        W20862   2.133   4.498   5.575 -0.1560  0.0661 -0.1339
16563W        W20863  25.405   0.642   9.745  0.1184 -0.2522  0.0843
16564W        W20864  29.707   4.960   6.661 -0.0141 -0.1577  0.2580
16565W        W20865  28.570   3.807   6.862 -0.0467  0.3019  0.3260
16566W        W20866   1.184   5.783   4.793  0.3744 -0.0293  0.2619
16567W        W20867  10.554   4.416   7.277 -0.0442 -0.0492 -0.2875
16568W        W20868  24.376   3.137  18.150  0.3661  0.2452  0.1383
16569W        W20869  21.034   7.354   9.679 -0.3796  0.0704 -0.0496
16570W        W20870  22.394   5.503   0.095 -0.1017  0.1632  0.1449
16571W        W20871  30.128   1.901   1.400 -0.2771  0.2817  0.2236
16572W        W20872   6.276   0.878  20.433  0.2619  0.2803 -0.2590
16573W        W20873  30.987   0.937   8.502 -0.1264  0.0121 -0.0357
16574W        W20874  22.966   3.384   6.142  0.2670  0.0219 -0.0323
16575W        W20875  10.246   1.999   5.747  0.1947  0.0883  0.0505
16576W        W20876   8.606   5.448   9.579 -0.0600 -0.0926  0.1034
16577W        W20877  18.742   1.767  22.845 -0.1381 -0.0762  0.1533
16578W        W20878  13.249   3.573  19.146  0.2693  0.0457  0.1034
16579W        W20879  10.305   6.066  15.923 -0.0278 -0.0114 -0.0311
16580W        W20880  22.977   2.288   7.779 -0.0683 -0.0380 -0.1113
16581W        W20881  16.049   0.726  22.922  0.0502  0.2177  0.0721
16582W        W20882   8.293   3.722   2.797  0.2190  0.0200 -0.0327
16583W        W20883   0.311   7.384   3.159 -0.1325 -0.0546  0.0390
16584W        W20884  27.584   6.043  23.380  0.0166 -0.1287  0.1539
16585W        W20885   6.691   4.605   6.461 -0.0343 -0.0016  0.0640
16586W        W20886  26.555   6.268  16.700  0.0301 -0.0108 -0.2259
16587W        W20887   5.561   0.385  25.305  0.3191  0.1005 -0.0849
16588W        W20888   8.296   0.065   4.683 -0.0795 -0.1672  0.1332
16589W        W20889  30.337   6.423  17.485  0.0741  0.2228  0.1767
16590W        W20890  19.891   6.486   5.184 -0.0521 -0.3140 -0.1611
16591W        W20891   8.654   1.078  15.918 -0.0410  0.0972 -0.0900
16592W        W20892  14.205   5.643  20.270 -0.2414 -0.2146  0.0758
16593W        W20893  23.709   2.513   1.279 -0.1917 -0.0613  0.1831
16594W        W20894   2.011   5.193  22.602  0.0600 -0.0903  0.2103
16595W        W20895  26.064   7.174  20.911  0.0967  0.0629 -0.1998
16596W        W20896  31.012   4.392  21.965 -0.0948  0.2284 -0.1464
16597W        W20897   1.983   0.409  23.533  0.3245 -0.1464  0.1677
16598W        W20898   6.936   0.899   7.209  0.1878  0.0679  0.0018
16599W        W20899   8.147   6.824  20.460  0.0474  0.0019  0.0343
16600W        W20900  29.855   6.789  19.370  0.0688  0.0215  0.1884
16601W        W20901  27.699   0.060  19.327 -0.0242  0.1494  0.2822
16602W        W20902  10.166   4.716  21.852 -0.1097 -0.0406  0.3208
16603W        W20903  22.503   5.618  20.712  0.2839 -0.2356  0.3082
16604W        W20904  28.523   1.460   4.081  0.0131  0.2261 -0.1340
16605W        W20905  16.057   0.535  25.870  0.0849  0.1187 -0.2292
16606W        W20906  25.114   1.495   3.100 -0.1897  0.0601 -0.2736
16607W        W20907   8.145   4.322  24.424  0.0245  0.1574 -0.0737
16608W        W20908  21.518   1.880  21.653 -0.2248  0.0614 -0.1092
16609W        W20909  23.003   7.253   2.772 -0.0495  0.1811 -0.0014
16610W        W20910  15.970   5.832   1.855  0.0675 -0.1467 -0.0938
16611W        W20911  27.039   1.055   9.592  0.0350  0.1102 -0.0367
16612W        W20912  12.824   4.246  25.224 -0.0004 -0.0622  0.1401
16613W        W20913  29.955   4.421   5.942  0.0235  0.3791  0.1011
16614W        W20914   9.191   0.316  20.903  0.1911 -0.2234  0.0822
16615W        W20915   4.478   5.538  20.606 -0.0560  0.2710 -0.0783
16616W        W20916  26.020   2.088   7.760  0.0223  0.2620  0.1050
16617W        W20917  16.450   5.420   6.553  0.2736 -0.0322 -0.0552
16618W        W20918  13.990   0.780   6.493 -0.4205 -0.4954  0.2429
16619W        W20919  30.795   5.537  17.055  0.3920  0.1828 -0.1636
16620W        W20920  10.478   5.845  17.308 -0.0160 -0.2129  0.1174
16621W        W20921   4.054   0.005   5.220 -0.1788 -0.1467 -0.1086
16622W        W20922  23.695   3.056  17.639  0.2194  0.1113 -0.3112
16623W        W20923  22.557   2.540  19.492  0.3650  0.0462  0.2203
16624W        W20924   0.469   2.393   4.331  0.1497 -0.0598 -0.0267
16625W        W20925   3.280   4.236   6.707 -0.0406  0.0787  0.2395
16626W        W20926  26.372   5.201   6.792  0.0763  0.3225  0.1821
16627W        W20927  12.857   4.293  18.749  0.1539 -0.1176  0.3116
16628W        W20928  27.460   7.738   1.585  0.3546  0.1389  0.2394
16629W        W20929  28.933   3.323   2.828 -0.1500  0.0509 -0.3453
16630W        W20930   3.565   7.321   4.144 -0.1373 -0.1344  0.0042
16631W        W20931   2.979   6.758   3.285 -0.0477  0.0567  0.0960
16632W        W20932  24.683   2.071  15.370 -0.1739 -0.1243 -0.0990
16633W        W20933  17.187   7.368   2.262 -0.4021 -0.0328 -0.0964
16634W        W20934  16.929   0.418   0.852 -0.1456  0.2510  0.1202
16635W        W20935  17.417   6.139  18.423 -0.0592  0.1024 -0.1007
16636W        W20936  25.218   5.197  22.388 -0.0297  0.1366  0.2099
16637W        W20937   9.137   5.442  18.200  0.2443 -0.1106 -0.1810
16638W        W20938  10.712   5.314   6.897 -0.4481  0.1179 -0.0099
16639W        W20939  18.440   6.793   9.771  0.0524 -0.1567  0.0653
16640W        W20940  17.734   4.818   8.111 -0.0048  0.0707 -0.0289
16641W        W20941   3.562   3.192  19.975 -0.0538  0.0179  0.0301
16642W        W20942   1.519   3.892  23.841  0.0267 -0.0496  0.3262
16643W        W20943  10.337   2.480   8.295 -0.1690 -0.0809  0.0237
16644W        W20944  11.975   5.348  23.967  0.0768 -0.1367 -0.0496
16645W        W20945  20.078   2.404  24.694  0.0987  0.2127 -0.0636
16646W        W20946  23.011   4.016   0.726 -0.0522 -0.2621  0.4103
16647W        W20947  11.448   4.699  26.004 -0.0672  0.0850 -0.1842
16648W        W20948   1.526   0.312  26.203 -0.0949 -0.0509  0.1066
16649W        W20949   1.869   3.703   0.269 -0.2052  0.1511  0.4592
16650W        W20950  18.974   3.467  23.144 -0.0898 -0.0952 -0.1694
16651W        W20951  13.456   6.613  23.904  0.1138  0.0398  0.3147
16652W        W20952   2.021   2.890   9.708  0.0781 -0.2065  0.0174
16653W        W20953   5.382   6.541  25.509 -0.0429  0.2276 -0.1298
16654W        W20954  20.294   7.066  22.441  0.1616  0.0799 -0.0390
16655W        W20955  10.047   3.671  26.237  0.1684  0.1540  0.1417
16656W        W20956   0.808   5.726  20.993 -0.0776 -0.1985 -0.1246
16657W        W20957  23.451   2.624  23.536  0.3210 -0.0494 -0.0775
16658W        W20958   4.608   1.207   5.870  0.1469  0.1433 -0.1581
16659W        W20959  21.014   4.515   5.070 -0.2028  0.0441  0.1994
16660W        W20960  15.097   4.794   2.846 -0.1042  0.2699 -0.2990
16661W        W20961   0.714   5.205   9.104  0.1707 -0.3464  0.0029
16662W        W20962  23.072   4.683  25.184  0.0842 -0.0351 -0.1207
16663W        W20963   4.781   6.644  19.874 -0.0688 -0.2715  0.1541
16664W        W20964   2.154   5.962   2.412  0.0946 -0.0731  0.2697
16665W        W20965  24.732   6.847   0.152  0.0755  0.1157  0.1116
16666W        W20966  18.492   4.421  15.955  0.0687  0.1317  0.0812
16667W        W20967   1.963   0.299  17.547 -0.3688  0.0296  0.0365
16668W        W20968   3.076   0.552   6.472  0.1216 -0.1398  0.0544
16669W        W20969  15.217   6.273   1.936  0.3816  0.2297  0.1717
16670W        W20970  14.380   0.783  17.635 -0.1293 -0.1528  0.0583
16671W        W20971  26.048   1.341   3.032 -0.0966  0.0163 -0.0085
16672W        W20972  31.097   5.522   3.196  0.2524  0.1985  0.0841
16673W        W20973  20.745   2.967   9.900 -0.0770  0.0269 -0.0336
16674W        W20974  18.767   2.811  20.962 -0.1475 -0.1363  0.3118
16675W        W20975  16.370   4.401  23.893  0.1534 -0.0323 -0.1450
16676W        W20976   2.661   1.285  10.623 -0.0860 -0.0321 -0.0527
16677W        W20977  18.999   3.790   1.255 -0.0750  0.0983 -0.5420
16678W        W20978   2.472   4.458  17.330  0.0740  0.1919  0.1250
16679W        W20979  21.192   7.069   2.853 -0.1719 -0.2277  0.0661
16680W        W20980   4.853   4.660  21.169  0.0642  0.3343 -0.0163
16681W        W20981  19.223   7.375  10.918 -0.2787  0.1212  0.0575
16682W        W20982  17.221   6.965  20.207 -0.1476  0.2635  0.2361
16683W        W20983   7.263   5.798  19.573 -0.1097  0.0808 -0.0536
16684W        W20984   5.120   7.172   0.163  0.1369 -0.1377 -0.2223
16685W        W20985  21.733   1.825   8.658  0.3881  0.1093 -0.2440
16686W        W20986   4.786   2.993  10.676 -0.2627  0.2229 -0.1036
16687W        W20987  15.216   7.758  20.432  0.2010 -0.1846  0.2150
16688W        W20988  29.893   0.051   6.869  0.1239 -0.2427  0.1209
16689W        W20989  27.323   5.220   6.891 -0.4083 -0.0108  0.0790
16690W        W20990  10.716   5.654  19.219  0.0606 -0.0090  0.2036
16691W        W20991   8.422   6.296   1.018 -0.3625  0.0597 -0.1353
16692W        W20992  21.043   1.671  19.618 -0.1565 -0.0676  0.0849
16693W        W20993   1.170   5.816   2.501 -0.0476  0.0461 -0.1319
16694W        W20994   2.175   7.520   3.762 -0.1932 -0.0461 -0.0424
16695W        W20995   7.861   7.495   2.485 -0.0311 -0.2757 -0.0171
16696W        W20996   2.232   0.256   2.663 -0.1773 -0.0814 -0.0192
16697W        W20997   6.442   5.357   5.696  0.1528 -0.3252  0.1115
16698W        W20998  16.986   5.890   9.824  0.0771 -0.0849  0.4071
16699W        W20999   3.568   6.381   3.765 -0.2651 -0.0826  0.2317
16700W        W21000  19.811   3.433  25.759 -0.3346 -0.0427 -0.0754
16701W        W21001  30.445   2.878   8.876  0.1125  0.0089 -0.2002
16702W        W21002  30.310   6.007   7.762  0.2983 -0.0161 -0.2485
16703W        W21003  23.002   5.762   3.037  0.0443 -0.1436 -0.1164
16704W        W21004  21.877   0.146  10.019 -0.0477 -0.1913  0.0801
16705W        W21005  10.550   7.527  23.388 -0.1445  0.1739 -0.0130
16706W        W21006   2.183   3.511   1.497 -0.1870 -0.1838  0.1606
16707W        W21007   9.967   5.036  15.240  0.3068 -0.2441  0.0396
16708W        W21008   8.874   7.034   8.829 -0.0563 -0.2324 -0.1312
16709W        W21009  31.126   1.779   1.546 -0.0456 -0.1170  0.1078
16710W        W21010  13.456   6.642   8.325  0.0250  0.1764  0.1181
16711W        W21011   5.397   6.686   3.695 -0.1592 -0.1441  0.1165
16712W        W21012   6.710   6.562   8.428  0.2360  0.0917 -0.2340
16713W        W21013  29.383   3.926  25.207  0.0761 -0.0446 -0.2287
16714W        W21014  16.118   6.959  21.515  0.2172 -0.0331  0.1674
16715W        W21015  16.437   3.885   6.236 -0.3666 -0.1023 -0.1272
16716W        W21016   3.401   3.303   3.190  0.0980  0.1937  0.1173
16717W        W21017   9.599   1.286   7.900  0.4656 -0.2069 -0.2234
16718W        W21018  30.397   5.616  26.423  0.1585 -0.1190 -0.2296
16719W        W21019  17.258   4.358  17.448  0.1761  0.1573  0.1262
16720W        W21020  26.948   5.074  25.389 -0.0951  0.0773 -0.0997
16721W        W21021  17.590   3.306  25.437  0.0215 -0.1132  0.2124
16722W        W21022   7.586   2.113  10.228 -0.0070 -0.2926  0.0661
16723W        W21023  12.207   6.457   5.212  0.0461 -0.0797  0.0428
16724W        W21024   8.908   7.288  24.409  0.1495  0.0577 -0.3756
16725W        W21025  14.621   5.516  15.820  0.2478 -0.0093  0.2011
16726W        W21026  23.540   4.109  21.831 -0.2285  0.0656 -0.1888
16727W        W21027   6.874   5.150  11.371 -0.1577 -0.1469 -0.0138
16728W        W21028  29.907   2.494  21.666  0.2284 -0.1227 -0.1427
16729W        W21029  19.985   0.460   4.210  0.0084  0.3129  0.0762
16730W        W21030  14.805   2.293   7.712 -0.0717  0.1422  0.0745
16731W        W21031  26.076   6.844   4.217  0.0256  0.0971  0.0411
16732W        W21032  25.519   1.145   4.407 -0.2151  0.2236 -0.1883
16733W        W21033   1.351   6.164   5.077 -0.1774  0.3532 -0.0434
16734W        W21034  17.518   3.915  19.870 -0.1069 -0.0956 -0.3942
16735W        W21035  27.578   1.530  21.980 -0.1952  0.0349  0.0068
16736W        W21036   8.928   1.587  10.373  0.0160  0.1971  0.0610
16737W        W21037  29.386   6.784   5.618 -0.0676  0.0559  0.0893
16738W        W21038   3.958   4.234  25.114 -0.1794  0.2405  0.0881
16739W        W21039  11.604   0.560   7.494  0.0551  0.0702 -0.1755
16740W        W21040   3.092   7.800   7.821 -0.1030 -0.3280  0.0223
16741W        W21041  18.001   0.905  24.741  0.0654 -0.5255 -0.3024
16742W        W21042   7.801   2.057  21.140  0.0900  0.0123  0.0660
16743W        W21043   0.941   7.641  19.570  0.3130 -0.2021  0.1325
16744W        W21044  19.000   5.629   6.022 -0.2152  0.0790  0.3450
16745W        W21045  25.552   4.741   6.020  0.2077 -0.0009 -0.1280
16746W        W21046  28.147   2.686   7.111  0.0429 -0.1282 -0.0655
16747W        W21047  12.192   5.348   4.943  0.2942  0.0312 -0.2579
16748W        W21048  19.711   3.417   7.083  0.0206 -0.0302 -0.0163
16749W        W21049  27.270   6.499   7.681 -0.2405 -0.0194 -0.0503
16750W        W21050  13.527   4.432  22.672  0.2949 -0.2063  0.1461
16751W        W21051   7.220   0.756   6.043 -0.2122  0.0147 -0.0100
16752W        W21052  15.195   3.920  25.412 -0.0104  0.3131  0.0865
16753W        W21053  11.480   6.048   6.981 -0.0843 -0.2385 -0.0776
16754W        W21054  23.256   0.302   4.262 -0.2609  0.1611  0.0284
16755W        W21055  29.515   7.182  16.734 -0.0472 -0.1789 -0.1186
16756W        W21056   5.521   5.413   9.804 -0.1475 -0.0950  0.1275
16757W        W21057  11.175   2.567  18.474  0.0217  0.0179  0.1228
16758W        W21058  12.636   4.147   6.007  0.0692  0.1534  0.5148
16759W        W21059  12.418   4.686   5.129 -0.0093 -0.1134  0.3362
16760W        W21060  10.695   4.992  23.001  0.1441 -0.0390 -0.2205
16761W        W21061   1.725   0.241   8.808  0.4794 -0.1102 -0.1176
16762W        W21062  12.103   2.938  15.002  0.1110  0.0184 -0.2346
16763W        W21063   6.458   6.434  25.971  0.0386  0.0765  0.1306
16764W        W21064  15.356   0.598   3.194  0.0091  0.1204 -0.0543
16765W        W21065   8.227   2.666  22.381 -0.1904 -0.1713  0.0360
16766W        W21066   6.406   4.835  22.694  0.0003 -0.0458  0.3418
16767W        W21067  16.101   1.953  17.678 -0.4054 -0.2516  0.3040
16768W        W21068  12.838   6.692  25.134  0.1426 -0.0644  0.1438
16769W        W21069  24.133   0.291  21.055 -0.2607  0.1914  0.0076
16770W        W21070  21.358   1.253   9.953 -0.0171 -0.3022  0.1516
16771W        W21071   3.769   6.486   2.171  0.0937  0.1321  0.0040
16772W        W21072  24.534   2.266  11.402 -0.2081  0.0194 -0.2506
16773W        W21073  18.195   6.030   5.861  0.0650  0.0600 -0.0651
16774W        W21074  14.920   3.336   3.611  0.1870  0.0075  0.4211
16775W        W21075  17.411   6.024  17.880 -0.2614 -0.0036  0.0349
16776W        W21076  11.316   7.106  18.639 -0.1199 -0.1430 -0.2118
16777W        W21077  25.276   2.412   9.562 -0.0555  0.0746 -0.0453
16778W        W21078  15.645   0.876   7.501  0.3634  0.0668  0.2080
16779W        W21079  27.261   5.093  22.024 -0.2005  0.0232 -0.0291
16780W        W21080   7.331   7.505   4.699 -0.0696 -0.1755  0.0368
16781W        W21081  18.532   6.793   0.481 -0.0487 -0.4875 -0.1071
16782W        W21082   2.924   4.341   5.103 -0.0772 -0.0690 -0.0544
16783W        W21083  27.314   3.111   6.696 -0.5505  0.0539 -0.0539
16784W        W21084  23.980   7.406  18.258 -0.0892 -0.0633  0.2314
16785W        W21085  23.609   2.803  26.388 -0.0087 -0.0952 -0.0527
16786W        W21086  24.321   7.247   3.086  0.0748 -0.0461  0.1460
16787W        W21087   7.180   5.537  20.414  0.1077 -0.1346 -0.2418
16788W        W21088  13.694   5.659   9.977  0.1989  0.1604 -0.1081
16789W        W21089  11.913   4.329  17.614 -0.3159 -0.2477  0.0362
16790W        W21090   3.068   1.374  20.714 -0.0722 -0.1011 -0.0081
16791W        W21091  22.778   6.691  16.004 -0.1618  0.2266  0.0595
16792W        W21092  20.962   0.757   9.801  0.1199  0.0895  0.2372
16793W        W21093   9.881   5.299  23.714  0.2249  0.0736 -0.1631
16794W        W21094  27.684   6.873   5.613  0.3215 -0.0843  0.0861
16795W        W21095  18.870   6.586  17.876 -0.2144 -0.0420  0.0667
16796W        W21096   2.112   5.509   4.500  0.2427  0.0396 -0.0854
16797W        W21097  26.651   1.191  10.347 -0.1033  0.0953 -0.0368
16798W        W21098  24.350   4.639  19.909  0.0178 -0.0397  0.0549
16799W        W21099   0.837   6.501   8.121  0.1427 -0.2512 -0.1934
16800W        W21100   8.767   6.910   8.293 -0.0352 -0.1246 -0.2512
16801W        W21101  13.146   4.105   1.986 -0.0020 -0.0611  0.1268
16802W        W21102  31.160   1.188  16.949  0.0074  0.2110 -0.1200
16803W        W21103  30.913   1.353   4.929  0.2245  0.0735  0.1644
16804W        W21104  16.249   6.557  17.323 -0.2222  0.1392 -0.1827
16805W        W21105  12.350   1.248   6.342 -0.1229  0.0014 -0.1149
16806W        W21106  25.613   3.139   4.884  0.4368  0.2954 -0.1282
16807W        W21107  24.816   7.474   3.857 -0.0192  0.0509 -0.0656
16808W        W21108   6.808   1.763   1.851 -0.1063 -0.1191  0.1500
16809W        W21109  13.516   5.774  23.708  0.1738 -0.0150  0.1836
16810W        W21110  30.729   0.159   5.235 -0.0619 -0.1111 -0.0453
16811W        W21111   6.127   7.234   7.160 -0.3433 -0.1964 -0.1550
16812W        W21112   4.101   0.448  17.832 -0.2367  0.0451  0.0919
16813W        W21113  18.089   0.432   7.468  0.3061  0.0739 -0.1359
16814W        W21114   0.731   5.682   4.943  0.0168 -0.2015 -0.0523
16815W        W21115  10.787   6.923  18.544  0.1607  0.0470  0.0532
16816W        W21116   3.450   5.170  17.557  0.0828  0.0934 -0.0173
16817W        W21117  16.186   0.419  16.578  0.0706  0.0203 -0.0155
16818W        W21118   3.585   5.344   6.649 -0.1490  0.1836 -0.2808
16819W        W21119  22.953   5.450  20.530  0.0457  0.0943 -0.1848
16820W        W21120  20.999   1.820  21.693  0.0875 -0.0506 -0.0059
16821W        W21121  18.525   6.159  25.066 -0.3247  0.0210  0.2582
16822W        W21122  16.221   3.703  18.892 -0.0853 -0.1564 -0.2086
16823W        W21123  14.596   4.358  19.126  0.2272  0.0825 -0.0529
16824W        W21124  18.777   7.484  25.356  0.1145  0.1965  0.0227
16825W        W21125  23.337   1.283  17.670  0.3160 -0.2281  0.0953
16826W        W21126  28.746   5.574   7.868  0.1223 -0.0823 -0.2444
16827W        W21127  18.250   3.992  10.625  0.0732 -0.0890  0.0337
16828W        W21128  18.514   7.766   8.688  0.1445  0.2876  0.1440
16829W        W21129  22.821   4.855  20.884  0.0648 -0.0289 -0.0043
16830W        W21130  18.560   0.589  26.013 -0.1248 -0.1938 -0.0357
16831W        W21131   5.387   5.831  11.243  0.0736  0.2026 -0.2289
16832W        W21132  12.649   7.581   5.177 -0.1917  0.1162  0.1473
16833W        W21133  22.449   4.965  23.773  0.1153 -0.1470 -0.2946
16834W        W21134  20.917   7.000   3.516 -0.0133 -0.4296 -0.0472
16835W        W21135  26.910   0.916   4.804 -0.2034  0.0120 -0.0969
16836W        W21136  24.661   2.113   5.969  0.0754  0.1737  0.1574
16837W        W21137  24.916   1.785  10.167  0.1792  0.1261 -0.0944
16838W        W21138   6.948   5.250  20.117  0.0393  0.2105 -0.4290
16839W        W21139   9.004   0.294   2.012 -0.0058  0.0568 -0.1317
16840W        W21140  20.717   3.860  24.635  0.0300  0.1771 -0.1256
16841W        W21141  15.781   1.586  10.574 -0.3570 -0.3494 -0.0299
16842W        W21142  30.146   7.495   0.662  0.0236  0.3072 -0.0899
16843W        W21143  28.599   5.603  16.116 -0.2594 -0.1565  0.2386
16844W        W21144  25.024   1.008  21.121  0.2405  0.3487 -0.2946
16845W        W21145  12.831   7.051   9.987 -0.1533  0.3215 -0.0187
16846W        W21146  20.128   2.521  25.716  0.0932  0.1990 -0.2895
16847W        W21147  26.906   7.534   9.996 -0.0946 -0.1052  0.1311
16848W        W21148  14.389   3.149  15.192  0.0317 -0.2739 -0.0549
16849W        W21149  18.642   3.216  11.422 -0.2343  0.2012 -0.0239
16850W        W21150  14.903   0.166  15.309  0.0625 -0.2746  0.2103
16851W        W21151  15.074   4.295   3.201 -0.1514 -0.2024 -0.3228
16852W        W21152   3.314   7.206  24.108  0.1117 -0.3462 -0.1555
16853W        W21153   8.143   2.384   5.892 -0.2825  0.0259 -0.1828
16854W        W21154  22.265   7.111  25.056  0.0040 -0.1634  0.1668
16855W        W21155  21.005   6.594   4.587 -0.2356  0.0281  0.3630
16856W        W21156  20.627   3.011   8.238  0.4011 -0.3710 -0.0957
16857W        W21157  25.956   6.445  22.198  0.1585 -0.0455 -0.0830
16858W        W21158   2.662   5.337   3.257 -0.3210 -0.0192 -0.0189
16859W        W21159  26.152   2.632   9.033 -0.1389 -0.0514 -0.1146
16860W        W21160  14.088   2.643   5.134  0.3356 -0.2426 -0.0815
16861W        W21161  24.182   3.309   3.923 -0.0879  0.1823  0.0413
16862W        W21162  29.020   3.591  23.904 -0.1895 -0.0862  0.2145
16863W        W21163   8.738   1.629   6.231  0.0214  0.0545  0.0440
16864W        W21164  29.236   1.252   1.591  0.0128 -0.2882 -0.0784
16865W        W21165  17.494   1.395  10.156  0.0928 -0.2650 -0.0165
16866W        W21166   1.385   5.316   7.903  0.1519 -0.2825 -0.0086
16867W        W21167  19.483   2.290   6.473 -0.1703  0.0926  0.0102
16868W        W21168   6.531   2.845  25.459 -0.2377  0.2250 -0.0924
16869W        W21169  30.079   2.694  17.424  0.1255  0.0682 -0.1229
16870W        W21170   8.436   1.679   3.816 -0.0041 -0.0428  0.0880
16871W        W21171  27.191   5.996  18.443  0.1797 -0.0454 -0.1542
16872W        W21172   6.467   2.490  18.881 -0.0406 -0.1274 -0.3736
16873W        W21173  12.407   6.086  18.411 -0.1558 -0.0099 -0.1458
16874W        W21174  27.085   2.719   6.931  0.0032  0.0794  0.1495
16875W        W21175   1.193   4.057  19.973  0.1561  0.0048 -0.0338
16876W        W21176   8.270   0.732   7.861 -0.0137 -0.1617  0.1571
16877W        W21177  25.822   3.615  24.957  0.0097 -0.0485  0.3664
16878W        W21178  21.057   1.385  23.326 -0.0405 -0.1947 -0.0431
16879W        W21179  11.554   6.777  18.345  0.0966 -0.1840  0.0416
16880W        W21180   6.465   0.021  20.492 -0.2392 -0.0503  0.3448
16881W        W21181  18.503   6.130   5.165 -0.0270  0.0040 -0.0684
16882W        W21182   5.181   7.021  23.439  0.1366 -0.1169 -0.1652
16883W        W21183  29.120   4.287  15.685 -0.0094  0.0441 -0.0954
16884W        W21184   2.772   4.956   6.140 -0.0438  0.3441  0.0019
16885W        W21185  23.887   6.205  16.503 -0.0998 -0.3055  0.2938
16886W        W21186  16.858   6.370   5.613 -0.3195  0.0868 -0.0208
16887W        W21187  30.189   7.565   1.152 -0.1571  0.2219  0.0561
16888W        W21188  28.027   5.669  19.680 -0.1176 -0.1923 -0.0661
16889W        W21189   0.040   3.089  25.661 -0.0320  0.1759 -0.1358
16890W        W21190  24.351   7.131  21.019 -0.1041  0.0290  0.0180
16891W        W21191  11.134   1.629  23.145  0.0099 -0.3096 -0.0658
16892W        W21192  13.159   2.674  20.504  0.1884 -0.0669  0.1966
16893W        W21193  12.656   2.231  15.339 -0.3409  0.0128  0.3458
16894W        W21194   0.470   5.671   9.406  0.2667  0.0674  0.0871
16895W        W21195  28.253   3.045  23.834 -0.0197 -0.3627 -0.2985
16896W        W21196  23.125   6.472   8.702  0.1310  0.1423 -0.2032
16897W        W21197  19.413   2.758  25.165  0.0494  0.0545 -0.1325
16898W        W21198  30.236   3.956   3.553 -0.0842 -0.3134  0.0675
16899W        W21199  29.254   0.484  15.193  0.1240 -0.1286 -0.2830
16900W        W21200  27.540   4.360   7.322  0.0449  0.2588  0.2749
16901W        W21201  12.609   3.917   7.247  0.0266  0.0837 -0.1875
16902W        W21202  15.152   1.139  17.095 -0.0998  0.2255 -0.0361
16903W        W21203  16.382   2.339   1.149  0.1215 -0.1517  0.0914
16904W        W21204   9.100   0.429  10.764  0.0919  0.2943 -0.2855
16905W        W21205   3.962   5.937  15.866 -0.0096  0.1344  0.1573
16906W        W21206  20.395   7.129   1.252 -0.0151 -0.0217  0.2621
16907W        W21207  13.925   7.018   6.425  0.1205 -0.0911 -0.1955
16908W        W21208  14.188   0.705  24.321  0.0152 -0.0540  0.0679
16909W        W21209  26.559   5.181   4.492 -0.2362  0.0479  0.2271
16910W        W21210   3.883   1.032  18.516 -0.1892  0.3803  0.0505
16911W        W21211   5.002   0.057  17.781 -0.1471  0.0918 -0.0113
16912W        W21212  13.843   2.203  25.083  0.2291  0.0034  0.1545
16913W        W21213  18.167   1.431   2.048 -0.1644 -0.2542 -0.2067
16914W        W21214   5.745   4.933  15.582  0.0216  0.0774  0.3421
16915W        W21215  26.768   3.093   6.904 -0.0762 -0.0894  0.0591
16916W        W21216  11.024   6.084  24.734  0.1750 -0.1620 -0.1852
16917W        W21217   0.696   6.991  25.891 -0.0459  0.2434  0.0133
16918W        W21218   7.776   2.325  19.995 -0.0080 -0.1148 -0.1009
16919W        W21219  12.103   3.523   5.564  0.1125 -0.1499 -0.0808
16920W        W21220  19.412   7.346  22.077  0.1613 -0.2690 -0.0934
16921W        W21221   2.826   0.450   1.494 -0.3005  0.1815  0.1663
16922W        W21222   9.856   0.327   5.326  0.0400  0.2299  0.0166
16923W        W21223  16.778   6.785   5.348  0.2267 -0.0917 -0.0798
16924W        W21224  15.424   6.200  15.580  0.0266  0.1835  0.1512
16925W        W21225  20.449   4.779   4.367  0.1828  0.4161 -0.1365
16926W        W21226  26.631   2.947   4.531 -0.2309 -0.2904  0.2447
16927W        W21227  21.842   3.584  10.509 -0.1673 -0.0308 -0.1487
16928W        W21228   0.042   3.798   8.154  0.1429 -0.5097  0.2082
16929W        W21229  19.940   6.249   6.184 -0.2709  0.2352  0.2435
16930W        W21230   7.687   3.093   3.157 -0.1545 -0.1865  0.1362
16931W        W21231   5.045   0.972   0.109 -0.0374  0.0545  0.0375
16932W        W21232  29.390   7.358  20.679  0.0697 -0.2324  0.2678
16933W        W21233  30.928   0.367   2.252 -0.0889 -0.0826 -0.0740
16934W        W21234  10.665   5.963  18.810  0.0932  0.1883 -0.1153
16935W        W21235   6.941   2.702   8.813 -0.2661  0.1024 -0.1465
16936W        W21236  22.436   6.804  23.145 -0.0724 -0.3329  0.2703
16937W        W21237  29.946   0.946   0.416  0.2762  0.0864 -0.0311
16938W        W21238  11.551   1.420  10.741  0.0888 -0.0039 -0.2259
16939W        W21239  28.487   6.741  24.745  0.1486 -0.0755  0.2802
16940W        W21240  28.552   1.456  24.291  0.1622 -0.3289 -0.0576
16941W        W21241   5.598   2.150   7.244 -0.0043  0.3413 -0.0470
16942W        W21242  23.649   4.824   8.675  0.1906 -0.2476  0.0440
16943W        W21243  12.106   0.676  20.063  0.0689  0.0944 -0.0477
16944W        W21244   8.469   6.184   6.035 -0.0901 -0.1744 -0.0122
16945W        W21245  12.767   0.822  17.690 -0.3229  0.0654 -0.0654
16946W        W21246  22.534   3.729   8.695 -0.2483  0.1916 -0.1885
16947W        W21247  14.888   0.059  25.364  0.3234  0.0254 -0.3419
16948W        W21248  10.574   6.544   3.399  0.0205  0.0847 -0.2967
16949W        W21249  18.431   7.404  20.101 -0.0211  0.2766 -0.0405
16950W        W21250  24.580   7.054  22.895 -0.1495  0.4801 -0.1345
16951W        W21251  16.809   5.991  15.629  0.2426 -0.1668 -0.1866
16952W        W21252  28.419   6.765   1.045  0.1968 -0.0827 -0.0794
16953W        W21253  17.311   4.346  24.923  0.2178  0.2789 -0.0201
16954W        W21254  19.738   1.741   0.465  0.0952  0.0728  0.1347
16955W        W21255  12.506   1.582   3.012  0.0091  0.0990  0.2673
16956W        W21256  25.095   1.090  18.066  0.1327  0.1149  0.2451
16957W        W21257  13.434   2.334   5.073 -0.1604 -0.0802 -0.0892
16958W        W21258   7.183   1.138  18.281  0.1914 -0.0072 -0.5136
16959W        W21259  26.089   6.430  17.574 -0.1359 -0.0319 -0.0280
16960W        W21260  12.562   0.216  22.040 -0.2161  0.0451 -0.2946
16961W        W21261   1.006   2.492  25.484  0.0440  0.2570  0.1068
16962W        W21262  26.385   0.322   0.595  0.0183 -0.0561  0.0910
16963W        W21263  15.492   0.862  19.359 -0.1620  0.0548 -0.3048
16964W        W21264  27.689   5.405  17.362  0.1250 -0.1163 -0.1435
16965W        W21265  23.181   0.644   9.140 -0.1278 -0.2587  0.0918
16966W        W21266  28.253   7.077   8.806 -0.0801 -0.0108 -0.0838
16967W        W21267   7.763   1.100  15.056 -0.3509  0.0315  0.0177
16968W        W21268  24.280   3.835   1.687  0.0820  0.0831  0.0634
16969W        W21269  22.102   5.204  21.089  0.2653 -0.1261  0.2159
16970W        W21270  25.744   0.510  19.561  0.1104  0.0978 -0.0111
16971W        W21271   8.817   5.185  23.150 -0.3463  0.0415 -0.1928
16972W        W21272   9.281   5.568   6.734  0.1036  0.2835 -0.0168
16973W        W21273  16.851   5.376  15.704 -0.1874  0.1417  0.0055
16974W        W21274  23.449   4.377   3.665 -0.1661 -0.1424  0.1979
16975W        W21275   3.316   4.052  23.891  0.0377  0.0649 -0.0254
16976W        W21276   0.173   6.333  21.029  0.1539 -0.0985 -0.1007
16977W        W21277  28.147   6.308   8.094  0.0930  0.2726  0.1833
16978W        W21278  28.499   4.848  10.077 -0.1739 -0.1976 -0.0965
16979W        W21279  12.791   1.666  10.337  0.1424  0.1778 -0.0601
16980W        W21280  30.446   7.351  23.627 -0.0354  0.3890 -0.2501
16981W        W21281  29.717   4.748  19.806  0.2099 -0.3529 -0.0540
16982W        W21282  22.539   4.444  23.777  0.0608  0.0911  0.2092
16983W        W21283  22.313   3.785   2.013 -0.2085  0.1676 -0.0115
16984W        W21284  15.052   7.220   9.988 -0.2770 -0.1713  0.1813
16985W        W21285  17.106   6.082  15.254  0.2790  0.1580  0.1345
16986W        W21286  10.899   7.554   1.153  0.0477 -0.2279 -0.0077
16987W        W21287   3.752   4.694  23.792  0.3823 -0.1627 -0.1516
16988W        W21288   4.327   6.037   9.788  0.0794  0.2474  0.1195
16989W        W21289   6.922   0.263  18.160 -0.1690  0.3396  0.2327
16990W        W21290  20.974   1.619   2.923  0.3267  0.0594  0.1403
16991W        W21291  21.586   7.421   4.765 -0.1554 -0.2027  0.1245
16992W        W21292  20.750   0.548   7.327 -0.3512 -0.0628  0.0016
16993W        W21293   9.415   2.633  19.604  0.5246 -0.0840 -0.0041
16994W        W21294  24.828   3.234  10.370 -0.2589 -0.0751 -0.0663
16995W        W21295  24.163   5.609  17.385 -0.0270 -0.0090  0.2916
16996W        W21296   1.347   0.999   0.588  0.0195  0.2788  0.0786
16997W        W21297  18.027   0.305  21.267 -0.0506 -0.1673  0.2838
16998W        W21298  15.314   5.702   6.359  0.2619 -0.0372  0.0494
16999W        W21299  10.248   0.341  22.168  0.0280  0.2339 -0.2168
17000W        W21300  13.583   6.133  15.976  0.1874 -0.1774  0.1844
17001W        W21301  20.414   0.644  23.116  0.1250 -0.0742  0.2143
17002W        W21302  24.601   5.360  24.114 -0.3082  0.2464  0.1644
17003W        W21303  10.499   0.593  15.741 -0.2847  0.0897 -0.1776
17004W        W21304   6.035   2.179   6.320 -0.0365  0.1905  0.0682
17005W        W21305  11.169   1.636  18.588 -0.4365 -0.1777 -0.1501
17006W        W21306  20.827   2.558   8.294 -0.2252 -0.0159  0.0539
17007W        W21307  24.711   0.845  21.441  0.1479 -0.0170  0.2879
17008W        W21308   5.593   0.458  25.892  0.0358  0.0626 -0.2317
17009W        W21309  10.748   6.465   5.077  0.0379  0.3226  0.1348
17010W        W21310  27.774   2.148  10.377  0.0176 -0.0186  0.1597
17011W        W21311  19.080   1.791  15.224  0.0203  0.1432  0.2461
17012W        W21312  14.477   7.417   8.743 -0.0835  0.3451 -0.0035
17013W        W21313  14.908   1.441  16.039 -0.2009  0.1046  0.0531
17014W        W21314  30.026   6.173  20.288 -0.2090  0.0164 -0.0165
17015W        W21315  14.370   4.633   3.245  0.1657 -0.2141 -0.1160
17016W        W21316  20.991   2.017   8.862  0.3093 -0.0583  0.0177
17017W        W21317  16.129   3.341   8.560  0.0124 -0.1437 -0.1963
17018W        W21318  14.020   2.824  15.920  0.0949 -0.0976 -0.1318
17019W        W21319  28.689   4.844  19.896  0.1333 -0.1784  0.1673
17020W        W21320  11.284   0.807  25.106 -0.0625  0.0270 -0.2747
17021W        W21321  14.860   6.405  25.086 -0.0636 -0.1390 -0.0981
17022W        W21322   2.817   5.393   8.862  0.0950  0.1837  0.3373
17023W        W21323  29.561   0.184  11.030 -0.1617  0.4563  0.1878
17024W        W21324  30.583   6.504   6.990  0.3554 -0.2299  0.0578
17025W        W21325  19.951   4.090  23.169 -0.1367  0.3081 -0.0699
17026W        W21326   1.314   2.126  22.275 -0.3533 -0.0825  0.3710
17027W        W21327  21.364   0.024   3.561 -0.0851 -0.3352  0.0903
17028W        W21328  29.194   1.403   6.183 -0.1438 -0.1476 -0.3016
17029W        W21329  29.227   4.766   7.588  0.1601  0.0347  0.3503
17030W        W21330  15.080   3.637  10.162  0.0819 -0.2975  0.0665
17031W        W21331  11.620   0.598  25.477  0.1365 -0.0532 -0.1658
17032W        W21332  17.492   7.794   3.758 -0.1428  0.0284  0.1403
17033W        W21333   5.091   0.786   6.645 -0.2446  0.0110 -0.1172
17034W        W21334  17.060   2.553  18.693 -0.1253 -0.2509 -0.2082
17035W        W21335   0.033   2.803  26.237  0.0249 -0.0559  0.1114
17036W        W21336  26.768   4.551   5.541  0.0944 -0.3872  0.0024
17037W        W21337   2.112   3.741   4.681  0.0476 -0.3193 -0.0010
17038W        W21338  21.073   0.519  24.791 -0.2348 -0.2613 -0.0688
17039W        W21339  10.365   2.329  11.050  0.0239  0.1066 -0.3835
17040W        W21340   8.191   5.359  24.803 -0.2003  0.1151  0.1068
17041W        W21341   3.320   4.941  15.949  0.0954 -0.2977 -0.0238
17042W        W21342   3.011   0.914  20.092  0.2413  0.0612  0.0484
17043W        W21343  28.572   6.428   0.228 -0.1633  0.0035  0.0449
17044W        W21344  25.172   5.553   6.290 -0.3703  0.1165 -0.3922
17045W        W21345   1.787   4.749   3.847  0.0240  0.1493 -0.1005
17046W        W21346   1.791   0.575   8.472 -0.0056 -0.2704  0.1920
17047W        W21347  23.678   4.799  17.837  0.1079  0.0348 -0.1755
17048W        W21348   6.151   7.007   1.893 -0.2140 -0.0975 -0.2263
17049W        W21349   6.560   0.921   0.692 -0.0833 -0.0590 -0.0217
17050W        W21350  28.249   0.327   6.258  0.0958  0.1853  0.2001
17051W        W21351  18.437   2.872   7.881  0.0871  0.0034  0.1435
17052W        W21352  18.416   6.354   0.367 -0.0432 -0.2647 -0.1007
17053W        W21353   0.148   2.960  14.941  0.2897 -0.0722  0.1214
17054W        W21354   5.272   5.518  20.707 -0.1483 -0.2996 -0.2243
17055W        W21355   0.205   1.858   9.410 -0.2616  0.1789  0.1239
17056W        W21356  16.719   3.130  19.573  0.0591  0.2039 -0.1252
17057W        W21357  19.699   7.690   6.233 -0.1208 -0.0419 -0.1160
17058W        W21358   4.270   3.666   1.058 -0.2780  0.0919  0.0154
17059W        W21359  23.212   7.315   6.037  0.2270 -0.1180 -0.0663
17060W        W21360   9.187   6.829  19.740  0.2507 -0.0970 -0.1299
17061W        W21361   7.353   5.086  25.768 -0.0412 -0.1021  0.2063
17062W        W21362   6.597   3.749  20.686 -0.0716  0.0870 -0.2322
17063W        W21363   2.547   2.313  24.698 -0.0225  0.1368 -0.0849
17064W        W21364  13.765   2.347  16.079  0.0943 -0.2641  0.2512
17065W        W21365  26.701   5.143   6.413 -0.0141  0.0733 -0.1169
17066W        W21366  28.272   0.472  15.419 -0.1320  0.3757 -0.1650
17067W        W21367  13.132   6.163  16.451 -0.2648  0.2183  0.4099
17068W        W21368  11.005   2.659   5.235  0.0361  0.2797  0.0437
17069W        W21369   8.029   6.315  19.888 -0.1878  0.3746 -0.2446
17070W        W21370  16.166   4.969  10.493  0.0267 -0.1490 -0.3242
17071W        W21371  24.928   7.371  19.715 -0.0332  0.1350  0.0477
17072W        W21372  12.920   5.390  16.025  0.0745 -0.1743  0.2204
17073W        W21373  15.542   3.009  15.494  0.1645 -0.0180 -0.0656
17074W        W21374  29.894   6.974  22.800 -0.1234  0.1441 -0.0589
17075W        W21375  23.275   7.563   0.459 -0.0602 -0.0134  0.0191
17076W        W21376  26.124   3.743   5.535  0.0380  0.0245  0.1219
17077W        W21377  12.911   2.005  21.338 -0.1486 -0.0065 -0.1846
17078W        W21378  13.547   6.114   8.214  0.3373  0.0185 -0.1188
17079W        W21379   2.561   1.918  21.970 -0.2259 -0.2318  0.0266
17080W        W21380  30.694   4.300  15.548  0.0003  0.0483 -0.1105
17081W        W21381   2.163   3.418   2.950 -0.2376  0.0444 -0.3427
17082W        W21382  11.792   6.536   7.929  0.0478  0.2009  0.1250
17083W        W21383  17.854   2.922   8.106 -0.2061 -0.1703 -0.2063
17084W        W21384  25.061   5.576  18.324  0.1232  0.2579 -0.2007
17085W        W21385  18.648   0.122   9.143 -0.0772  0.2685  0.0781
17086W        W21386  26.718   4.538  17.735  0.3418  0.2519  0.0676
17087W        W21387   4.594   6.702  19.304 -0.1479  0.2644 -0.1121
17088W        W21388  25.634   5.484   9.195  0.2693 -0.2266  0.1611
17089W        W21389   8.277   1.438   2.659  0.2111  0.0767 -0.1378
17090W        W21390  15.182   4.550  18.174  0.1596 -0.1631  0.0918
17091W        W21391  20.108   2.035  21.310  0.0231  0.3400  0.1260
17092W        W21392   5.766   5.911   7.141 -0.0082  0.0108  0.3154
17093W        W21393  13.394   5.822  15.607 -0.1648 -0.2039 -0.0206
17094W        W21394   5.149   6.615   0.472  0.0038  0.0955  0.0629
17095W        W21395   3.041   2.161  23.601 -0.0121  0.1347 -0.1062
17096W        W21396  16.823   6.065  26.239 -0.1572  0.2043 -0.0189
17097W        W21397  29.391   2.830  21.848  0.2334 -0.2679 -0.1147
17098W        W21398  29.309   2.078   6.594  0.4138 -0.0679 -0.0412
17099W        W21399   8.874   1.270  23.059  0.3408 -0.0103 -0.1335
17100W        W21400  26.978   0.880  18.228  0.1408  0.1375 -0.0950
17101W        W21401  27.655   4.084   5.868 -0.1785  0.1219  0.2222
17102W        W21402  22.919   0.047  17.494 -0.0670  0.3126  0.1679
17103W        W21403  29.519   6.047  20.292  0.1585  0.1989 -0.0461
17104W        W21404   2.371   6.056  18.824 -0.1517  0.1634  0.0965
17105W        W21405  25.854   6.641  25.335  0.2190  0.1932 -0.0041
17106W        W21406   3.957   7.227   3.156  0.0062 -0.2284 -0.3220
17107W        W21407  28.123   4.315   8.633  0.1082 -0.1660  0.1525
17108W        W21408   5.678   4.308  17.834  0.0151  0.1606  0.1134
17109W        W21409  18.939   1.374  25.078  0.1873 -0.0892  0.0498
17110W        W21410  20.876   4.247  15.753 -0.1791 -0.1872  0.1257
17111W        W21411   5.078   2.789  17.288  0.1417  0.1036  0.0631
17112W        W21412   6.071   4.922  25.564  0.0221 -0.1524 -0.1974
17113W        W21413  16.063   0.145  23.020 -0.0792 -0.0759 -0.1057
17114W        W21414   7.895   6.660   8.728 -0.1224  0.1637 -0.2862
17115W        W21415  20.500   7.635  18.407  0.0295  0.1190 -0.0748
17116W        W21416  21.908   6.031  16.428 -0.0204  0.4153  0.1023
17117W        W21417   8.718   7.113   5.371 -0.0093  0.1402  0.0688
17118W        W21418  18.797   6.135  24.026  0.1017  0.6176  0.1815
17119W        W21419  28.537   0.023   4.783 -0.2885 -0.1490  0.1476
17120W        W21420   9.544   5.324   0.117 -0.1430  0.2235  0.1316
17121W        W21421  20.549   5.072  16.812 -0.1784  0.0722  0.0424
17122W        W21422  16.134   0.332  17.073  0.0758 -0.2190  0.1533
17123W        W21423   3.991   2.012   1.357  0.1733  0.0246 -0.1651
17124W        W21424  14.450   4.605  16.135 -0.1063  0.4211  0.2399
17125W        W21425   7.549   1.813  20.684  0.0486 -0.2207 -0.0213
17126W        W21426  21.783   1.910  24.044 -0.0001  0.0841  0.1647
17127W        W21427   5.598   2.816  16.351 -0.3120  0.2161 -0.0006
17128W        W21428  29.694   2.614   8.697  0.1061  0.0553 -0.2814
17129W        W21429  27.746   2.522  26.267 -0.2488 -0.1959  0.0314
17130W        W21430   8.288   3.010  19.939  0.0067 -0.2618  0.0199
17131W        W21431   9.508   3.715   6.830  0.0626  0.0983  0.1527
17132W        W21432  17.234   5.443  25.616  0.3485 -0.0261  0.2500
17133W        W21433  29.605   4.709   8.043  0.1879  0.1271  0.0751
17134W        W21434  21.983   4.283  21.841  0.1523  0.0469  0.1853
17135W        W21435   6.169   6.384  10.397 -0.0741  0.0921 -0.2232
17136W        W21436  11.324   4.311   4.180  0.1101 -0.0417 -0.0098
17137W        W21437  16.925   5.829   0.935 -0.5713  0.1436  0.2570
17138W        W21438  15.814   5.538  17.797 -0.0869  0.0316  0.0289
17139W        W21439  28.790   1.468  17.592 -0.0581  0.0628 -0.0206
17140W        W21440  17.612   0.090  24.925  0.1496 -0.3864 -0.3391
17141W        W21441  28.036   2.756   6.084 -0.0499  0.1860  0.0010
17142W        W21442   3.370   0.188   3.199  0.0296  0.1722 -0.2514
17143W        W21443  26.575   0.610  25.280  0.0033  0.0882 -0.0064
17144W        W21444  24.304   4.027  23.764  0.2103 -0.0994 -0.2139
17145W        W21445   7.846   1.702  25.394 -0.0922 -0.2387  0.3755
17146W        W21446  21.855   4.262   0.724 -0.1930 -0.1897  0.1114
17147W        W21447  13.624   3.019   7.735  0.0230  0.1540  0.1342
17148W        W21448   2.767   0.048  15.991  0.1068  0.1491  0.0758
17149W        W21449  21.684   3.228   9.842  0.1444 -0.0462  0.1083
17150W        W21450  30.112   7.625  20.340  0.0661 -0.1111  0.2116
17151W        W21451  24.821   4.162   3.387  0.1169 -0.0534 -0.3431
17152W        W21452  30.868   5.160  18.422  0.0724 -0.1663  0.2078
17153W        W21453  11.921   2.104   0.407  0.0373  0.0482  0.1912
17154W        W21454   0.684   0.206  16.817 -0.0103  0.0858  0.0208
17155W        W21455  25.543   7.396   5.581 -0.0638 -0.1115  0.1822
17156W        W21456  12.984   5.397   1.587 -0.0159 -0.0953 -0.2615
17157W        W21457   2.283   3.152   4.202  0.1187 -0.2327  0.0496
17158W        W21458   2.119   5.901  19.631 -0.1219  0.1001 -0.2019
17159W        W21459   8.850   6.895  15.846  0.0139  0.0649 -0.1951
17160W        W21460  20.985   5.776  26.093  0.0605  0.0237  0.0177
17161W        W21461   0.691   1.116  21.062 -0.0133  0.1861 -0.0029
17162W        W21462   0.249   0.493   9.368 -0.0894 -0.0976 -0.3207
17163W        W21463   5.798   5.463   6.460 -0.3566 -0.1194  0.1150
17164W        W21464  19.892   0.882  26.266  0.2677  0.1346 -0.3885
17165W        W21465   4.006   5.136  25.669 -0.1344  0.1115 -0.0149
17166W        W21466  23.511   0.779  23.163  0.2146 -0.0448 -0.1176
17167W        W21467  28.400   6.620   8.461 -0.2249 -0.0385 -0.2316
17168W        W21468   6.168   0.949  19.449  0.2899  0.3791 -0.2165
17169W        W21469  18.124   6.562   1.909  0.1559  0.1920 -0.1379
17170W        W21470  20.672   6.674  23.869 -0.0533 -0.2010 -0.0003
17171W        W21471  12.383   7.539   1.726 -0.0463  0.0024  0.1752
17172W        W21472   2.355   1.930  21.544  0.0766  0.0923  0.3963
17173W        W21473   7.274   0.077   9.808 -0.0442 -0.1878  0.0578
17174W        W21474   8.560   4.568   6.913 -0.2040  0.0459 -0.1808
17175W        W21475  17.129   1.457  23.372 -0.0616 -0.1048  0.1497
17176W        W21476  30.462   5.350  21.280 -0.1101  0.0473  0.0274
17177W        W21477  23.864   2.910  18.103 -0.2370  0.2804  0.1088
17178W        W21478  19.281   0.824   0.112 -0.1220 -0.0902  0.2416
17179W        W21479  17.417   5.895  25.547 -0.3308 -0.3919  0.1478
17180W        W21480  14.867   4.313  24.625  0.0208  0.1923  0.0413
17181W        W21481  20.073   0.029  20.388  0.3328  0.2765  0.1036
17182W        W21482  26.150   5.241  17.720 -0.1724 -0.1593 -0.0827
17183W        W21483  22.962   0.469  23.992 -0.1858 -0.0257 -0.0102
17184W        W21484  25.884   6.768  22.981 -0.1673 -0.2679 -0.1235
17185W        W21485  11.481   7.323  18.160  0.1301 -0.3889  0.0959
17186W        W21486  17.261   1.638  23.891 -0.0823  0.3866  0.0651
17187W        W21487   0.852   2.760  23.223  0.1521  0.2532  0.0830
17188W        W21488  11.483   6.009  25.963 -0.1141 -0.1090 -0.0291
17189W        W21489  24.760   4.641   4.502 -0.2142 -0.2050  0.1162
17190W        W21490  23.836   5.329   4.340 -0.0969  0.0011 -0.1537
17191W        W21491  18.534   4.029  16.660  0.0899  0.1171 -0.0170
17192W        W21492  30.688   7.600  25.413  0.0047 -0.0319  0.3408
17193W        W21493  17.131   2.846  16.601  0.0301 -0.0088 -0.1743
17194W        W21494  10.886   6.311  24.217 -0.0330 -0.1589  0.0269
17195W        W21495  18.298   1.292   5.639  0.0945 -0.1470 -0.0972
17196W        W21496  25.453   6.956   8.574 -0.0368 -0.1690  0.1997
17197W        W21497  10.027   4.120   0.105  0.2159  0.1771 -0.1133
17198W        W21498  25.906   3.518   1.752 -0.0374  0.0221  0.0904
17199W        W21499  25.904   5.817   8.912  0.0226  0.0631  0.3713
17200W        W21500   6.531   4.568  25.389  0.0583  0.0714 -0.0620
17201W        W21501  21.750   7.452   7.129 -0.1583  0.1319  0.3518
17202W        W21502  17.726   7.058  23.262 -0.0906 -0.3381  0.1734
17203W        W21503   3.144   7.134  11.232  0.2976  0.3620  0.0653
17204W        W21504  23.583   3.376  10.878  0.0718  0.0786 -0.0337
17205W        W21505   9.859   1.395   1.715 -0.0146 -0.0696  0.0502
17206W        W21506  18.891   1.085   9.995  0.1195  0.1018  0.2283
17207W        W21507   7.223   0.597   0.840 -0.2177  0.1048 -0.1967
17208W        W21508  15.543   4.937  25.488  0.0980  0.1789  0.3564
17209W        W21509   9.603   7.021   9.826  0.4418 -0.0250 -0.2335
17210W        W21510  13.278   0.918   2.243  0.0220  0.2022  0.0421
17211W        W21511  15.811   1.353   4.674  0.3322 -0.1502 -0.0852
17212W        W21512   1.533   4.925  25.001  0.1651  0.0104 -0.1058
17213W        W21513  24.061   0.672   5.164 -0.3660  0.0006 -0.1807
17214W        W21514   3.364   3.721  17.620  0.0877 -0.2510 -0.0890
17215W        W21515  18.765   5.480   5.037  0.1135  0.1378  0.0690
17216W        W21516   6.864   2.953  20.463  0.0465 -0.0700  0.1776
17217W        W21517  28.466   0.320  22.364  0.1955  0.0018  0.2046
17218W        W21518   8.168   6.309   6.408  0.2256 -0.0254 -0.0456
17219W        W21519   5.780   3.509   8.340  0.3021  0.0373  0.1631
17220W        W21520  26.822   0.915   6.332 -0.1261 -0.1274  0.0984
17221W        W21521  11.336   4.264   5.948 -0.0337 -0.0891  0.3187
17222W        W21522  26.813   1.052  23.346 -0.2176 -0.1953  0.0596
17223W        W21523   6.665   1.479  21.112 -0.0653  0.0132 -0.0886
17224W        W21524   6.690   1.714  24.510  0.0547  0.2000  0.3943
17225W        W21525  15.106   3.939   4.985 -0.0576 -0.1355  0.2855
17226W        W21526   7.164   2.880  10.692 -0.0020 -0.0243  0.0377
17227W        W21527  22.051   4.879  21.937  0.2595 -0.5026  0.0414
17228W        W21528  28.484   4.234   4.154 -0.2175 -0.2308 -0.0242
17229W        W21529  11.472   2.676  17.472  0.2524  0.1881  0.1476
17230W        W21530   7.955   7.675   7.814 -0.1244  0.3353 -0.2227
17231W        W21531   5.835   1.201  21.085 -0.0464  0.0187  0.2182
17232W        W21532   3.144   1.734  25.218 -0.2134 -0.2344 -0.2313
17233W        W21533   8.106   6.347  25.079  0.2828  0.3586 -0.0045
17234W        W21534  12.445   5.664  18.755 -0.1312  0.0741  0.1863
17235W        W21535  27.597   3.310  16.705 -0.2136 -0.0521  0.1345
17236W        W21536   8.547   5.034   5.751  0.0999 -0.0547 -0.2134
17237W        W21537  10.219   1.095  23.804 -0.3198  0.1131 -0.0970
17238W        W21538   9.009   0.069   3.670  0.0655 -0.2751  0.1379
17239W        W21539   8.477   5.040   9.837  0.0169  0.1590  0.1043
17240W        W21540  30.907   1.485  15.594 -0.1247 -0.0794  0.1519
17241W        W21541   6.612   6.654  10.415 -0.1607 -0.1215  0.3243
17242W        W21542  17.243   0.022  23.173 -0.2010  0.0412 -0.1566
17243W        W21543  14.193   4.640  10.038 -0.2399  0.1037  0.0054
17244W        W21544   2.687   5.616   9.302  0.0010 -0.1082  0.2637
17245W        W21545  13.687   5.948  17.262  0.1596  0.0900 -0.0877
17246W        W21546  16.792   1.088   7.873 -0.0022 -0.0463  0.2014
17247W        W21547  22.268   6.853  10.916  0.0872  0.1654  0.1894
17248W        W21548   3.645   1.955   3.159 -0.0129  0.1007 -0.1695
17249W        W21549  11.137   2.593  16.165 -0.1475  0.0741  0.0993
17250W        W21550   9.037   1.410  20.016  0.1057 -0.0445 -0.3054
17251W        W21551   0.196   2.582   1.267  0.0663  0.7331  0.1225
17252W        W21552   6.627   7.156  18.171 -0.0970 -0.1106  0.1242
17253W        W21553   7.287   7.544  17.003 -0.3311  0.1341 -0.0759
17254W        W21554   8.818   0.321   2.470 -0.2433  0.1274 -0.0894
17255W        W21555  15.756   1.528  15.569  0.0602 -0.3052 -0.1243
17256W        W21556  13.117   0.342  24.845 -0.0114  0.1678  0.2439
17257W        W21557  21.782   2.023  23.455 -0.2805 -0.5355 -0.0387
17258W        W21558  16.608   2.968   1.905  0.0921 -0.0666  0.0619
17259W        W21559   6.167   6.015   2.417  0.1203 -0.1882 -0.0695
17260W        W21560   4.941   1.501  10.025 -0.1299  0.3096  0.0225
17261W        W21561  15.312   0.259  24.338 -0.3276 -0.1770 -0.2475
17262W        W21562   3.302   1.260  25.375  0.0967  0.0661 -0.2511
17263W        W21563  17.771   1.391   6.078  0.1533  0.0807  0.0906
17264W        W21564  25.818   3.595   6.384  0.0904  0.1272 -0.1937
17265W        W21565  21.523   4.101  26.225 -0.0093 -0.0728 -0.1639
17266W        W21566  26.206   1.172  26.056 -0.1727  0.1408  0.2336
17267W        W21567  10.464   3.837   7.929 -0.0154  0.0938 -0.0330
17268W        W21568   3.847   7.731   3.395 -0.3665  0.2238 -0.1267
17269W        W21569  12.066   3.340  18.558  0.0897  0.0571  0.1296
17270W        W21570   0.342   3.990   0.063 -0.1885  0.0661  0.1681
17271W        W21571  25.861   2.323  19.064 -0.1202 -0.1177 -0.0275
17272W        W21572  15.465   3.114  20.653 -0.1363  0.0854  0.0344
17273W        W21573  22.185   3.778  19.024 -0.5051 -0.4451  0.0189
17274W        W21574  26.885   4.616   0.710  0.0274  0.0063 -0.0638
17275W        W21575  24.055   3.627  21.796  0.2265  0.3410  0.0449
17276W        W21576  26.139   0.007   5.414  0.0187 -0.0634  0.3910
17277W        W21577  12.287   2.879   0.055 -0.3255 -0.2186  0.2314
17278W        W21578   9.595   6.968   7.934  0.2467  0.2474 -0.1908
17279W        W21579  14.905   4.433   1.153  0.2059 -0.0249 -0.1541
17280W        W21580  19.383   4.281   0.572  0.2009  0.1066  0.0872
17281W        W21581  27.158   4.484  10.063  0.0677  0.0250  0.0319
17282W        W21582  23.943   2.984  26.101 -0.1049 -0.0832 -0.0749
17283W        W21583   5.479   5.252  21.853  0.2542  0.0099  0.1746
17284W        W21584  20.722   3.094   2.689 -0.1255 -0.0624 -0.0921
17285W        W21585  17.915   6.686   4.744 -0.0081 -0.1889 -0.0127
17286W        W21586   4.616   1.658   8.728  0.0521 -0.1329  0.0543
17287W        W21587  19.934   5.345   6.570  0.0257 -0.0856  0.0961
17288W        W21588  19.600   2.196  22.502  0.4299  0.1601  0.0762
17289W        W21589  18.470   0.656  24.555 -0.1934  0.0940 -0.0373
17290W        W21590   4.062   2.718  10.268 -0.1393 -0.0502  0.2393
17291W        W21591  12.582   0.724  16.028 -0.0093  0.0646 -0.1630
17292W        W21592   2.670   2.991  17.476  0.1547 -0.1065 -0.2405
17293W        W21593   7.142   7.217   7.499 -0.1693 -0.0324  0.1256
17294W        W21594  27.990   1.635   4.145  0.1614  0.1053 -0.4315
17295W        W21595  23.196   6.279  26.207  0.2126  0.0454  0.0573
17296W        W21596  30.418   5.043   1.329  0.1696  0.4799  0.0193
17297W        W21597   1.651   5.955   5.405 -0.0861  0.1778  0.1579
17298W        W21598   3.752   1.019  25.615 -0.2238  0.2585  0.1485
17299W        W21599  17.326   0.321   8.251  0.0351  0.0409 -0.0451
17300W        W21600  31.201   0.575  22.330 -0.2862  0.0819  0.0102
17301W        W21601  25.989   3.466   7.330  0.1022  0.0516  0.1167
17302W        W21602   5.492   7.128   6.645  0.3543 -0.0502 -0.3011
17303W        W21603  24.221   4.835  22.976 -0.1323 -0.1203 -0.0715
17304W        W21604   4.585   3.566  21.711  0.1396  0.0703  0.0143
17305W        W21605  30.157   3.062  22.353  0.0115  0.0533  0.0344
17306W        W21606  15.117   5.707  26.135 -0.3053  0.1249  0.0543
17307W        W21607  15.990   1.415   6.539  0.1176 -0.1618  0.0829
17308W        W21608  26.073   6.650   6.909 -0.1107  0.1240  0.0365
17309W        W21609  16.297   1.856   5.283 -0.3146  0.3041  0.1437
17310W        W21610  17.513   2.713  23.207  0.0930 -0.1780 -0.2365
17311W        W21611  19.373   3.748   0.721  0.2250 -0.1410 -0.0715
17312W        W21612  27.653   4.302   1.039 -0.1148  0.1453  0.2780
17313W        W21613  26.086   1.765  24.388  0.0525 -0.2183  0.0003
17314W        W21614   6.903   5.626   5.501  0.3536  0.0244  0.1725
17315W        W21615  28.071   2.845   8.147  0.2893 -0.3926  0.3518
17316W        W21616  28.118   0.519   4.752  0.2623  0.0418  0.2152
17317W        W21617   5.377   0.947  21.137 -0.0193 -0.1181  0.1177
17318W        W21618  27.512   1.103   2.852  0.0236 -0.0720 -0.1402
17319W        W21619  17.052   1.298  16.791 -0.0309 -0.1784  0.0660
17320W        W21620  26.118   5.632  21.999  0.0616 -0.2064 -0.0879
17321W        W21621  28.099   5.706   5.378 -0.0441 -0.2482 -0.0023
17322W        W21622  28.997   6.799  18.645 -0.2559  0.2391  0.0336
17323W        W21623   9.276   4.903  23.291 -0.1527 -0.1082 -0.2479
17324W        W21624   2.778   6.032   0.561 -0.3281 -0.0555 -0.3538
17325W        W21625  25.447   4.076   4.677 -0.1322  0.1684 -0.2337
17326W        W21626   7.792   1.495   0.657 -0.1818 -0.0075 -0.2624
17327W        W21627  10.818   2.050  22.929 -0.1372  0.1123  0.0181
17328W        W21628   3.112   5.218   8.423  0.0477 -0.2668  0.2006
17329W        W21629   3.726   6.760   8.448  0.1987 -0.0596 -0.1565
17330W        W21630   7.615   0.214  22.192  0.3758 -0.3569  0.2160
17331W        W21631  16.132   1.932  24.483  0.3735 -0.3006 -0.0254
17332W        W21632  11.635   2.136   8.655 -0.2706 -0.1790 -0.1186
17333W        W21633  25.559   1.162  23.362 -0.0660 -0.0758  0.0866
17334W        W21634  30.794   0.119   1.893 -0.2743 -0.4051 -0.1725
17335W        W21635   7.860   0.616  15.999  0.1772 -0.2838 -0.1313
17336W        W21636  14.081   4.192  25.922 -0.1207  0.1864  0.0907
17337W        W21637  18.994   5.472  10.242  0.2002  0.2367 -0.1504
17338W        W21638  10.915   2.998   8.214  0.0374  0.0015 -0.0144
17339W        W21639   3.533   0.513  23.200  0.0156 -0.0493 -0.0886
17340W        W21640   6.183   3.339   2.221  0.1353  0.1404  0.0366
17341W        W21641  23.979   3.589   0.616 -0.1702  0.0947  0.0840
17342W        W21642  22.164   2.646  10.359  0.0124 -0.0926 -0.2583
17343W        W21643  21.760   6.919  16.056  0.1807  0.0181 -0.1782
17344W        W21644  19.589   3.530   8.051  0.1073  0.1956  0.2426
17345W        W21645  19.535   7.366  16.811  0.1060  0.2224  0.0003
17346W        W21646  23.973   5.889   5.603  0.0048 -0.2248  0.0159
17347W        W21647  14.876   7.285   6.270 -0.0599 -0.3736 -0.0201
17348W        W21648  18.099   6.481   5.642 -0.0528  0.2642 -0.0174
17349W        W21649  27.210   6.811   5.300 -0.1166  0.1054 -0.5154
17350W        W21650  17.188   2.074  18.038 -0.0636 -0.0189  0.1090
17351W        W21651   8.671   4.584  24.210 -0.0667  0.0356 -0.1418
17352W        W21652  26.261   6.409  26.232  0.0053  0.1665 -0.2161
17353W        W21653  16.343   0.017  21.153  0.0282 -0.2939  0.0792
17354W        W21654  28.426   0.328   0.866  0.0324 -0.2410  0.2659
17355W        W21655   7.384   7.253   2.681  0.1082  0.2124 -0.0869
17356W        W21656   8.836   5.907  17.241  0.1001 -0.1307 -0.2159
17357W        W21657   5.943   1.999  25.469  0.1497 -0.1185  0.1141
17358W        W21658  27.318   5.854   8.532 -0.1624  0.0740 -0.1195
17359W        W21659  27.050   6.537   0.346 -0.3238  0.0352 -0.0182
17360W        W21660  13.590   0.020  22.658 -0.1058 -0.2578 -0.0225
17361W        W21661  14.116   4.311  17.236 -0.0382 -0.1581  0.0593
17362W        W21662   1.732   2.664  20.302  0.0672 -0.0953  0.3488
17363W        W21663  18.974   2.773  19.689 -0.2400  0.0253  0.0862
17364W        W21664  15.157   5.281   3.077 -0.1380  0.1966 -0.0209
17365W        W21665   5.997   6.082  26.051 -0.1725 -0.0564  0.0931
17366W        W21666  17.478   5.421   1.382  0.0413  0.0504  0.1656
17367W        W21667  30.834   7.615  16.544  0.5192  0.0791 -0.0897
17368W        W21668  23.468   1.290   4.624 -0.2130 -0.2330 -0.0444
17369W        W21669  17.094   5.050   8.421 -0.0528  0.1988 -0.0063
17370W        W21670  29.080   4.683   8.101 -0.1434 -0.0155  0.4013
17371W        W21671   4.556   7.268   6.620  0.1040 -0.1971  0.0063
17372W        W21672  15.416   5.108  20.033 -0.1171 -0.1319  0.2986
17373W        W21673  10.514   6.732  14.733  0.1166  0.0637 -0.0062
17374W        W21674  20.727   0.723   4.909 -0.0384  0.2380 -0.2943
17375W        W21675  18.404   1.729  16.198 -0.0647  0.2354  0.0175
17376W        W21676   7.343   1.171   7.449  0.0756 -0.1114 -0.0370
17377W        W21677  25.166   6.188  17.791  0.0433 -0.2522  0.3012
17378W        W21678   5.237   5.393   3.939 -0.2157 -0.0536 -0.4491
17379W        W21679  26.625   5.073  17.844 -0.1156  0.0909 -0.0346
17380W        W21680  22.839   7.606   9.726 -0.2201 -0.0433  0.0020
17381W        W21681  29.018   2.024   3.543  0.2377 -0.1490 -0.0021
17382W        W21682  14.158   5.551   0.711 -0.0651  0.3675  0.2828
17383W        W21683  11.859   1.301   8.784 -0.2447  0.0937  0.2676
17384W        W21684  28.852   4.220   4.932 -0.1333  0.0286  0.1476
17385W        W21685   0.093   2.452  25.791  0.1352  0.3041 -0.0567
17386W        W21686   3.490   4.296   0.582  0.2917  0.0369  0.0683
17387W        W21687  24.392   5.671  26.319  0.0721  0.1010  0.0469
17388W        W21688  16.685   2.266   3.507 -0.2032 -0.1860  0.0411
17389W        W21689  28.438   6.663  25.284 -0.2601  0.2361 -0.0355
17390W        W21690   5.633   3.851   3.877  0.1456 -0.2449  0.2843
17391W        W21691   4.434   4.125  20.449  0.1972  0.0279  0.0115
17392W        W21692   8.176   1.747   3.439 -0.1144 -0.0798  0.1402
17393W        W21693  21.394   7.584  19.040  0.1369 -0.1583  0.2415
17394W        W21694   0.104   6.066   4.925 -0.0997 -0.1163  0.1262
17395W        W21695   3.867   1.981   9.488 -0.0869 -0.1953 -0.1646
17396W        W21696  20.713   6.987  25.325  0.0979 -0.2401  0.2192
17397W        W21697   9.628   3.014  16.109 -0.1165 -0.0261  0.1900
17398W        W21698  14.734   0.493   6.835 -0.2137 -0.3311 -0.0446
17399W        W21699  21.050   3.610  17.986 -0.0295  0.0268  0.0116
17400W        W21700  17.060   3.294   4.136 -0.1794 -0.0670  0.0135
17401W        W21701  14.844   1.387  18.315 -0.2690 -0.0873 -0.2076
17402W        W21702  27.593   6.880  20.087 -0.1553  0.0418 -0.3142
17403W        W21703  15.737   5.861   7.082 -0.1758 -0.1681 -0.0797
17404W        W21704  28.262   5.814   6.955 -0.1601 -0.0578  0.1789
17405W        W21705  21.078   6.668   1.927 -0.1613 -0.0785  0.4379
17406W        W21706  15.949   7.032   3.708  0.0292  0.0294  0.4135
17407W        W21707   8.648   7.093  10.348 -0.4485  0.0057 -0.0863
17408W        W21708  10.566   5.290   2.086  0.0955  0.0068  0.3000
17409W        W21709  19.562   0.508  17.629  0.0777  0.1677  0.0648
17410W        W21710   3.021   6.953  17.452  0.1900  0.1253  0.2737
17411W        W21711   1.474   4.865   6.449 -0.0887  0.0022 -0.1992
17412W        W21712   6.591   2.079  19.194  0.1563  0.0418  0.0016
17413W        W21713  27.664   3.720   9.904  0.1131  0.2249 -0.2435
17414W        W21714  14.898   4.019   4.045  0.0506  0.0217  0.0544
17415W        W21715  23.410   3.932   8.930 -0.0084  0.0573 -0.2664
17416W        W21716   6.363   3.563  11.247  0.0954 -0.2143 -0.0559
17417W        W21717  29.661   6.162   1.811 -0.0855  0.0763 -0.1195
17418W        W21718  15.549   3.523  15.675  0.0234  0.0779  0.1449
17419W        W21719  22.379   3.116   9.520  0.0746  0.1193  0.0762
17420W        W21720  20.776   7.798  18.011  0.0086  0.1793 -0.0652
17421W        W21721  14.085   6.943   3.966 -0.0208  0.2426 -0.0277
17422W        W21722  28.908   3.427  18.517 -0.0063 -0.0028 -0.1410
17423W        W21723  13.366   1.923   0.397 -0.1799 -0.1661  0.2215
17424W        W21724  12.127   7.508  21.604 -0.3850 -0.0098 -0.1760
17425W        W21725   7.849   7.656  23.341 -0.2048  0.1265 -0.1297
17426W        W21726   1.164   6.476   7.694 -0.1510  0.1059  0.0393
17427W        W21727  26.420   2.351   3.150 -0.2173  0.1344 -0.1459
17428W        W21728  16.497   3.141   6.058 -0.0694 -0.3411 -0.0957
17429W        W21729  20.454   3.441  23.410 -0.2094 -0.1764 -0.1088
17430W        W21730  13.569   4.355   4.338  0.0776 -0.2533 -0.2884
17431W        W21731  28.662   7.718  16.389 -0.1070  0.0246  0.1357
17432W        W21732   8.497   6.673  21.404 -0.0102 -0.0876 -0.0018
17433W        W21733   4.195   2.706  11.265  0.0818  0.1946 -0.1346
17434W        W21734   7.405   3.507  24.981 -0.1737 -0.1713 -0.1393
17435W        W21735   7.593   3.960  22.913 -0.1344  0.1890  0.1882
17436W        W21736   9.554   3.024  24.650 -0.3472 -0.0644  0.1049
17437W        W21737   5.628   7.563   5.357 -0.1276  0.0545 -0.1602
17438W        W21738  16.829   0.147   2.398 -0.3958 -0.1158  0.0339
17439W        W21739  27.027   3.127  21.152 -0.2903  0.1465  0.0539
17440W        W21740  21.362   5.510  21.365 -0.0487 -0.1064 -0.1106
17441W        W21741   0.685   0.248  19.782  0.0946 -0.1474 -0.1304
17442W        W21742  24.023   4.860  10.750  0.0990  0.1496 -0.1049
17443W        W21743  28.060   7.129  24.266 -0.0440  0.0047  0.1391
17444W        W21744   5.142   2.600   8.606 -0.1426  0.1112  0.1212
17445W        W21745  21.504   0.584  16.664  0.1051  0.1142 -0.1293
17446W        W21746   6.667   4.810  24.227 -0.1199 -0.1369  0.0816
17447W        W21747  14.704   7.481   9.681  0.0832  0.0340 -0.1400
17448W        W21748  27.851   4.086   9.054  0.1363  0.0689  0.2214
17449W        W21749   6.930   7.224  23.433  0.0566  0.0807  0.2486
17450W        W21750  10.014   3.881   4.167 -0.0281  0.0486 -0.3818
17451W        W21751  18.423   6.333   3.968  0.0476 -0.1661 -0.0742
17452W        W21752  10.028   7.160   1.935 -0.2101 -0.5481  0.0702
17453W        W21753  11.190   5.108  18.718 -0.0670  0.1938 -0.0648
17454W        W21754   3.860   6.736   1.090  0.1240 -0.0322  0.0670
17455W        W21755   5.187   1.611   4.801  0.1328 -0.0189 -0.0142
17456W        W21756  21.682   1.094  23.504 -0.1085 -0.1857  0.2694
17457W        W21757   0.088   4.379   5.009  0.2678 -0.2381 -0.1103
17458W        W21758  16.559   2.391  23.061  0.2163  0.2395 -0.1634
17459W        W21759  14.337   0.518   5.565  0.2841  0.0564  0.2793
17460W        W21760  10.002   1.951  17.494  0.3159 -0.1770 -0.2888
17461W        W21761  25.532   7.418   2.854 -0.0946 -0.1042 -0.1416
17462W        W21762  14.679   5.892   7.062  0.0862 -0.1658  0.0677
17463W        W21763   8.176   4.672   5.495 -0.3658  0.3229 -0.3428
17464W        W21764   0.593   5.730  24.917  0.0228 -0.3580 -0.3413
17465W        W21765  12.395   2.061   5.646 -0.2061 -0.0546 -0.0002
17466W        W21766  18.040   2.059   3.782 -0.0266  0.1152  0.0177
17467W        W21767   3.285   6.110   5.875  0.1304  0.1788 -0.2706
17468W        W21768   3.367   6.931   8.810 -0.0027 -0.1593  0.1291
17469W        W21769   4.793   4.456   2.754 -0.2481  0.3190 -0.4432
17470W        W21770  11.007   1.232   7.009  0.2885  0.0715 -0.1429
17471W        W21771  16.320   4.123   1.332  0.0770 -0.1740 -0.0048
17472W        W21772  21.167   4.432  22.183  0.2408 -0.1139  0.0117
17473W        W21773   4.139   7.581  21.177  0.0194 -0.1507 -0.0379
17474W        W21774  16.417   2.308   3.921 -0.0214 -0.0557  0.0134
17475W        W21775  16.880   6.940  23.163 -0.0548 -0.1129  0.0273
17476W        W21776  15.196   3.760   0.415  0.0812 -0.1903  0.2212
17477W        W21777  11.966   0.465   1.394  0.0739  0.0092  0.1461
17478W        W21778  14.083   0.360   9.089 -0.2386  0.1452 -0.0372
17479W        W21779  29.304   6.930  24.738  0.0420  0.0274  0.1118
17480W        W21780  29.228   7.168   0.401 -0.1145  0.0401 -0.2094
17481W        W21781   4.322   0.178  21.982  0.0114 -0.0043  0.3656
17482W        W21782   3.031   3.071  22.049  0.1418  0.1360 -0.1623
17483W        W21783  13.260   6.763   4.027 -0.1698  0.2236  0.1563
17484W        W21784  16.761   1.788   3.691 -0.0064  0.1926  0.0864
17485W        W21785   5.049   3.604   5.750  0.1453 -0.1552  0.0926
17486W        W21786  25.733   2.454  10.083  0.1586  0.0976  0.2622
17487W        W21787  13.632   4.572   2.816  0.6071  0.3040 -0.2580
17488W        W21788  13.949   4.184  16.012  0.1362 -0.2114 -0.2939
17489W        W21789  30.315   7.691  10.885 -0.0480 -0.2017  0.2718
17490W        W21790   3.253   3.904   3.101 -0.1617 -0.4017  0.0811
17491W        W21791  10.923   4.552   4.731  0.1443  0.1125  0.0358
17492W        W21792  13.080   1.092  19.888 -0.2369 -0.0149  0.0499
17493W        W21793  16.457   0.006  17.951 -0.3846 -0.3451  0.2196
17494W        W21794   9.947   6.823  11.292 -0.0977  0.0412  0.0990
17495W        W21795  14.055   0.065   8.172  0.1648 -0.1740  0.0583
17496W        W21796  23.540   0.880   9.589  0.3143  0.1138  0.0399
17497W        W21797  12.486   1.065   1.563  0.1444 -0.0551 -0.4670
17498W        W21798  22.110   6.854  18.782  0.2513  0.2100 -0.0743
17499W        W21799  26.539   6.783   0.230 -0.2668  0.1527 -0.1704
17500W        W21800   4.370   7.416  23.192 -0.1515 -0.2108  0.2653
17501W        W21801  13.353   3.612  25.411  0.2285 -0.3290  0.2800
17502W        W21802   6.667   3.739  10.380  0.2990 -0.1383  0.2483
17503W        W21803  25.835   2.935   7.023  0.0997 -0.1560  0.0767
17504W        W21804   0.987   0.887   1.581 -0.2078 -0.3377 -0.0065
17505W        W21805  30.569   5.914  20.542 -0.0147 -0.0620  0.2592
17506W        W21806   0.313   0.960  10.104  0.2489 -0.0298 -0.1097
17507W        W21807  22.362   6.460  18.556  0.0279 -0.0437  0.0850
17508W        W21808  13.931   4.942  25.746  0.0659 -0.1819  0.3004
17509W        W21809  16.117   5.838  18.747  0.0194 -0.0440 -0.0368
17510W        W21810   6.573   6.065   7.551  0.2510 -0.2532 -0.2151
17511W        W21811   0.977   7.192  20.673  0.2315 -0.3059  0.0461
17512W        W21812  23.476   4.116  18.899 -0.0299  0.0438 -0.1464
17513W        W21813   1.514   1.035   3.170  0.0976  0.1237 -0.0272
17514W        W21814  21.451   2.771  22.823 -0.0553 -0.0632 -0.1518
17515W        W21815  25.104   2.912  25.584  0.0542  0.4277 -0.2520
17516W        W21816   8.932   4.855  19.557  0.1729 -0.0350 -0.2314
17517W        W21817  21.965   0.487   3.025  0.1925 -0.1971 -0.1675
17518W        W21818   8.864   0.421  15.377  0.0089  0.0027  0.0670
17519W        W21819   5.416   3.621   9.707  0.0215  0.1729  0.0788
17520W        W21820   3.515   4.942  18.047  0.0911  0.0849  0.0128
17521W        W21821  20.209   5.684   4.736 -0.0313 -0.1757 -0.0881
17522W        W21822  12.529   1.778   7.377 -0.0700  0.1458 -0.2636
17523W        W21823  21.116   3.646  10.617  0.0486 -0.2096  0.0970
17524W        W21824  27.954   1.083  16.426  0.0811  0.0689 -0.0678
17525W        W21825  21.466   3.659  23.261  0.2247  0.1739  0.2553
17526W        W21826   2.202   2.944  25.241  0.0564 -0.1602  0.0010
17527W        W21827  22.933   2.966   5.911 -0.0592 -0.0442 -0.0236
17528W        W21828  21.685   7.489  16.324  0.1576  0.0039 -0.2376
17529W        W21829  27.315   1.852   0.081  0.1452  0.0503 -0.2515
17530W        W21830  24.572   1.959   8.937  0.0013 -0.2431  0.0620
17531W        W21831  10.041   0.701  20.686 -0.2720 -0.1465 -0.0278
17532W        W21832  16.529   5.900  20.052 -0.2063  0.4681  0.0083
17533W        W21833  14.527   6.417  18.314 -0.1380 -0.2767 -0.1479
17534W        W21834   6.540   6.013  26.189 -0.2648  0.1315 -0.2717
17535W        W21835  26.884   5.677   3.943 -0.0484 -0.0704  0.1202
17536W        W21836  13.776   4.280  25.063 -0.0237  0.2636 -0.0495
17537W        W21837  15.306   3.146   4.356  0.1646  0.1568 -0.0758
17538W        W21838  20.837   5.681  23.515  0.0575 -0.0121  0.1955
17539W        W21839   1.338   7.341   2.596 -0.1350  0.1159  0.2657
17540W        W21840  30.037   0.526   9.673  0.0845  0.0204 -0.0567
17541W        W21841  21.364   1.798   2.639  0.1725  0.1305 -0.0036
17542W        W21842  30.722   5.718   6.141  0.0172  0.0202  0.0087
17543W        W21843   9.730   0.282   0.890 -0.0172  0.0241 -0.0856
17544W        W21844  12.314   3.647  16.413 -0.1487 -0.3067  0.4442
17545W        W21845   2.572   7.255   3.786  0.0435  0.0507  0.2863
17546W        W21846  22.753   7.407  17.267 -0.0742  0.2115  0.2620
17547W        W21847  23.089   0.694   5.335 -0.0907  0.0013 -0.2208
17548W        W21848   9.643   7.584   0.604 -0.2081 -0.1455 -0.1052
17549W        W21849   6.302   2.456  23.770  0.0860  0.1017  0.0385
17550W        W21850  10.458   3.744   5.098  0.1812 -0.1259 -0.2440
17551W        W21851  27.196   2.139  24.753 -0.2720  0.1844 -0.0553
17552W        W21852  27.887   3.763   1.580  0.4010  0.0756  0.1670
17553W        W21853  21.846   1.492  18.094  0.0119 -0.0397  0.0516
17554W        W21854  26.542   0.897  15.922 -0.1324  0.3153  0.0183
17555W        W21855  22.026   1.585   5.050  0.0726 -0.0558  0.3980
17556W        W21856  10.002   6.135  25.662  0.1644 -0.1075 -0.2495
17557W        W21857  16.029   7.101  25.967 -0.0294  0.0251  0.1900
17558W        W21858  27.102   4.716   3.976 -0.0264 -0.1193 -0.1237
17559W        W21859  16.186   2.077  19.178 -0.0770 -0.1489 -0.2739
17560W        W21860  30.457   4.901   0.794 -0.3936 -0.0498  0.0895
17561W        W21861  29.193   4.144  23.104 -0.0992 -0.0510 -0.0397
17562W        W21862   0.417   6.811   1.914  0.1009 -0.2701 -0.0361
17563W        W21863  22.699   7.363  22.472  0.1901  0.2479 -0.1007
17564W        W21864  23.852   0.206   6.164 -0.0308 -0.1843 -0.1442
17565W        W21865   4.391   0.513  22.720  0.1130 -0.0762  0.1123
17566W        W21866  24.053   1.169   8.959  0.1604 -0.1482  0.0765
17567W        W21867  23.808   1.284  19.244 -0.1369 -0.0586  0.0876
17568W        W21868   1.045   7.208   8.308  0.1386 -0.0602 -0.0952
17569W        W21869  30.397   3.351  22.676  0.0169  0.2307  0.0523
17570W        W21870   4.618   4.347  25.016 -0.0572 -0.0725  0.0028
17571W        W21871   0.408   3.181  15.766 -0.0935 -0.1458  0.1579
17572W        W21872  20.740   6.703  18.120 -0.1815 -0.4880  0.1786
17573W        W21873  18.704   1.724   2.637  0.0976  0.2371 -0.1303
17574W        W21874   3.216   2.832   4.555 -0.1624 -0.2663 -0.0169
17575W        W21875  28.557   4.859  24.311 -0.1018  0.1562  0.1173
17576W        W21876   6.862   0.917  25.005  0.0475  0.2283  0.2230
17577W        W21877   7.187   4.525  21.096  0.0199  0.0284 -0.0095
17578W        W21878  16.994   4.959   1.143  0.1052 -0.2223 -0.2135
17579W        W21879   1.588   0.260  18.306 -0.1757 -0.1799 -0.3104
17580W        W21880  28.045   1.232  18.028  0.0955 -0.1396  0.0390
17581W        W21881  27.336   4.628   8.190 -0.0933  0.0011  0.3112
17582W        W21882  20.238   5.229   8.490  0.0353 -0.2712  0.1246
17583W        W21883   0.503   0.725  23.955  0.3692  0.1304 -0.2235
17584W        W21884  26.005   1.241   9.196 -0.2841  0.2674  0.0106
17585W        W21885  24.804   0.329  24.283 -0.0619 -0.3773 -0.1846
17586W        W21886  17.308   1.652   5.144 -0.0610 -0.3181  0.3307
17587W        W21887   3.970   0.650  23.058 -0.2010 -0.3196 -0.2017
17588W        W21888   2.313   6.256   7.257  0.0156  0.0769  0.1759
17589W        W21889   9.485   0.581  17.563 -0.0159  0.0999  0.0492
17590W        W21890  21.501   5.019   7.537  0.0759 -0.0961 -0.0861
17591W        W21891   0.977   3.668  25.937 -0.1331 -0.1442  0.5666
17592W        W21892  17.654   5.940  17.440 -0.0641  0.2514 -0.2360
17593W        W21893  16.820   1.098   6.248 -0.1924  0.2106 -0.1614
17594W        W21894   8.628   1.284  17.367  0.3862  0.1585 -0.1243
17595W        W21895  20.819   4.176  16.656  0.2635 -0.1675  0.2486
17596W        W21896  16.736   6.732  15.712 -0.0064 -0.2755  0.3775
17597W        W21897  23.953   3.417   7.216  0.0018  0.1768 -0.1821
17598W        W21898   3.654   5.306   9.931 -0.0780  0.3026  0.3653
17599W        W21899   9.447   7.000   4.066 -0.0365 -0.1966  0.1760
17600W        W21900  17.709   4.209  23.190  0.1922  0.1363 -0.1647
17601W        W21901  23.450   1.863  21.455  0.2385 -0.1364 -0.0377
17602W        W21902  14.025   1.687  20.022  0.1641 -0.3277  0.0459
17603W        W21903   4.893   0.719  19.597  0.0604  0.0034 -0.2560
17604W        W21904   8.078   5.347   6.037  0.1238 -0.3942  0.0996
17605W        W21905  24.077   5.087  21.549  0.1428  0.1202  0.1681
17606W        W21906  13.220   2.918   2.520  0.1178  0.1080 -0.0701
17607W        W21907  20.819   3.624  16.570  0.0873 -0.0604  0.0159
17608W        W21908   7.382   6.251   2.134 -0.0328  0.1698 -0.1710
17609W        W21909   4.740   0.906  16.733 -0.0898 -0.0874  0.2122
17610W        W21910   8.140   2.279  16.895 -0.0676 -0.2915  0.1045
17611W        W21911  20.122   7.499   7.835 -0.2653  0.1413 -0.3134
17612W        W21912  23.670   4.092   0.997  0.0262 -0.2181 -0.1947
17613W        W21913  27.932   7.698  20.405 -0.2519 -0.1113  0.2504
17614W        W21914  25.452   4.630   4.039  0.0691  0.3565 -0.1514
17615W        W21915  16.004   7.181  18.579 -0.0184  0.2938  0.0238
17616W        W21916  25.235   0.793   4.156  0.0400 -0.1106  0.0186
17617W        W21917  12.856   6.123  25.566 -0.0090  0.2452 -0.0973
17618W        W21918  19.824   7.191  16.070 -0.0706 -0.0797 -0.0149
17619W        W21919  13.557   6.257   4.146 -0.2248  0.0427  0.0190
17620W        W21920   2.911   0.952  18.539 -0.0400 -0.1918 -0.1579
17621W        W21921  15.892   5.625   9.957 -0.1460 -0.0162 -0.3201
17622W        W21922  29.912   1.977   3.052 -0.1723 -0.0895  0.0795
17623W        W21923  10.114   7.354   6.525 -0.0878  0.4074 -0.0772
17624W        W21924  25.479   7.660   4.115 -0.0613 -0.0542  0.0419
17625W        W21925  30.775   4.884   3.816  0.0795  0.0053 -0.1862
17626W        W21926  27.025   0.638  25.097  0.1492 -0.1096  0.1659
17627W        W21927   3.737   3.789  19.032 -0.2703 -0.1163  0.0596
17628W        W21928  26.000   3.519  24.504 -0.0233 -0.0046 -0.0865
17629W        W21929  18.423   1.309   1.296  0.1818  0.0279  0.0561
17630W        W21930  29.834   4.539   0.567  0.6106 -0.1065  0.1281
17631W        W21931  19.569   5.149  17.643  0.3554 -0.0375 -0.0453
17632W        W21932   8.784   5.787  15.815  0.1662 -0.3815 -0.3020
17633W        W21933  15.235   6.956   7.386  0.1938 -0.1472 -0.1158
17634W        W21934  14.523   1.888  19.747  0.0265 -0.2244 -0.0012
17635W        W21935  14.256   3.800   1.500 -0.0172  0.0605  0.0133
17636W        W21936   7.610   0.263   7.196  0.0782 -0.0632 -0.0368
17637W        W21937  22.979   6.238   1.022  0.2631 -0.0892 -0.0363
17638W        W21938  13.202   3.205  22.362  0.1584  0.0404  0.0656
17639W        W21939  30.292   0.117   3.710 -0.4200  0.0831 -0.0312
17640W        W21940  16.899   1.229  22.433  0.0233 -0.1965  0.0454
17641W        W21941  20.085   0.469  10.164 -0.0035  0.1629  0.3598
17642W        W21942   7.721   3.252  16.814  0.1140  0.3117  0.0615
17643W        W21943  10.261   3.164   2.336 -0.1138  0.1028 -0.0187
17644W        W21944   5.814   5.716   2.622  0.0351 -0.0434 -0.1253
17645W        W21945  11.979   5.640  18.590 -0.1028 -0.2584  0.2635
17646W        W21946   4.006   1.533   7.385 -0.1633  0.0340 -0.2298
17647W        W21947  28.975   0.018   0.499 -0.0069  0.0477 -0.0496
17648W        W21948  18.640   1.291   3.718 -0.1447  0.2591 -0.0350
17649W        W21949  24.290   2.534   4.611 -0.2022 -0.1708 -0.0018
17650W        W21950  24.024   1.479  10.693  0.0419  0.1729  0.2239
17651W        W21951  28.846   1.536  19.748 -0.1238  0.0796  0.0564
17652W        W21952  10.259   7.356   4.654 -0.0248 -0.2736  0.0556
17653W        W21953  15.602   6.733   4.379  0.0627 -0.1423  0.0353
17654W        W21954  26.348   0.737   2.474  0.1488  0.1518 -0.0266
17655W        W21955   0.614   4.341  25.785 -0.2812  0.1584 -0.2170
17656W        W21956  15.488   7.688  21.744 -0.0290  0.2542  0.2096
17657W        W21957   1.206   0.168  16.179 -0.0918  0.1054 -0.1634
17658W        W21958   8.980   5.405  16.094 -0.1201  0.0809  0.2494
17659W        W21959   4.641   0.913  21.595  0.2146  0.1902 -0.0494
17660W        W21960  28.214   5.008  11.359  0.4358 -0.0049 -0.2731
17661W        W21961  27.730   5.281  23.922  0.0079  0.0562 -0.0317
17662W        W21962   7.201   0.562   9.727  0.2484 -0.1934 -0.0323
17663W        W21963  13.524   2.155   9.456 -0.0008  0.4621  0.0980
17664W        W21964  11.563   7.050  20.958  0.0413 -0.1550  0.0628
17665W        W21965  19.578   5.429   2.004  0.3157  0.0580  0.0975
17666W        W21966  20.588   6.202  22.189  0.0241 -0.0713 -0.1613
17667W        W21967  22.422   7.139  11.268  0.2874  0.0067 -0.2721
17668W        W21968  25.227   1.337  22.384 -0.0080 -0.1761  0.0146
17669W        W21969  17.676   0.580  25.063 -0.2941 -0.3245  0.1158
17670W        W21970  21.824   6.452   1.608  0.0673  0.0010  0.2028
17671W        W21971   3.888   5.815   2.341 -0.1330  0.3595  0.0014
17672W        W21972   4.720   3.092  19.333 -0.0581  0.0152 -0.4711
17673W        W21973  23.607   1.969   2.337  0.1646 -0.0677 -0.1884
17674W        W21974   7.527   0.301  19.472 -0.1181  0.1794  0.5270
17675W        W21975  12.963   5.228   5.507 -0.1678 -0.0010  0.2348
17676W        W21976   8.906   5.156   3.444 -0.1532 -0.1678  0.1129
17677W        W21977  21.574   4.809   8.811 -0.0918  0.1890 -0.0355
17678W        W21978  22.614   1.893  11.291 -0.3267  0.0406 -0.4567
17679W        W21979  12.570   1.071  25.402  0.1488  0.1584  0.0659
17680W        W21980  27.352   3.301   4.186 -0.0586 -0.0515  0.4036
17681W        W21981  15.728   5.080  24.386  0.2122 -0.0074  0.0747
17682W        W21982  26.083   4.209   7.561  0.0719  0.4700 -0.0576
17683W        W21983  12.357   6.837  16.122 -0.0153 -0.0414  0.3646
17684W        W21984  13.679   6.792   3.781 -0.3446 -0.2276 -0.1503
17685W        W21985   1.203   1.340  10.818 -0.1770  0.1656  0.1435
17686W        W21986  18.195   2.303  22.233 -0.1354  0.1394  0.2607
17687W        W21987  20.072   0.458  18.658  0.0220 -0.1662  0.4114
17688W        W21988  13.602   0.632   6.207  0.1776 -0.2971  0.3597
17689W        W21989  19.072   0.904  23.359 -0.2782 -0.3460  0.1801
17690W        W21990  29.840   1.246  19.506 -0.1755  0.0171  0.0040
17691W        W21991  13.641   6.502   0.387  0.1265  0.0838  0.0484
17692W        W21992  29.574   5.899  10.039  0.2379  0.0580  0.2596
17693W        W21993  10.545   2.246   6.699 -0.3457 -0.1789  0.1259
17694W        W21994  23.679   4.998   2.263  0.0915  0.0549  0.2438
17695W        W21995   0.686   6.103  15.353 -0.1217  0.0994 -0.1131
17696W        W21996  10.920   0.379  23.765 -0.3929  0.0355  0.0724
17697W        W21997   1.003   0.329  24.951  0.1346  0.0273  0.1440
17698W        W21998  18.007   2.975  23.320  0.1679 -0.0281 -0.2300
17699W        W21999  17.261   3.749   6.407 -0.3566  0.0410  0.1407
17700W        W22000  13.393   3.680  16.183  0.1509 -0.0398  0.1206
17701W        W22001  15.772   6.220   4.975 -0.0004 -0.3956 -0.0869
17702W        W22002  12.978   0.330  18.649 -0.3908  0.0203  0.2575
17703W        W22003   6.910   3.628  19.417 -0.1556 -0.0723 -0.0711
17704W        W22004   6.737   7.422  16.947 -0.3001  0.5403 -0.4070
17705W        W22005  11.504   1.364  20.667  0.3156  0.2139 -0.1049
17706W        W22006  21.631   4.141   3.080  0.1104 -0.2966 -0.0655
17707W        W22007  21.608   4.057  16.384 -0.3119 -0.1013  0.0860
17708W        W22008  19.126   2.550  16.854 -0.0073 -0.0125  0.1741
17709W        W22009  12.259   6.241   7.146 -0.1857  0.0604 -0.3166
17710W        W22010   4.735   3.030  18.189 -0.1387  0.3707 -0.0479
17711W        W22011  20.591   5.084   2.981 -0.0854 -0.1950 -0.3296
17712W        W22012  17.202   7.189  22.422 -0.0002  0.3124  0.0086
17713W        W22013   5.740   3.948  25.596 -0.1081  0.0461 -0.1232
17714W        W22014  14.246   6.347  17.355  0.1531  0.0063 -0.0195
17715W        W22015   1.861   2.713   9.226 -0.3021 -0.2655  0.0589
17716W        W22016  19.810   0.488   5.381 -0.0532 -0.1097  0.1365
17717W        W22017   6.795   1.487   9.983  0.2259 -0.2361  0.0451
17718W        W22018  20.948   3.930  10.205  0.0385  0.0976 -0.1377
17719W        W22019  18.388   6.889   6.341 -0.1018 -0.0567 -0.2489
17720W        W22020  19.261   2.722   2.475 -0.2141  0.3410  0.0221
17721W        W22021   6.412   2.905   8.882 -0.2993 -0.0987 -0.1449
17722W        W22022  22.472   6.132   8.112 -0.1828  0.2311  0.2836
17723W        W22023  29.770   2.364  20.782  0.1035 -0.0465 -0.2776
17724W        W22024   6.729   1.490  20.142  0.3126  0.1451 -0.0075
17725W        W22025   9.589   3.991   0.267  0.1242 -0.2851  0.0574
17726W        W22026  30.851   7.033   8.233  0.1174 -0.1405 -0.1241
17727W        W22027  19.148   3.377  18.989  0.0637  0.1428  0.0865
17728W        W22028  11.692   5.589   5.076 -0.3805 -0.1797  0.3337
17729W        W22029   3.519   4.132  24.622 -0.2028  0.1810 -0.0839
17730W        W22030  13.642   2.839  22.726  0.2799 -0.0073 -0.1298
17731W        W22031  31.123   7.718   5.472  0.0838  0.0863  0.3057
17732W        W22032  17.424   6.669   0.553  0.2775 -0.0726  0.3196
17733W        W22033   4.160   1.298  17.667  0.1750  0.1969  0.1704
17734W        W22034  13.016   5.368   0.171 -0.0072  0.1058  0.3299
17735W        W22035  17.607   7.132   7.972 -0.2736  0.1716 -0.3442
17736W        W22036  26.812   1.456  16.675  0.2828 -0.2044 -0.0528
17737W        W22037   6.794   6.289   4.152 -0.1232  0.0612  0.1678
17738W        W22038   8.000   0.777   9.549 -0.3186  0.2019  0.0447
17739W        W22039  30.691   5.078   7.061  0.1886  0.0033 -0.3435
17740W        W22040  10.580   3.491   8.265 -0.0473  0.3072  0.2215
17741W        W22041   1.404   3.031  21.247  0.1047 -0.1831  0.0150
17742W        W22042  30.246   3.918  23.328 -0.1975 -0.0494  0.0830
17743W        W22043  16.232   7.147   2.390  0.2333 -0.0641  0.1966
17744W        W22044  22.071   5.423  23.710  0.3202  0.0827 -0.1724
17745W        W22045  30.268   6.605  20.779  0.4728  0.1851  0.2959
17746W        W22046  31.049   0.845   0.338 -0.0748  0.1437 -0.0495
17747W        W22047   1.288   4.520   7.498  0.0304  0.0490  0.3431
17748W        W22048  25.142   7.085  21.958  0.0444 -0.1212  0.1598
17749W        W22049  14.857   3.977   6.918 -0.2152  0.1530  0.0289
17750W        W22050   7.935   7.156  24.334 -0.1077  0.0402 -0.0736
17751W        W22051   3.816   1.244   5.552  0.0223  0.3265  0.1454
17752W        W22052  19.597   7.352   5.292 -0.1446  0.0171 -0.0642
17753W        W22053  18.522   2.950   3.059 -0.0804  0.0020 -0.1582
17754W        W22054   3.453   2.226   8.671  0.1097 -0.2208  0.2549
17755W        W22055  14.180   2.225  25.952 -0.0138 -0.1942  0.2876
17756W        W22056  29.818   1.092   9.543 -0.4129 -0.1112 -0.0100
17757W        W22057  26.167   3.750  16.024 -0.2203  0.1325  0.1438
17758W        W22058  22.870   2.448  18.293  0.2832 -0.0500 -0.1229
17759W        W22059  30.322   0.356   6.679 -0.1281 -0.2633  0.0560
17760W        W22060   9.664   4.661   6.971  0.0008  0.0942  0.1971
17761W        W22061  20.575   3.321  25.187  0.0392  0.0880 -0.0762
17762W        W22062   6.021   3.763   7.887  0.2127  0.2510 -0.3327
17763W        W22063  18.020   4.445   7.778  0.0985 -0.0926 -0.2513
17764W        W22064  29.116   1.116   7.692 -0.1451 -0.0282 -0.3549
17765W        W22065  22.066   3.466   6.771  0.0201 -0.1365 -0.2081
17766W        W22066  10.021   1.135   3.100  0.0650 -0.1360  0.1777
17767W        W22067  26.701   1.825   1.655 -0.0289 -0.3156  0.0189
17768W        W22068   9.746   4.619   1.930 -0.2824 -0.1909  0.0490
17769W        W22069  15.232   6.167   3.108  0.3040 -0.0553 -0.1213
17770W        W22070  23.840   7.328   8.009  0.0716 -0.0150  0.0124
17771W        W22071  24.902   6.295   6.987  0.0415 -0.1038 -0.2600
17772W        W22072   9.569   4.311  20.684  0.1726 -0.2106 -0.1957
17773W        W22073   3.537   1.815   2.156 -0.1995 -0.1450 -0.0208
17774W        W22074  18.221   6.176   1.489 -0.0832  0.2794 -0.0376
17775W        W22075  27.706   0.467  10.093 -0.0651 -0.0252  0.3731
17776W        W22076  17.941   0.942   1.402  0.0185 -0.0750  0.0822
17777W        W22077  10.830   5.014  16.142 -0.0459  0.2704  0.1880
17778W        W22078  12.738   3.857  22.815  0.0625  0.0968 -0.1996
17779W        W22079  16.104   3.970  20.920 -0.3272 -0.0275 -0.0902
17780W        W22080  16.191   6.795  20.465 -0.1563 -0.0173 -0.2605
17781W        W22081   4.717   5.822  18.734  0.3765 -0.0702  0.0406
17782W        W22082  23.327   2.247   2.640 -0.2747  0.1726 -0.2424
17783W        W22083  15.475   2.243  24.499 -0.1273 -0.1433  0.0234
17784W        W22084   8.817   4.226  16.340 -0.2540 -0.1397  0.1243
17785W        W22085   4.929   3.758  20.431  0.1606 -0.0749  0.2057
17786W        W22086   5.752   5.028   0.388 -0.5962  0.1282  0.0951
17787W        W22087   3.327   6.221  22.621 -0.0373 -0.0639  0.1721
17788W        W22088  18.215   1.143  24.313 -0.0970  0.0966 -0.1735
17789W        W22089  28.437   5.931   9.590  0.0834 -0.0371 -0.0242
17790W        W22090  16.190   5.614  25.261  0.1448  0.1577  0.2921
17791W        W22091  21.533   0.388  24.765 -0.0129  0.1470  0.0914
17792W        W22092  30.419   5.401   2.489  0.1555 -0.1590 -0.1909
17793W        W22093  19.626   5.727   6.820 -0.0300 -0.1876  0.0650
17794W        W22094  10.897   2.947  21.345 -0.3306  0.2857 -0.1853
17795W        W22095   2.215   0.193  20.172  0.0873  0.0710 -0.3115
17796W        W22096  24.684   6.378  21.688  0.0192 -0.1427 -0.2562
17797W        W22097   2.278   2.506   1.219 -0.0650  0.0204  0.0282
17798W        W22098  30.423   4.652   9.004  0.0299  0.2970  0.0743
17799W        W22099  11.867   5.570  22.027 -0.0277 -0.0509  0.1185
17800W        W22100  27.711   5.451  22.578 -0.0159  0.0322  0.4203
17801W        W22101  29.540   6.693   3.493  0.0437 -0.3095  0.0851
17802W        W22102  10.017   0.493   8.600  0.1201 -0.0477  0.1136
17803W        W22103   8.619   0.256   9.468 -0.1209  0.2155 -0.1498
17804W        W22104   4.112   3.404  25.845 -0.1400  0.1480 -0.1478
17805W        W22105  17.958   5.528  20.414  0.2635 -0.1521 -0.0441
17806W        W22106   6.089   4.911   8.923  0.2332 -0.3063  0.0681
17807W        W22107  28.516   1.313   3.314  0.2279 -0.4354 -0.0536
17808W        W22108  13.469   4.440  10.578  0.2524 -0.1601  0.0833
17809W        W22109   6.912   0.267  20.585  0.1431 -0.0526  0.4005
17810W        W22110   8.272   6.649   2.979  0.2516 -0.0282  0.3453
17811W        W22111  21.569   4.181   7.759 -0.0040 -0.1173 -0.2337
17812W        W22112  22.686   5.263   9.625 -0.1585  0.1952 -0.1753
17813W        W22113   1.065   6.763  20.195 -0.0054  0.1070 -0.1823
17814W        W22114  18.680   5.104  23.434 -0.1014  0.3385 -0.0746
17815W        W22115  21.885   6.988  23.054 -0.0433 -0.0266 -0.0306
17816W        W22116   4.135   4.897   3.460 -0.0806 -0.1428 -0.1470
17817W        W22117   4.251   4.624  19.139 -0.0304 -0.0451 -0.0081
17818W        W22118  21.277   3.314  21.905 -0.0373  0.0383  0.3184
17819W        W22119  30.054   7.201  20.553 -0.0978  0.4231  0.1602
17820W        W22120  25.389   3.387  22.673 -0.0780 -0.4748  0.0046
17821W        W22121  10.943   0.299   4.124  0.4143 -0.0961 -0.1938
17822W        W22122  13.908   6.654   9.631 -0.0444 -0.0059 -0.2058
17823W        W22123  29.505   5.328  11.200  0.0011 -0.0587  0.0764
17824W        W22124  15.883   7.384  21.666 -0.2301  0.2200  0.2476
17825W        W22125   6.157   7.639   5.336  0.2234 -0.1596 -0.0866
17826W        W22126  26.076   2.515  19.818 -0.0757  0.0677 -0.0541
17827W        W22127   4.235   4.553   6.548  0.2656  0.2691 -0.0612
17828W        W22128   3.399   3.464  18.511 -0.0588  0.0161  0.3022
17829W        W22129  26.530   5.965  17.971  0.4202  0.0305  0.0744
17830W        W22130  13.503   1.136   2.813 -0.0315  0.0091 -0.3874
17831W        W22131  25.141   1.203   3.885  0.2211  0.1922  0.0782
17832W        W22132  26.901   0.382  19.056  0.0701  0.0971 -0.0905
17833W        W22133  31.080   2.583  25.391 -0.2117 -0.1057 -0.0363
17834W        W22134   2.923   2.951   2.917  0.0787 -0.0484 -0.1212
17835W        W22135   8.772   4.767   4.295 -0.1505  0.2902  0.1847
17836W        W22136   1.435   6.924  19.047  0.2491 -0.1593 -0.1853
17837W        W22137  24.634   0.883  18.983 -0.1734 -0.0030 -0.1840
17838W        W22138  19.295   5.610   0.897 -0.2070 -0.0646 -0.2222
17839W        W22139   3.855   6.313  25.023 -0.2037  0.0600  0.3278
17840W        W22140  19.252   7.245  19.115  0.0558  0.2792  0.1923
17841W        W22141   0.335   2.470  16.917 -0.1761 -0.1156  0.0385
17842W        W22142  17.545   6.753   1.041 -0.4548  0.1057 -0.0868
17843W        W22143  20.632   1.116  16.783 -0.0725  0.1415  0.1036
17844W        W22144  27.881   1.335   5.867 -0.4319  0.0737  0.2620
17845W        W22145  15.550   2.959  14.770 -0.0907 -0.1334  0.1233
17846W        W22146   0.767   3.056  17.476 -0.0752 -0.0058  0.5283
17847W        W22147  10.329   2.344  26.392  0.0523  0.0778  0.3892
17848W        W22148  25.850   7.009   2.022 -0.2326  0.0947 -0.1146
17849W        W22149  12.678   2.981   8.537 -0.2279  0.0341  0.0461
17850W        W22150  12.642   2.861   3.277  0.1997  0.0696 -0.1824
17851W        W22151  24.326   5.936  22.319 -0.1029 -0.1887 -0.0047
17852W        W22152  26.591   7.493   5.271 -0.0294 -0.1140 -0.1113
17853W        W22153  17.778   7.168  20.307 -0.0537 -0.1222 -0.0508
17854W        W22154  24.783   3.613  18.969  0.2523  0.0436 -0.0156
17855W        W22155  18.906   3.577   5.157 -0.1648  0.0894 -0.0314
17856W        W22156   1.401   5.999  18.036 -0.0118 -0.2945 -0.1944
17857W        W22157  12.462   4.709  21.601  0.1586 -0.0312 -0.1216
17858W        W22158  21.462   7.606  18.554  0.0614 -0.2355  0.0774
17859W        W22159  15.763   4.216  19.704  0.1539  0.2198 -0.3757
17860W        W22160   9.234   1.307  11.042  0.0306  0.7223  0.1867
17861W        W22161  10.070   1.111   0.376  0.2021 -0.0653 -0.1679
17862W        W22162   9.468   1.678   1.078  0.1851  0.0938  0.1213
17863W        W22163  29.606   6.693  21.886  0.3678  0.0942 -0.0182
17864W        W22164  25.489   2.213   2.881 -0.1602 -0.3243  0.2856
17865W        W22165  22.127   5.658  11.677 -0.0037  0.1925 -0.1103
17866W        W22166  20.329   3.375  17.658 -0.4118 -0.2113 -0.2553
17867W        W22167  29.306   7.618   0.159 -0.0101 -0.0023  0.1174
17868W        W22168  20.604   6.331   7.810  0.1374 -0.2505  0.0893
17869W        W22169  27.719   1.427  16.176 -0.2307 -0.0785 -0.2033
17870W        W22170   2.004   4.648  20.953  0.2215  0.0988  0.0549
17871W        W22171  23.563   6.193  19.771 -0.1155 -0.1296 -0.4988
17872W        W22172   5.824   0.260   7.814 -0.2259 -0.1168 -0.1439
17873W        W22173  17.603   6.634   2.011 -0.1312 -0.1692  0.1823
17874W        W22174   2.767   2.412   0.972 -0.0226  0.1524 -0.0098
17875W        W22175  20.408   0.094  16.653 -0.1493  0.1320 -0.0396
17876W        W22176  30.802   2.476  20.771 -0.2077  0.1219 -0.2674
17877W        W22177   9.725   1.491  22.965  0.1300  0.0181 -0.1425
17878W        W22178   0.524   6.442   8.683  0.2636 -0.0270  0.0822
17879W        W22179  21.594   4.987   2.208 -0.1760  0.1955 -0.0290
17880W        W22180  17.725   1.288   9.672  0.1889 -0.1076  0.2328
17881W        W22181   3.778   4.152   0.194  0.3155  0.2547  0.1719
17882W        W22182   6.003   5.548  17.695 -0.0073 -0.1623  0.0560
17883W        W22183  30.938   2.555   6.312  0.3400 -0.1342  0.0222
17884W        W22184  30.355   5.449   2.986  0.0725 -0.0240 -0.0631
17885W        W22185  20.667   0.401   6.461 -0.0366  0.2790 -0.0929
17886W        W22186  22.330   4.451  10.342  0.1401  0.2302 -0.2257
17887W        W22187  13.355   3.720   5.654 -0.2460 -0.0822  0.0593
17888W        W22188  28.647   0.405   0.393 -0.3558  0.0256  0.2030
17889W        W22189   2.844   4.190   3.936  0.2768  0.1228  0.2751
17890W        W22190   0.280   0.954  16.521 -0.3064 -0.0647  0.1270
17891W        W22191  17.134   4.285  10.601 -0.0886  0.5974 -0.0113
17892W        W22192  17.342   3.450   9.663  0.0039 -0.2861  0.2138
17893W        W22193   8.217   7.182  25.213  0.3331 -0.1362  0.2307
17894W        W22194  20.167   3.232  19.342  0.0079  0.1309  0.4219
17895W        W22195   1.044   1.148  25.475 -0.0661 -0.0612  0.2528
17896W        W22196   9.193   6.246   2.708 -0.3123  0.2207 -0.2275
17897W        W22197  24.826   3.041  21.604  0.3197  0.0692 -0.0903
17898W        W22198   1.988   3.331   3.784  0.1575  0.0836 -0.0914
17899W        W22199  24.277   4.252  20.408 -0.0954 -0.0899  0.1916
17900W        W22200  26.071   4.221   5.394 -0.1868  0.1783  0.2445
17901W        W22201  19.441   1.781  10.136  0.3211 -0.0631 -0.3032
17902W        W22202  17.257   5.502   4.231  0.1923 -0.0299  0.0005
17903W        W22203  30.796   4.067   0.634  0.1453  0.0312  0.0585
17904W        W22204   5.966   1.549  22.465 -0.2972  0.2594 -0.0117
17905W        W22205  25.174   1.968   0.849  0.0164 -0.0857 -0.1113
17906W        W22206  23.231   3.845  24.673  0.0644 -0.1772 -0.1402
17907W        W22207  19.726   7.115   1.523  0.0538  0.0393  0.3942
17908W        W22208  11.896   3.906  23.191 -0.0965 -0.1445 -0.0962
17909W        W22209   7.129   0.532  17.655  0.4094  0.0108  0.1032
17910W        W22210  21.625   2.589  20.395 -0.0218 -0.1101  0.0443
17911W        W22211  23.383   1.558  19.520 -0.3038  0.4934  0.2008
17912W        W22212  29.219   7.252   9.330 -0.0177 -0.1508  0.0071
17913W        W22213  26.201   1.278   4.209 -0.3708  0.3759  0.1686
17914W        W22214  18.943   6.724  18.514  0.0769  0.0157  0.0107
17915W        W22215  12.711   2.867  26.139  0.0950 -0.2509 -0.1606
17916W        W22216  22.721   5.162   0.022  0.0071  0.0499  0.0607
17917W        W22217  12.233   4.159   1.572  0.1118  0.0173 -0.0383
17918W        W22218  29.027   3.413  19.226  0.1316  0.0125  0.0827
17919W        W22219  23.849   5.752   7.738  0.1258 -0.3214 -0.3690
17920W        W22220  14.282   1.345   8.270  0.2565 -0.3085  0.1043
17921W        W22221   9.897   2.264  25.871 -0.1433  0.1450 -0.3589
17922W        W22222  21.044   3.658  23.780  0.1205 -0.0906  0.0897
17923W        W22223  17.272   1.440  18.818 -0.0054  0.0449 -0.0630
17924W        W22224  15.143   4.742  20.312  0.1621  0.1649 -0.0382
17925W        W22225  26.486   1.913  23.604 -0.1740  0.0380 -0.1591
17926W        W22226   1.550   6.660   3.597 -0.0675 -0.0050 -0.0305
17927W        W22227   5.166   5.986  17.658 -0.0479 -0.0228 -0.4168
17928W        W22228  12.238   1.760  23.234  0.0767  0.1624 -0.1233
17929W        W22229  23.744   0.756  20.413 -0.0478  0.1010  0.1284
17930W        W22230  29.696   6.415  17.046  0.2194 -0.0382  0.1242
17931W        W22231  20.692   3.794  18.971 -0.1713 -0.0658  0.3737
17932W        W22232  27.681   6.415   3.664  0.3155  0.0857  0.0092
17933W        W22233   5.873   0.212   8.813  0.1122 -0.1230  0.1501
17934W        W22234   6.938   6.164   5.469  0.0529  0.2032  0.0214
17935W        W22235  28.856   2.309  17.429  0.0141  0.0862  0.1303
17936W        W22236  29.775   4.868   3.514 -0.1443 -0.2463 -0.1916
17937W        W22237  18.880   4.325  24.451  0.1292  0.2663  0.0353
17938W        W22238  13.001   0.519   8.570  0.1076 -0.0111  0.3421
17939W        W22239  14.813   4.842   5.120 -0.0661 -0.0525 -0.1993
17940W        W22240  26.986   7.018   8.994  0.0264  0.0439 -0.1802
17941W        W22241  21.205   2.783   2.483  0.0374  0.0466  0.1352
17942W        W22242  24.294   0.932  24.719 -0.0424 -0.1593 -0.3531
17943W        W22243   3.994   5.999   6.550 -0.1997  0.3717 -0.0910
17944W        W22244  21.017   1.332  25.854  0.1298 -0.0680 -0.1218
17945W        W22245  20.654   2.409   5.387  0.2019  0.1230 -0.0436
17946W        W22246  18.401   0.669   1.203  0.0203  0.1460 -0.2572
17947W        W22247   4.299   7.057  18.349 -0.2144 -0.0618 -0.1950
17948W        W22248  21.981   4.842   0.642  0.1183  0.0521 -0.0972
17949W        W22249  12.089   5.683   6.446 -0.0965  0.1870  0.0117
17950W        W22250  26.045   3.864  19.324  0.2331  0.0209 -0.1285
17951W        W22251  18.385   7.317   9.800  0.3666  0.1238  0.0462
17952W        W22252  29.188   0.226   6.326 -0.1756 -0.1426 -0.0536
17953W        W22253  25.853   0.770   2.388 -0.0122 -0.2269  0.1427
17954W        W22254  18.918   4.765   3.094  0.0813  0.0715 -0.2334
17955W        W22255  20.929   2.889  15.367 -0.2639  0.2154  0.2987
17956W        W22256   9.783   2.345   3.869  0.2349  0.2757  0.0085
17957W        W22257  10.147   7.056   9.102 -0.2773 -0.3024  0.2426
17958W        W22258   1.303   2.930  20.094  0.0710  0.0131 -0.1131
17959W        W22259  17.241   4.872   7.854 -0.5959 -0.0970  0.0524
17960W        W22260  23.427   3.453  16.357  0.2165 -0.0285  0.1476
17961W        W22261   5.303   0.422  15.974 -0.1236  0.2478 -0.1155
17962W        W22262  26.088   7.752  21.111 -0.0415  0.3086  0.1091
17963W        W22263  15.911   5.466   8.316 -0.1351  0.0371  0.1658
17964W        W22264  30.903   7.710   5.967 -0.3541 -0.1511 -0.1604
17965W        W22265  29.826   3.194   7.242 -0.2867 -0.1614 -0.0098
17966W        W22266  24.394   0.449  18.910 -0.3474 -0.2905  0.0227
17967W        W22267   1.187   2.932  24.577 -0.1999 -0.0906  0.2947
17968W        W22268  23.113   2.813  24.319  0.0545 -0.0433 -0.0718
17969W        W22269   6.164   7.119  25.876 -0.2735 -0.0052 -0.1045
17970W        W22270  13.144   0.864   7.560 -0.1262 -0.0863  0.3144
17971W        W22271  30.199   4.335   2.176  0.0012  0.1530 -0.1053
17972W        W22272  28.542   4.918   8.537  0.1088 -0.0464  0.2672
17973W        W22273   6.116   6.218  18.611 -0.0342  0.2125 -0.0687
17974W        W22274   3.213   6.779  20.175  0.0509 -0.0907  0.2177
17975W        W22275  22.848   4.968  18.800  0.1835  0.4438 -0.4508
17976W        W22276   1.986   6.969   4.861 -0.0867  0.2075  0.1911
17977W        W22277  25.432   2.692   8.412  0.1474 -0.0371 -0.0230
17978W        W22278  27.713   1.772   0.397 -0.1221  0.0547  0.0601
17979W        W22279  15.329   2.442  22.038  0.0349 -0.1775  0.0472
17980W        W22280  27.568   1.066   5.235 -0.1000 -0.1190 -0.0955
17981W        W22281   4.278   1.308   4.583  0.1143  0.0454  0.4898
17982W        W22282   2.636   3.277   5.004 -0.1038  0.0229 -0.0024
17983W        W22283  10.971   2.029   6.601 -0.1810 -0.0616 -0.0356
17984W        W22284  13.528   1.881  15.133 -0.1184 -0.0268 -0.2749
17985W        W22285  26.080   2.870  10.589 -0.0778 -0.0346 -0.1717
17986W        W22286  29.611   5.782  17.582 -0.1320  0.2461 -0.0303
17987W        W22287  18.619   1.591  26.005  0.0308  0.1598 -0.2310
17988W        W22288  21.135   6.710  23.686 -0.0051 -0.1478 -0.0808
17989W        W22289   7.369   6.789   3.397  0.3554  0.1466 -0.3582
17990W        W22290  12.735   6.873  22.220 -0.1717  0.0494 -0.0842
17991W        W22291  19.548   4.220   3.217  0.3398  0.1580  0.2800
17992W        W22292  26.061   1.234  23.146  0.1650 -0.0603 -0.0567
17993W        W22293  16.165   2.325  20.996 -0.0179  0.0136  0.1278
17994W        W22294  28.577   6.991   2.395  0.0792 -0.0257 -0.1508
17995W        W22295  16.858   0.624   4.353  0.0219 -0.2801 -0.0611
17996W        W22296   8.918   5.246   9.983  0.0157 -0.0279  0.1075
17997W        W22297  23.455   5.409  22.823  0.1121  0.0374  0.3742
17998W        W22298   0.669   3.284  10.878 -0.0821 -0.1081  0.0342
17999W        W22299  29.751   1.448  25.373  0.3901  0.3351  0.1176
18000W        W22300   1.404   3.807   3.062 -0.0379 -0.2331 -0.0376
18001W        W22301  29.618   1.276  15.446  0.1186 -0.0988 -0.0799
18002W        W22302  25.980   4.802   6.236 -0.0747 -0.0727 -0.0068
18003W        W22303  14.810   0.660  15.424  0.3277  0.3655  0.0647
18004W        W22304   1.152   4.225  24.483  0.0235 -0.0381 -0.2167
18005W        W22305  15.631   2.491  25.581  0.1887  0.0881  0.0551
18006W        W22306  15.051   0.772   2.905 -0.2602 -0.0005  0.0530
18007W        W22307  18.231   4.617  20.648 -0.0096 -0.1925 -0.1749
18008W        W22308   0.595   2.128  20.090  0.1055  0.1288 -0.0333
18009W        W22309   5.605   4.764  11.182  0.3588  0.1415 -0.1414
18010W        W22310  30.770   1.490  23.979  0.1495 -0.2664  0.1504
18011W        W22311   7.376   5.210  24.940 -0.3201  0.0156 -0.1471
18012W        W22312  26.006   1.476   6.594  0.1555 -0.2173 -0.0666
18013W        W22313  15.980   2.346  24.611 -0.0649  0.0879 -0.1271
18014W        W22314  29.922   3.819   5.329  0.2006  0.2106 -0.0539
18015W        W22315  27.640   3.495  15.627 -0.1495 -0.1060 -0.0387
18016W        W22316  21.673   1.324   3.641  0.0941 -0.0033  0.0765
18017W        W22317  16.793   6.168  17.174 -0.2393  0.0309  0.0630
18018W        W22318  21.508   6.786  19.674  0.1371 -0.2609  0.1400
18019W        W22319  26.780   2.500   3.612 -0.0827  0.1894 -0.1127
18020W        W22320  30.164   1.720  22.166  0.1145  0.2111  0.0624
18021W        W22321  28.511   5.917   8.150  0.0500  0.0835 -0.2767
18022W        W22322  21.475   4.530  23.683  0.3360 -0.0366 -0.1203
18023W        W22323  11.669   5.009  23.107 -0.3752 -0.1750 -0.0603
18024W        W22324  12.766   0.753   6.687 -0.1161  0.1185 -0.2181
18025W        W22325  17.328   0.790   5.318  0.1974  0.0565 -0.0683
18026W        W22326  14.575   1.868   7.596  0.1390 -0.1374 -0.0509
18027W        W22327   6.657   5.856   1.705 -0.0224  0.2903  0.1886
18028W        W22328  28.541   6.516   5.688  0.2712  0.0095 -0.0804
18029W        W22329  20.970   4.528   2.705  0.1449  0.4602 -0.0888
18030W        W22330  27.119   2.281  19.525  0.0559  0.0078 -0.1148
18031W        W22331  11.047   1.226  23.961 -0.0643 -0.1321 -0.1159
18032W        W22332   8.580   3.004   0.299  0.0490  0.0487  0.0319
18033W        W22333   9.738   0.630   9.692  0.1276  0.0168 -0.0347
18034W        W22334  25.599   6.841   0.336  0.3548 -0.1538 -0.2876
18035W        W22335  16.952   7.452   7.560 -0.2347 -0.2837  0.0678
18036W        W22336  22.493   1.504   6.040 -0.1691  0.0621 -0.1023
18037W        W22337   7.734   1.778  11.493 -0.2281  0.2149 -0.2025
18038W        W22338   7.846   4.430   7.743 -0.1549 -0.2475 -0.0362
18039W        W22339   2.592   2.126  21.117 -0.0433  0.1129 -0.0007
18040W        W22340   2.492   1.989  20.606  0.2818 -0.2522 -0.2430
18041W        W22341  16.386   0.448  23.287  0.0042  0.1257  0.2100
18042W        W22342  10.532   3.747   8.701  0.0936 -0.0225 -0.0488
18043W        W22343  26.069   4.334  11.014 -0.2858 -0.2623 -0.0278
18044W        W22344  27.147   6.327  10.666  0.0156  0.3590 -0.1043
18045W        W22345  11.419   0.840  10.916  0.2002 -0.2324 -0.0094
18046W        W22346  17.276   5.472  11.126  0.2001 -0.1087 -0.0368
18047W        W22347  13.586   4.980   3.045  0.2926 -0.1753  0.1002
18048W        W22348  17.895   7.355  26.360  0.0461 -0.1216 -0.2234
18049W        W22349  10.899   4.700   3.794 -0.0381  0.1287 -0.1152
18050W        W22350  23.418   4.990   1.484 -0.0805 -0.0384  0.2516
18051W        W22351   2.303   2.080  23.383 -0.1029  0.1836  0.1383
18052W        W22352  17.076   2.999   9.979  0.0479  0.1214  0.1619
18053W        W22353  10.645   2.958  17.218 -0.1012 -0.0569 -0.0113
18054W        W22354  11.670   5.097   8.164  0.1523  0.0048 -0.2128
18055W        W22355  11.937   1.325  21.734  0.1111 -0.1951  0.2229
18056W        W22356  20.184   5.550  24.294  0.0714 -0.0527 -0.0180
18057W        W22357  29.338   7.225  15.380 -0.1532  0.0057  0.2777
18058W        W22358  20.368   7.759  19.900 -0.0635  0.1515  0.3455
18059W        W22359  15.024   0.975  23.786  0.0320  0.0433 -0.1154
18060W        W22360   5.817   0.265  17.177 -0.2719 -0.0891  0.2218
18061W        W22361  25.074   4.853   5.865  0.1240  0.1045  0.2908
18062W        W22362  11.783   7.256  19.499  0.1939  0.1971 -0.2439
18063W        W22363   5.406   4.059  22.834  0.4293 -0.0463  0.1853
18064W        W22364  27.811   4.037  26.072  0.3406 -0.2511  0.0711
18065W        W22365  19.891   4.215   5.525 -0.0612 -0.0784  0.1926
18066W        W22366  21.854   4.620   4.943  0.1320  0.1734  0.0108
18067W        W22367  30.770   2.407   4.061  0.1103  0.0063  0.1493
18068W        W22368  26.188   2.098   8.452 -0.1374  0.1050  0.0617
18069W        W22369  25.154   5.024   6.341 -0.1454  0.0830 -0.0254
18070W        W22370  21.540   4.470  10.521 -0.1894 -0.2886  0.1188
18071W        W22371  26.103   7.253  25.469 -0.1346  0.0733  0.0284
18072W        W22372  15.381   3.512  22.750 -0.2999  0.0403  0.1507
18073W        W22373  14.041   0.401  17.483  0.1755 -0.1503 -0.0943
18074W        W22374  25.309   0.336  24.120 -0.2048 -0.1135 -0.1370
18075W        W22375  27.122   7.657   9.544  0.1023 -0.0390 -0.0146
18076W        W22376  10.778   0.982  25.115  0.0422  0.0270 -0.1870
18077W        W22377   3.497   0.279   5.877 -0.0032  0.2560  0.0194
18078W        W22378  14.419   5.968   8.538  0.0400 -0.1119 -0.1013
18079W        W22379  27.356   4.079   9.751  0.1608  0.0150  0.0795
18080W        W22380  28.571   3.132   0.282 -0.2584 -0.1108 -0.0360
18081W        W22381  18.400   6.478  17.761 -0.0620 -0.0709  0.0901
18082W        W22382   6.053   6.347   7.884 -0.0028  0.2015  0.0774
18083W        W22383  20.334   0.329  18.227 -0.0603 -0.1379 -0.0297
18084W        W22384  20.234   2.597  20.576  0.1060 -0.1516  0.1054
18085W        W22385  23.743   2.734   6.638 -0.2980 -0.1230 -0.0900
18086W        W22386   1.829   6.482  19.836 -0.0948 -0.1180 -0.2707
18087W        W22387   6.089   7.027  16.647  0.2195 -0.1413  0.3129
18088W        W22388  13.728   1.775  21.319 -0.0666  0.1786 -0.2552
18089W        W22389   9.136   5.278   7.656 -0.1534 -0.3591 -0.1907
18090W        W22390   6.821   4.217  25.632 -0.0495 -0.1184  0.2975
18091W        W22391   1.976   2.687   7.804  0.1031 -0.0315 -0.0880
18092W        W22392  29.081   5.222  23.930 -0.1620 -0.0220 -0.0228
18093W        W22393  17.035   1.911   3.284 -0.2364  0.0333  0.1241
18094W        W22394  26.703   7.478   0.443  0.0843 -0.2299 -0.0569
18095W        W22395  10.619   4.865  25.853  0.3205 -0.0416 -0.1512
18096W        W22396   4.766   4.513   6.395  0.2059  0.1032 -0.2435
18097W        W22397   3.885   6.654  21.385  0.0611  0.3317  0.1832
18098W        W22398  19.213   3.134   3.768 -0.3138 -0.1172 -0.4486
18099W        W22399  10.307   0.189   2.432  0.1518  0.2096  0.1064
18100W        W22400  19.203   1.164  24.688  0.1550 -0.0346  0.1394
18101W        W22401  22.215   6.633  25.927 -0.1557 -0.1321  0.0282
18102W        W22402  21.560   6.450   6.305 -0.1747 -0.0601 -0.0912
18103W        W22403  23.610   7.799   9.826  0.1307 -0.1601  0.2341
18104W        W22404   6.105   4.542  21.523 -0.2630 -0.0161  0.2273
18105W        W22405  29.910   4.199   4.586  0.2559 -0.2315 -0.0574
18106W        W22406   9.260   7.463   3.884 -0.1594 -0.2501  0.1855
18107W        W22407   8.977   7.226  25.808  0.1040 -0.5046  0.0343
18108W        W22408   7.618   6.709  18.371 -0.2340 -0.0456 -0.2452
18109W        W22409  21.890   1.607  25.386  0.1905  0.1304 -0.0130
18110W        W22410  19.693   1.008  24.563  0.3128  0.4954 -0.3510
18111W        W22411  25.390   3.673  10.355  0.0169 -0.1900 -0.1804
18112W        W22412   2.900   4.348   8.916 -0.1637 -0.1880 -0.2291
18113W        W22413  30.614   3.979   0.017 -0.1607 -0.2058  0.1208
18114W        W22414   1.072   3.746  19.575  0.1383  0.2590 -0.0531
18115W        W22415  17.849   1.796   2.849 -0.1233 -0.4421 -0.0824
18116W        W22416  26.238   4.805  18.036  0.1756  0.0216  0.0405
18117W        W22417  26.235   2.531   4.672  0.0103  0.2571 -0.1288
18118W        W22418   5.042   6.507  22.198 -0.2355 -0.1128  0.0449
18119W        W22419  23.923   6.959  22.882 -0.0574  0.1419 -0.1271
18120W        W22420  23.597   7.121   1.818  0.1334  0.4975 -0.3641
18121W        W22421   7.860   5.360  20.147 -0.0587 -0.1578 -0.1001
18122W        W22422  26.031   0.980  20.129  0.0416  0.0413  0.0378
18123W        W22423   9.214   3.057   4.033 -0.1650 -0.1149  0.2058
18124W        W22424  10.197   1.450  22.287 -0.0280  0.0088 -0.0396
18125W        W22425  15.169   5.211   4.970  0.0831  0.0047  0.2736
18126W        W22426  24.728   0.268   4.582 -0.2775 -0.1902 -0.2444
18127W        W22427  30.578   0.225  21.476 -0.2114  0.3019 -0.3248
18128W        W22428  18.932   2.424   1.238  0.2173 -0.2345  0.1699
18129W        W22429  25.882   2.054  10.968 -0.0612  0.1651 -0.5201
18130W        W22430   5.356   2.214  19.666 -0.2335 -0.3312 -0.1104
18131W        W22431  11.821   6.613   5.668  0.2028 -0.0194  0.0383
18132W        W22432  30.847   2.075   0.196  0.0131  0.2743 -0.0264
18133W        W22433  24.315   5.530   7.012  0.0301 -0.2994  0.0715
18134W        W22434  16.934   3.076  21.797  0.1425  0.1688 -0.1368
18135W        W22435  13.449   1.012  22.628  0.2127  0.1473 -0.1765
18136W        W22436   0.865   2.773  15.139  0.1636  0.1941 -0.0325
18137W        W22437   8.835   6.415   4.285  0.0268  0.0608 -0.2714
18138W        W22438  13.863   4.501   8.430 -0.0130 -0.0038 -0.1336
18139W        W22439   5.055   2.447  18.443  0.1023  0.2236  0.2096
18140W        W22440  17.544   0.740   1.625  0.0595  0.3341 -0.1660
18141W        W22441   1.221   2.514   3.039 -0.1215  0.0475 -0.3114
18142W        W22442   9.651   4.096   8.845  0.0300 -0.1918  0.3359
18143W        W22443   3.720   7.518  23.858 -0.2501 -0.3818 -0.0883
18144W        W22444  14.998   4.144  17.416 -0.3150  0.0435 -0.0346
18145W        W22445  11.400   6.899   8.622  0.0765 -0.2354  0.0102
18146W        W22446   5.223   2.086   6.917 -0.2460 -0.0548  0.0778
18147W        W22447  31.085   1.120   5.407 -0.0024  0.2304 -0.0648
18148W        W22448  11.738   7.778  21.717 -0.1975 -0.1501  0.2071
18149W        W22449  11.461   3.728   4.477  0.0766  0.2415  0.1805
18150W        W22450  19.988   2.226  17.483 -0.1127 -0.1400 -0.0636
18151W        W22451  28.687   1.863  23.588  0.3742  0.1378 -0.1260
18152W        W22452  26.108   0.724   9.056 -0.1590 -0.2778  0.0787
18153W        W22453  30.636   1.639  19.467 -0.0763 -0.1332 -0.0167
18154W        W22454  15.695   4.690   9.467 -0.1142  0.2339 -0.0892
18155W        W22455  27.720   6.691   2.061  0.1896 -0.0959  0.4140
18156W        W22456  25.627   0.534  16.600  0.1598 -0.0380 -0.2070
18157W        W22457  21.149   4.641   3.602  0.2589 -0.2986  0.3136
18158W        W22458   2.736   0.021  23.522  0.0242  0.0655  0.0344
18159W        W22459   2.688   7.305   2.722 -0.0784  0.2395  0.3169
18160W        W22460   1.086   6.732   7.257 -0.1157 -0.0632  0.0086
18161W        W22461  29.992   4.788  20.990  0.0059  0.0871  0.4135
18162W        W22462  18.081   6.137  19.527 -0.1010  0.0021  0.4397
18163W        W22463  17.182   1.599  25.698 -0.1715  0.0697 -0.4361
18164W        W22464   1.707   2.674  16.477  0.4154 -0.0293 -0.0344
18165W        W22465  14.060   0.183   8.658 -0.0792  0.0540 -0.0776
18166W        W22466  17.868   6.090   3.628 -0.0157 -0.2618 -0.0293
18167W        W22467  22.450   2.931   0.841  0.0286  0.3715 -0.1523
18168W        W22468  28.211   7.726  16.658 -0.4030 -0.5977  0.1410
18169W        W22469  22.780   5.133  22.550 -0.1471 -0.3513  0.3752
18170W        W22470  14.930   6.733  26.258 -0.1097  0.2990  0.0708
18171W        W22471  22.911   6.928   8.418 -0.1835 -0.0123 -0.0276
18172W        W22472  14.977   4.607  23.041  0.0598 -0.0475  0.2517
18173W        W22473  13.227   0.090   1.831 -0.1456  0.1989 -0.0524
18174W        W22474  12.483   6.019   4.271  0.0460  0.1041  0.1625
18175W        W22475   6.570   5.598   6.654  0.1895 -0.0916  0.0316
18176W        W22476   2.619   7.357  20.598 -0.1309  0.0412  0.0117
18177W        W22477  21.239   1.554  26.320 -0.1517  0.2288 -0.1576
18178W        W22478   9.952   2.622   0.338 -0.1270  0.3608 -0.2723
18179W        W22479  29.405   1.627   5.609 -0.2242  0.1898  0.2684
18180W        W22480   0.805   5.991   0.268 -0.2628  0.2972  0.2178
18181W        W22481   4.997   2.006  15.859 -0.0838 -0.1630  0.1573
18182W        W22482  29.740   2.302  16.241  0.0891 -0.1345  0.0627
18183W        W22483   7.413   6.734   8.789 -0.1309 -0.1067 -0.1789
18184W        W22484   7.365   5.428   4.757 -0.0166 -0.1800 -0.2085
18185W        W22485   5.819   1.839  19.735 -0.1205 -0.4311  0.0295
18186W        W22486   7.922   2.618   2.980 -0.2690  0.0930  0.1644
18187W        W22487  13.218   0.433  25.472 -0.3918  0.1579  0.0309
18188W        W22488  11.560   1.637   8.405  0.0978  0.1716 -0.0865
18189W        W22489  13.501   3.024  10.341 -0.4086 -0.1567  0.4913
18190W        W22490  30.824   5.172  20.407 -0.0727  0.0410 -0.0458
18191W        W22491  29.164   0.671  23.237  0.0141  0.1041  0.0177
18192W        W22492   1.160   1.735  18.935  0.3434  0.1801 -0.2203
18193W        W22493   6.861   6.524  18.370  0.0782  0.1870  0.0623
18194W        W22494  16.898   1.276  19.819  0.1233  0.2799 -0.0123
18195W        W22495  17.076   2.717   4.285  0.1313 -0.2094  0.1195
18196W        W22496  27.813   6.040  18.903 -0.1197 -0.1643 -0.0613
18197W        W22497  15.619   1.362  21.692  0.0924 -0.0509  0.0215
18198W        W22498  28.737   2.059   2.002 -0.0334 -0.0841 -0.5453
18199W        W22499  12.595   7.491   7.485  0.2600  0.1694  0.1194
18200W        W22500   3.990   6.269   7.032  0.2745  0.1887 -0.0395
18201W        W22501  13.894   3.990  15.312  0.2183  0.0463 -0.1802
18202W        W22502   6.407   5.785   4.779  0.2492  0.3925 -0.0074
18203W        W22503   1.374   6.209  19.672 -0.1263 -0.2014 -0.0460
18204W        W22504  23.983   3.695   2.485  0.2551 -0.0357  0.0931
18205W        W22505  12.298   6.365  16.466 -0.0313 -0.1268  0.0251
18206W        W22506   1.482   5.876  23.186 -0.2952  0.0409 -0.2025
18207W        W22507  15.478   4.731  15.282  0.0338 -0.0949  0.0753
18208W        W22508   6.268   5.718   7.377  0.0975  0.2058 -0.0416
18209W        W22509  20.562   2.320  22.584  0.0449 -0.0486  0.0957
18210W        W22510  18.018   6.974  15.822  0.2676  0.0188  0.2819
18211W        W22511   7.573   0.729   7.414  0.1760 -0.4257  0.1521
18212W        W22512  21.039   3.991   7.079  0.2688  0.4221 -0.0912
18213W        W22513  29.069   0.639   0.432  0.1135  0.0177 -0.0970
18214W        W22514  15.355   0.389  15.065 -0.0446 -0.0733  0.1420
18215W        W22515  11.685   5.344   9.944  0.1029  0.1119 -0.1929
18216W        W22516   6.652   0.865  24.139 -0.2108 -0.1792 -0.0247
18217W        W22517  11.238   6.427   2.643  0.0334  0.1250 -0.1221
18218W        W22518  20.603   3.254  16.254  0.0912  0.0098 -0.1099
18219W        W22519  21.608   2.926   2.923  0.0551  0.3526  0.0172
18220W        W22520   0.352   2.216   2.771 -0.1533  0.3715 -0.1654
18221W        W22521  18.563   0.185  25.366 -0.0663  0.2182 -0.0146
18222W        W22522   5.050   1.308   1.323 -0.3000 -0.0059  0.3504
18223W        W22523  25.849   0.401   9.456  0.1401 -0.1513  0.1022
18224W        W22524  14.699   1.326   1.234 -0.1022 -0.1647 -0.2535
18225W        W22525  27.801   2.661   0.817  0.1739  0.0506 -0.1246
18226W        W22526   2.836   2.925   5.323  0.1187 -0.1198  0.2134
18227W        W22527  26.889   0.169   6.033 -0.2267 -0.1851 -0.0686
18228W        W22528  24.616   6.363  10.844 -0.0988 -0.2179  0.0483
18229W        W22529  23.125   1.753  23.332 -0.4015 -0.2285  0.0509
18230W        W22530  27.860   4.840  23.042 -0.0234  0.2486 -0.0914
18231W        W22531  25.947   6.334  19.007 -0.0864 -0.1990 -0.2064
18232W        W22532  22.244   2.721   6.466  0.0684 -0.1247  0.1641
18233W        W22533   1.441   5.803   0.813  0.0429 -0.2926 -0.2310
18234W        W22534  25.955   3.051   3.527 -0.0146  0.2700  0.2007
18235W        W22535  21.741   1.886  11.352  0.0635 -0.0400 -0.0110
18236W        W22536  18.721   1.690   5.304  0.3823  0.0269 -0.1183
18237W        W22537  19.559   0.630  19.039  0.1084  0.0190  0.0414
18238W        W22538   2.040   1.370  22.510  0.1489  0.0338  0.0559
18239W        W22539   3.675   4.879   5.159 -0.0227  0.1643 -0.0180
18240W        W22540  26.336   5.032  26.001 -0.1092 -0.0110 -0.0794
18241W        W22541   8.013   2.811  24.829  0.1315  0.0545 -0.2555
18242W        W22542  18.599   5.023   9.566 -0.2596  0.1661 -0.1864
18243W        W22543  24.163   7.302   6.036 -0.2597  0.2892 -0.2730
18244W        W22544   9.381   0.457  25.457 -0.1381 -0.0946  0.0329
18245W        W22545   8.540   5.506   8.628 -0.0252  0.2491 -0.3835
18246W        W22546  23.861   1.721  21.040  0.1478  0.1323  0.0225
18247W        W22547  15.318   3.064  23.907 -0.1596 -0.3954 -0.0410
18248W        W22548  12.330   3.756  24.590 -0.1584  0.0287 -0.0935
18249W        W22549  24.218   3.907   1.095 -0.0448  0.0250  0.3774
18250W        W22550   3.419   4.029  15.711  0.2477  0.1942  0.1143
18251W        W22551   4.827   0.508  16.386 -0.0677 -0.0597  0.1271
18252W        W22552  18.946   6.215  18.185  0.2256 -0.2341  0.0598
18253W        W22553  21.992   5.899   7.280 -0.1686 -0.2583  0.0257
18254W        W22554  14.794   5.930   3.312 -0.2538  0.1615  0.2765
18255W        W22555  17.919   4.959   3.937  0.0936 -0.0010 -0.0320
18256W        W22556   6.932   6.637  19.712  0.1428 -0.3244  0.1536
18257W        W22557   0.344   3.367  16.498 -0.0722  0.1380 -0.1469
18258W        W22558  24.221   1.537  25.799  0.0915 -0.0807  0.1951
18259W        W22559  28.586   4.316   1.657 -0.2353  0.1058 -0.0887
18260W        W22560   4.705   7.005  15.628 -0.0071 -0.1297  0.2558
18261W        W22561   6.854   7.238  24.746 -0.0979  0.0214 -0.3619
18262W        W22562  17.949   4.030  23.942 -0.1380  0.0301 -0.0740
18263W        W22563   8.879   6.449  14.912 -0.4360  0.2517  0.3086
18264W        W22564  18.457   2.413  15.447  0.0065  0.1564 -0.0272
18265W        W22565  16.245   6.898  19.969 -0.0967 -0.0061 -0.0817
18266W        W22566  30.224   4.902  16.574  0.0470 -0.0425 -0.0952
18267W        W22567  21.417   0.920  21.358  0.5674 -0.0496  0.0688
18268W        W22568  19.806   4.387  18.220  0.0772  0.0204 -0.0289
18269W        W22569  29.888   1.315  22.240 -0.2814  0.0383 -0.2195
18270W        W22570  23.902   6.566  17.371  0.0313  0.3007  0.2716
18271W        W22571  18.591   5.705   9.084 -0.2071  0.0531  0.1933
18272W        W22572  19.800   1.416  17.219 -0.1015 -0.1485 -0.1838
18273W        W22573  16.330   1.040  26.128  0.1934 -0.0999  0.0630
18274W        W22574   1.152   5.883  16.049 -0.0679  0.1368  0.1735
18275W        W22575   0.318   3.958   2.268  0.2121 -0.1148 -0.2840
18276W        W22576  30.917   6.978  22.891  0.1400  0.0339  0.0587
18277W        W22577   8.648   2.044   0.163 -0.4372 -0.1556  0.3054
18278W        W22578  29.681   1.941   4.640 -0.2308 -0.1812  0.0507
18279W        W22579   1.211   3.038   3.841 -0.2425  0.2080  0.2611
18280W        W22580  12.070   2.014   9.956  0.0057 -0.0007 -0.1310
18281W        W22581   9.575   3.970  25.412 -0.3854  0.2715  0.0169
18282W        W22582  20.531   6.150  16.336  0.0930  0.0735  0.1702
18283W        W22583  18.815   2.376  25.661  0.2318  0.1328  0.1289
18284W        W22584  28.822   0.712  16.892  0.0474  0.0730  0.1707
18285W        W22585  19.529   4.770  23.976 -0.0674  0.0454  0.0017
18286W        W22586   6.895   6.496   7.427  0.1799  0.2802  0.1922
18287W        W22587  11.251   0.229  22.934 -0.0491  0.1321  0.1817
18288W        W22588   7.233   2.086  17.805 -0.1089  0.2834  0.3530
18289W        W22589  27.651   5.846   2.845 -0.2121 -0.0850 -0.1680
18290W        W22590   1.772   5.512   2.405 -0.0908  0.0735  0.0492
18291W        W22591   8.642   1.536   1.387 -0.1702  0.1468 -0.3520
18292W        W22592  30.793   6.104  21.822  0.0221  0.2130 -0.1893
18293W        W22593   7.917   5.887  16.057 -0.0589 -0.0255 -0.1765
18294W        W22594  26.853   2.466   6.090 -0.1573 -0.0136 -0.0793
18295W        W22595   7.542   5.112   7.337 -0.1979  0.1712  0.2300
18296W        W22596  22.810   1.012  20.274 -0.3975 -0.0292  0.0253
18297W        W22597  30.186   4.540  10.265 -0.2982  0.0404  0.2296
18298W        W22598  27.461   1.324   9.904  0.4188  0.2772  0.4516
18299W        W22599   7.859   0.177   6.187  0.0829 -0.1143 -0.0829
18300W        W22600   9.214   6.796   8.531  0.0774  0.1399  0.1384
18301W        W22601  22.091   1.671  23.346  0.1652  0.0339  0.0290
18302W        W22602   7.537   4.154  10.022  0.3012 -0.1656  0.1433
18303W        W22603  25.530   3.646   9.870  0.1207 -0.2402 -0.0571
18304W        W22604   4.935   1.697   5.949  0.0523  0.0036 -0.0200
18305W        W22605  11.914   3.138   6.515 -0.0024  0.1878 -0.1676
18306W        W22606  30.697   3.109  15.530  0.1045  0.0359  0.0940
18307W        W22607   5.423   4.901  16.952 -0.0148  0.0084  0.2252
18308W        W22608   9.889   1.568   0.317 -0.2199  0.0076  0.2916
18309W        W22609  16.080   3.439  22.082 -0.2785 -0.1357 -0.0704
18310W        W22610  20.740   5.136  10.061 -0.1135 -0.1628  0.3642
18311W        W22611  15.767   3.599  23.652  0.0007 -0.0148 -0.1086
18312W        W22612  24.023   1.769  10.243 -0.2384  0.2336  0.1382
18313W        W22613  25.897   2.436   8.192  0.0246  0.1396 -0.0153
18314W        W22614  11.005   5.376  20.422 -0.1640  0.2191 -0.3408
18315W        W22615  16.924   4.274  26.260  0.1630  0.2196  0.0540
18316W        W22616   0.029   6.275   5.372  0.0254 -0.0098  0.0809
18317W        W22617  16.623   0.027   5.228 -0.1422  0.0608  0.0616
18318W        W22618  22.251   1.271   8.189 -0.1607 -0.0626  0.2239
18319W        W22619  25.102   2.005  19.257 -0.0927 -0.3638 -0.1715
18320W        W22620  17.053   7.787  16.409  0.0836 -0.0925 -0.1294
18321W        W22621  15.751   7.072   5.939 -0.2641  0.0138 -0.0197
18322W        W22622   8.090   2.443   0.577  0.0387 -0.0504 -0.2143
18323W        W22623   2.859   2.637  16.886 -0.1076 -0.1657 -0.0336
18324W        W22624  28.522   4.475  21.484  0.1035  0.1684 -0.2728
18325W        W22625  29.634   2.038  23.528  0.0637  0.2128 -0.0705
18326W        W22626  29.810   4.676  22.677 -0.1175 -0.0683 -0.2311
18327W        W22627  29.732   0.807  16.297 -0.0887  0.0517  0.1817
18328W        W22628  28.669   7.185   7.675  0.0072 -0.3579  0.0919
18329W        W22629   9.522   0.105  21.293  0.1159 -0.1562  0.0671
18330W        W22630  17.998   2.238  26.076 -0.0973  0.2222 -0.4527
18331W        W22631  10.118   6.209  22.433  0.1648 -0.1582  0.0992
18332W        W22632  30.621   6.939   2.191 -0.1915  0.0087  0.3417
18333W        W22633  25.681   4.132  21.521  0.1167 -0.4319 -0.1192
18334W        W22634  24.940   5.496  22.795 -0.0146  0.3797 -0.1001
18335W        W22635  29.738   5.880  24.751 -0.0293 -0.2595 -0.0019
18336W        W22636  28.846   1.145   3.889 -0.2042 -0.2251 -0.0446
18337W        W22637   6.519   3.262  19.542  0.4096  0.1375 -0.0833
18338W        W22638  30.368   4.395  24.261 -0.1896  0.1183 -0.1267
18339W        W22639   9.051   1.306  11.520  0.0746 -0.0902 -0.3978
18340W        W22640  17.342   2.169  18.505  0.0567  0.0097  0.1520
18341W        W22641  19.572   2.324   9.364  0.0855 -0.2507 -0.0902
18342W        W22642  17.066   5.986   8.504  0.0317  0.2191 -0.3066
18343W        W22643  20.715   2.968  17.906  0.2814  0.0240  0.0256
18344W        W22644   5.646   3.515  21.168  0.0378 -0.0755 -0.3286
18345W        W22645  28.891   6.949   4.617  0.0812 -0.4329 -0.1564
18346W        W22646  17.067   4.952  14.552 -0.0934 -0.1684 -0.1394
18347W        W22647  23.063   6.627   1.471  0.1144 -0.0819 -0.1622
18348W        W22648   7.435   2.779   1.473 -0.1102 -0.0036 -0.0513
18349W        W22649  15.150   6.738  17.320 -0.2676 -0.2445 -0.1781
18350W        W22650  21.374   5.799   8.616  0.1446  0.0996  0.3890
18351W        W22651  25.706   4.609  10.275  0.2367 -0.0778 -0.0958
18352W        W22652  28.222   0.730  18.662  0.2383 -0.0720 -0.2697
18353W        W22653   1.982   6.093  11.375  0.2354  0.0855  0.1288
18354W        W22654  10.625   1.217  17.214 -0.0551  0.2656 -0.0485
18355W        W22655  19.895   0.981   5.454  0.1478  0.1745  0.1714
18356W        W22656   8.315   7.544  23.232 -0.0224 -0.1111 -0.2292
18357W        W22657  12.773   6.591  26.126 -0.0185  0.1799  0.0885
18358W        W22658  22.365   5.305  14.879 -0.2519  0.0743 -0.0854
18359W        W22659  18.751   2.119  16.742  0.0016 -0.1808 -0.0583
18360W        W22660   1.190   3.830   9.539  0.0321  0.2093 -0.0535
18361W        W22661  24.513   6.865   3.385 -0.2613  0.2748  0.1286
18362W        W22662   8.679   2.824  20.325 -0.1742  0.0941  0.0516
18363W        W22663  16.026   1.420   5.891  0.0118 -0.1511  0.1143
18364W        W22664  15.115   6.264   0.984 -0.1699 -0.0461  0.1435
18365W        W22665  28.461   0.274   9.248  0.0999  0.1469 -0.2149
18366W        W22666   3.802   2.213  23.769  0.0613 -0.3470 -0.1046
18367W        W22667  27.581   6.857   2.526 -0.0160 -0.1881  0.0048
18368W        W22668   8.265   5.857  10.947 -0.0505 -0.2021 -0.1537
18369W        W22669   8.079   7.385  25.980  0.1406 -0.1020 -0.4221
18370W        W22670  19.551   6.614  11.024 -0.0120 -0.1398  0.3231
18371W        W22671  24.996   2.382  23.180 -0.3297 -0.3064  0.2084
18372W        W22672  10.539   5.827   6.634  0.1656  0.2063 -0.1957
18373W        W22673  24.943   3.132   6.214 -0.0905  0.0730  0.0902
18374W        W22674  17.006   1.607   8.137  0.2680 -0.0724  0.0411
18375W        W22675  16.052   6.107   1.484  0.0635  0.0313  0.0596
18376W        W22676  20.353   6.306   2.389  0.1745 -0.1443 -0.0949
18377W        W22677  29.376   7.694  20.223  0.3294 -0.2597 -0.2016
18378W        W22678   5.825   6.575  17.698  0.0452  0.2449 -0.3381
18379W        W22679  13.132   7.426   5.187  0.0002 -0.2502  0.0521
18380W        W22680  10.450   3.565   0.587 -0.1948  0.0244 -0.0872
18381W        W22681  27.727   0.647  22.003 -0.0214 -0.1041  0.0499
18382W        W22682  13.701   7.770   1.999 -0.0349 -0.2413 -0.0158
18383W        W22683  28.317   2.411   2.621  0.0274  0.1642 -0.3012
18384W        W22684  21.053   3.724  15.832 -0.0872 -0.0528 -0.1657
18385W        W22685   4.955   4.263   3.156  0.0716 -0.1110  0.3097
18386W        W22686   7.855   6.573  16.773  0.0190  0.2159  0.0109
18387W        W22687  13.657   5.149   3.813 -0.0417 -0.2462  0.0096
18388W        W22688  22.267   5.459   4.438  0.1897  0.1907 -0.1668
18389W        W22689  10.903   2.707   9.068 -0.1580 -0.3268 -0.1823
18390W        W22690  23.602   4.759  23.789  0.2808  0.2126  0.0308
18391W        W22691   7.593   4.444  23.052  0.1875  0.2514 -0.2219
18392W        W22692   6.629   3.485  19.019 -0.2433 -0.0247 -0.1648
18393W        W22693  30.412   1.284   2.116  0.1940 -0.0863 -0.0470
18394W        W22694   5.628   0.883   7.981 -0.1904  0.0864 -0.2728
18395W        W22695  27.571   0.989  20.480  0.0800  0.0739 -0.1062
18396W        W22696  15.090   5.751  19.441  0.0376  0.0107  0.1042
18397W        W22697  28.448   3.704  19.405  0.1628  0.0676  0.3959
18398W        W22698  20.013   7.135   3.586 -0.1121 -0.1412  0.4394
18399W        W22699  25.454   2.555   6.005  0.0954  0.3793  0.0031
18400W        W22700   6.873   2.675   8.025 -0.1052 -0.0781  0.0673
18401W        W22701  11.453   2.963  15.396  0.0479 -0.0727 -0.0335
18402W        W22702  15.353   4.031  22.460 -0.0457  0.0620 -0.1248
18403W        W22703  26.380   4.854   7.145  0.0096  0.2793  0.1293
18404W        W22704   3.113   3.385  16.080 -0.2040  0.2023  0.2501
18405W        W22705   8.753   7.092  25.019  0.1482 -0.0672 -0.2370
18406W        W22706  14.260   0.286  19.493  0.0632 -0.0396  0.0222
18407W        W22707   6.217   1.604   4.812 -0.0422 -0.0585  0.3103
18408W        W22708   7.860   2.544  22.789 -0.1570 -0.0347 -0.1625
18409W        W22709  23.334   4.445   1.596  0.2118  0.1021  0.0793
18410W        W22710   7.357   4.440   8.059 -0.0881  0.1382  0.0553
18411W        W22711  10.343   2.895  20.527 -0.0209  0.0041 -0.0226
18412W        W22712  14.896   3.557   7.223  0.2712  0.2508 -0.2329
18413W        W22713   6.259   6.198  19.324  0.1713 -0.0342  0.0969
18414W        W22714  17.611   5.180   6.777 -0.1260 -0.1145 -0.1322
18415W        W22715  20.033   4.556   5.893  0.0464  0.0267 -0.0640
18416W        W22716  11.605   2.003  23.757  0.0188 -0.2714 -0.3376
18417W        W22717  18.418   1.796   7.893 -0.0317  0.0198 -0.0833
18418W        W22718  13.196   1.905  22.364  0.1526 -0.0177  0.1150
18419W        W22719   0.019   6.595   3.060  0.0610 -0.0464 -0.2679
18420W        W22720   5.382   7.434  23.300  0.1256 -0.1333  0.0138
18421W        W22721  20.870   3.292  25.619 -0.1165 -0.2298  0.3613
18422W        W22722   1.652   5.817  19.811  0.0301 -0.2129  0.0135
18423W        W22723   6.141   2.875   3.397  0.0989 -0.0660 -0.3043
18424W        W22724   1.976   4.540   0.189 -0.0516  0.2371  0.3545
18425W        W22725  23.982   2.979  21.139 -0.2262  0.1303 -0.1660
18426W        W22726  13.462   4.709  24.111 -0.0364 -0.0682  0.0487
18427W        W22727  22.987   2.118  24.860 -0.0980 -0.2324  0.0311
18428W        W22728   1.424   3.683   0.944 -0.0242 -0.0920 -0.3156
18429W        W22729  12.329   0.714   9.328  0.0882  0.2202  0.0229
18430W        W22730  29.909   2.723  25.157 -0.2521  0.1132  0.1263
18431W        W22731   2.790   3.102  25.415 -0.0489 -0.2473 -0.0282
18432W        W22732  29.649   5.618  21.057 -0.0661 -0.0173 -0.1024
18433W        W22733  10.622   0.134  20.220  0.1938 -0.1421  0.0130
18434W        W22734  17.228   4.197  18.907 -0.1621  0.2298  0.0006
18435W        W22735  11.257   5.454  10.442 -0.0138 -0.0424 -0.1306
18436W        W22736  12.078   0.358   8.015  0.1088  0.2337  0.2814
18437W        W22737   3.704   5.293   4.294  0.2279 -0.0627 -0.0771
18438W        W22738  25.815   5.020   0.734  0.0739  0.3297  0.1469
18439W        W22739  29.319   7.140   6.713  0.1458 -0.2938 -0.2827
18440W        W22740  23.492   4.556  18.712  0.2451  0.0041 -0.1033
18441W        W22741   7.380   5.647   7.797 -0.1390  0.2995 -0.1837
18442W        W22742   2.631   0.542   2.460 -0.1037 -0.0902  0.0600
18443W        W22743  10.889   7.474  22.579  0.1256 -0.0334  0.0270
18444W        W22744  21.175   6.245   2.270  0.1455 -0.2348  0.0935
18445W        W22745   4.542   6.444   3.884 -0.2620  0.2142  0.0140
18446W        W22746  11.497   6.364  16.025 -0.2601  0.0089 -0.2278
18447W        W22747  14.692   2.399  26.109 -0.0621  0.0094  0.0760
18448W        W22748   9.944   2.377  16.686 -0.1425  0.4442  0.2093
18449W        W22749  12.351   1.014   2.555 -0.2011  0.2101 -0.1645
18450W        W22750   4.584   2.388   3.448  0.1709  0.2295  0.0999
18451W        W22751  24.202   2.115  19.083  0.0343 -0.1966  0.2110
18452W        W22752   1.724   5.097   3.363 -0.0569  0.5600 -0.3221
18453W        W22753   2.935   1.495  25.630 -0.1765 -0.0666 -0.2462
18454W        W22754  25.076   6.748  26.064 -0.0752 -0.0219  0.2035
18455W        W22755  11.753   6.714  20.616  0.0081  0.0479 -0.1842
18456W        W22756  17.525   3.919  21.358  0.3065  0.4741 -0.2992
18457W        W22757  18.060   6.755  14.851 -0.1444  0.1960 -0.2524
18458W        W22758   3.698   5.745   1.147 -0.0053  0.0826 -0.2600
18459W        W22759  18.175   6.672   4.331 -0.1574 -0.0436  0.0122
18460W        W22760   1.187   2.228   4.292 -0.1146  0.0969  0.0410
18461W        W22761   4.756   1.587   9.487  0.1505  0.1665  0.1354
18462W        W22762  12.733   6.808  15.277 -0.2529 -0.0494  0.2215
18463W        W22763  21.768   1.357  16.079 -0.2179  0.0426  0.1857
18464W        W22764   6.253   6.650   1.074  0.4576 -0.4894 -0.2338
18465W        W22765  21.064   5.545  19.159 -0.0146 -0.0208 -0.0829
18466W        W22766  29.036   1.140   3.396 -0.1728  0.1416 -0.1241
18467W        W22767  12.497   5.784   1.391 -0.0776 -0.0125 -0.0682
18468W        W22768  17.111   1.915   7.068  0.1318  0.3712 -0.0661
18469W        W22769  12.147   4.929   9.607  0.2411 -0.2691 -0.0532
18470W        W22770  22.774   7.799   8.909  0.3162  0.1956 -0.2738
18471W        W22771  11.055   1.764   7.088  0.0152 -0.0459  0.3144
18472W        W22772   7.242   1.060   0.677 -0.0605 -0.0720 -0.0939
18473W        W22773   3.553   5.595  19.549 -0.0797 -0.1627  0.2464
18474W        W22774   7.963   6.062  23.684  0.2591 -0.1324 -0.0111
18475W        W22775  29.064   1.878   6.139 -0.2989  0.0270  0.0951
18476W        W22776   6.308   3.623  17.647 -0.0511  0.1543  0.1048
18477W        W22777  26.838   3.658   5.334 -0.0969  0.0889  0.1711
18478W        W22778  15.619   2.773  25.217  0.0644 -0.2807 -0.1765
18479W        W22779  15.556   0.500  19.669 -0.0296 -0.1362 -0.0969
18480W        W22780   5.587   7.223  11.212  0.1631 -0.0463  0.2433
18481W        W22781  23.563   0.188  25.710 -0.2571  0.5621  0.2397
18482W        W22782  18.084   4.713  15.905  0.0347 -0.1941  0.2825
18483W        W22783  26.226   6.039  16.422 -0.2041  0.0760  0.0250
18484W        W22784  27.558   4.005   7.698 -0.0458 -0.0149 -0.0601
18485W        W22785   4.082   1.410  10.843 -0.0618 -0.0715 -0.0687
18486W        W22786  17.530   3.484   2.937 -0.0104 -0.0058 -0.4250
18487W        W22787  19.142   5.261   3.751 -0.1115 -0.2497  0.0630
18488W        W22788  10.460   3.953   6.986  0.2141  0.0018  0.3145
18489W        W22789  18.324   5.236  23.046  0.1015 -0.1694 -0.1849
18490W        W22790  11.738   7.509   5.400  0.0505  0.0767 -0.0196
18491W        W22791  17.831   0.453  10.474  0.0618 -0.0538 -0.2723
18492W        W22792   3.747   1.621   1.078 -0.0539 -0.2473 -0.1953
18493W        W22793  23.386   4.942  25.478 -0.2931  0.1460 -0.0816
18494W        W22794  27.264   3.210   0.034  0.1275 -0.1884 -0.0332
18495W        W22795   9.108   7.685  15.629 -0.1155 -0.0024 -0.0045
18496W        W22796   9.003   1.675  18.464 -0.0624 -0.3572 -0.3217
18497W        W22797  14.455   6.337  23.958 -0.0422 -0.1970  0.1057
18498W        W22798  29.637   7.587  25.750  0.0855  0.1968  0.0463
18499W        W22799  24.674   6.452   9.489  0.1793 -0.0720  0.1083
18500W        W22800  21.610   2.576  23.248  0.3829  0.0818  0.2026
18501W        W22801  19.053   6.531   5.906  0.0293 -0.2016 -0.3010
18502W        W22802  10.231   1.189   5.024 -0.0064  0.1919  0.0179
18503W        W22803  27.814   1.348   0.022 -0.1130  0.0944 -0.3551
18504W        W22804   2.383   1.472  24.843 -0.0214 -0.3149  0.0243
18505W        W22805  17.436   6.256   3.930  0.0317  0.2945 -0.0904
18506W        W22806   5.074   6.729  11.162 -0.2124  0.1293  0.0507
18507W        W22807  17.645   0.308   7.776 -0.0366  0.1782  0.0842
18508W        W22808  21.089   6.981   4.907  0.0520  0.0351  0.0706
18509W        W22809  13.554   0.895   7.269 -0.1869  0.1131 -0.0992
18510W        W22810   6.214   2.554   3.066 -0.0853 -0.0897 -0.2237
18511W        W22811   7.949   7.309  20.139 -0.0428  0.2722  0.0777
18512W        W22812  20.929   3.482   8.343 -0.0186  0.1415 -0.4261
18513W        W22813  15.443   4.612  24.399 -0.0761 -0.0422  0.0089
18514W        W22814  16.155   1.690  19.490 -0.0576  0.1056 -0.1721
18515W        W22815   1.770   1.136   1.309  0.0898 -0.3013 -0.0290
18516W        W22816  29.435   4.049  20.313  0.1070 -0.0672  0.2327
18517W        W22817   3.476   2.097   3.792 -0.1074 -0.2267  0.0703
18518W        W22818  20.173   6.515  24.024 -0.0400  0.1606  0.0076
18519W        W22819  24.391   4.246   0.269 -0.0296 -0.5282 -0.2749
18520W        W22820   4.937   6.321  25.366  0.0311  0.0620 -0.1540
18521W        W22821  20.066   0.846   6.383 -0.1485 -0.3491 -0.1694
18522W        W22822   4.114   4.558   4.544  0.0290 -0.2069  0.0143
18523W        W22823  22.725   3.337   0.959 -0.1434  0.3675 -0.0432
18524W        W22824  27.618   6.192  23.864  0.1843  0.1722  0.0963
18525W        W22825  29.770   0.713  23.968 -0.0468  0.1734  0.0273
18526W        W22826   2.043   7.055   7.308  0.2374 -0.0176 -0.0754
18527W        W22827   0.973   6.575  10.376  0.1199 -0.0761 -0.2505
18528W        W22828  18.684   4.561  21.072 -0.0763  0.1615  0.1416
18529W        W22829  14.300   2.237   9.303  0.3207  0.2176 -0.0773
18530W        W22830   0.177   6.245  20.003 -0.1024  0.1757 -0.0067
18531W        W22831   0.232   3.250  18.398  0.1479 -0.0390  0.1520
18532W        W22832   3.006   7.464   0.213  0.0887 -0.3115  0.2958
18533W        W22833  25.912   0.249   0.627  0.0226  0.1801  0.0119
18534W        W22834  20.517   6.062  26.118  0.0072 -0.1346 -0.0452
18535W        W22835  16.854   1.742  22.361 -0.0381  0.0185 -0.1439
18536W        W22836  29.069   0.538   3.272 -0.2142  0.2456 -0.2091
18537W        W22837  24.606   3.666  18.481 -0.0747  0.4040 -0.1463
18538W        W22838  11.877   7.534   9.760  0.1597 -0.0989  0.2004
18539W        W22839  12.482   1.286  25.900 -0.0790  0.0184  0.0046
18540W        W22840  19.812   1.404  10.157  0.0859 -0.0149 -0.0973
18541W        W22841   3.839   2.408  18.834 -0.0513  0.1272 -0.2206
18542W        W22842  15.259   0.260   2.334  0.0053 -0.2816  0.0214
18543W        W22843  20.597   5.400  19.261 -0.0740 -0.2928  0.0126
18544W        W22844  11.838   2.964  18.286  0.0480 -0.3615 -0.0517
18545W        W22845  17.079   7.576  17.368 -0.5487  0.1583  0.0086
18546W        W22846  19.218   5.816   8.041  0.0245  0.1364 -0.1257
18547W        W22847  30.311   4.100  10.619 -0.2918  0.1405  0.1032
18548W        W22848  27.373   1.228  11.575  0.0330  0.1419 -0.0186
18549W        W22849   4.793   3.127  14.828 -0.0378  0.0067  0.2119
18550W        W22850  11.332   7.658  10.494  0.0898 -0.1059  0.4866
18551W        W22851   1.985   5.963   4.331 -0.1882  0.3686  0.1238
18552W        W22852  14.713   2.582  23.419  0.0130 -0.1346  0.1246
18553W        W22853  10.484   3.371   7.793 -0.1408  0.2005  0.0158
18554W        W22854   6.154   1.125   4.706  0.0640 -0.0533  0.1858
18555W        W22855   9.918   5.955  20.985  0.0794  0.0394 -0.1624
18556W        W22856  18.315   1.097  19.797  0.0466 -0.0827  0.0496
18557W        W22857   4.012   3.807  26.202  0.1221 -0.0497 -0.0582
18558W        W22858  17.028   5.830  25.201 -0.2670 -0.3785  0.2458
18559W        W22859  11.220   7.179  26.274 -0.0582  0.1141 -0.0328
18560W        W22860  10.408   1.355  20.047  0.0130 -0.1555  0.1538
18561W        W22861  24.780   4.019  10.402  0.1390  0.0939  0.1036
18562W        W22862   9.181   2.570   7.077  0.2495 -0.0467  0.1129
18563W        W22863   0.301   4.439  20.905  0.0325 -0.0464  0.4184
18564W        W22864  23.226   4.149  15.195 -0.2452 -0.3883  0.2475
18565W        W22865   1.231   4.029   5.814 -0.0487 -0.3439  0.0092
18566W        W22866  15.568   6.256  20.992  0.1391  0.1807  0.3277
18567W        W22867  11.089   5.834  15.629 -0.0229  0.0610  0.2401
18568W        W22868   8.975   4.874   8.947  0.3421 -0.0770  0.0617
18569W        W22869   7.995   1.438  17.734  0.1537 -0.0448  0.1242
18570W        W22870  12.360   2.470  20.225  0.0986  0.0980 -0.0152
18571W        W22871   0.203   2.998  20.919  0.2231 -0.2284 -0.0935
18572W        W22872   8.705   3.868   4.620 -0.2856  0.1456  0.3844
18573W        W22873  22.033   7.437   4.093 -0.0573  0.2338  0.0720
18574W        W22874  13.892   2.937  24.076  0.3113 -0.3388  0.0433
18575W        W22875  12.278   1.121   7.485  0.1033  0.1757  0.0609
18576W        W22876   7.970   6.647  19.358  0.0733 -0.0399 -0.0135
18577W        W22877   0.094   1.247  16.088  0.0125 -0.1342  0.2635
18578W        W22878  19.032   6.522   1.398 -0.0660  0.1652  0.0209
18579W        W22879  20.484   0.991  20.977 -0.1152 -0.2044 -0.2076
18580W        W22880  28.768   2.728  17.214  0.3452  0.1316  0.2476
18581W        W22881  30.767   2.474   4.643  0.5227  0.0868  0.0109
18582W        W22882   6.870   0.104  17.022  0.1662  0.3082 -0.0104
18583W        W22883   1.406   0.260  25.683  0.0592 -0.2490  0.0543
18584W        W22884   3.710   2.651  21.564  0.0952  0.1444  0.1170
18585W        W22885  12.020   3.792   3.643 -0.1565 -0.1731  0.0811
18586W        W22886  10.271   5.629  18.775  0.4125  0.3360  0.2475
18587W        W22887   0.279   0.062  22.828 -0.3325 -0.0171  0.1618
18588W        W22888  18.922   1.038  26.188  0.3491 -0.2033 -0.0999
18589W        W22889  13.528   6.729   1.373  0.3430 -0.1474 -0.0089
18590W        W22890   7.924   5.129   5.624  0.0064 -0.0241  0.1759
18591W        W22891  28.289   1.456  16.207 -0.0020 -0.0453 -0.0818
18592W        W22892   2.561   4.467  19.071 -0.5041 -0.0226 -0.0585
18593W        W22893  20.706   5.050  19.554 -0.2343 -0.1327  0.3112
18594W        W22894  23.618   0.036   7.239  0.1337  0.0740  0.2515
18595W        W22895  12.433   4.897  19.806  0.1986  0.3384  0.3575
18596W        W22896   4.639   5.377   8.722 -0.0595  0.1252  0.3728
18597W        W22897  20.625   0.992   7.161 -0.2151  0.1992 -0.1665
18598W        W22898   9.756   5.196   7.109 -0.0865 -0.2329 -0.1413
18599W        W22899  12.548   0.301   5.333  0.0591 -0.0883  0.2210
18600W        W22900   9.762   1.157   5.142  0.0714 -0.0461  0.0186
18601W        W22901  22.465   1.645   3.133 -0.1121 -0.0653  0.0985
18602W        W22902  26.920   4.316   3.048 -0.0527  0.1595 -0.1107
18603W        W22903   9.558   0.270  20.586 -0.0715 -0.1513  0.0596
18604W        W22904  22.626   1.414  23.644 -0.0304  0.2089  0.1888
18605W        W22905  24.776   1.438  25.957 -0.1030 -0.2884  0.0817
18606W        W22906  16.474   1.511  14.850 -0.2948 -0.1691  0.3536
18607W        W22907  14.650   2.677   7.277 -0.3568 -0.1332  0.0011
18608W        W22908  29.007   0.048   2.394 -0.0268  0.0830  0.1704
18609W        W22909  13.042   3.074  21.349  0.0543 -0.2306  0.1061
18610W        W22910   4.422   5.115  24.316  0.1626 -0.1084  0.0494
18611W        W22911  29.351   1.411  25.647 -0.1540 -0.2080  0.0967
18612W        W22912  25.260   3.148  19.586 -0.0060 -0.0340 -0.2787
18613W        W22913  13.749   6.572  25.905  0.0216 -0.1815  0.1483
18614W        W22914  18.924   3.453   7.222 -0.0966 -0.1200 -0.0039
18615W        W22915  25.329   4.085  16.434 -0.1145 -0.0561 -0.3784
18616W        W22916  11.812   0.478  11.071 -0.0276  0.2014  0.0926
18617W        W22917   6.181   2.850  26.097  0.0271 -0.3001 -0.2484
18618W        W22918  13.457   1.035  10.859 -0.1756 -0.0451 -0.0126
18619W        W22919  26.343   5.655   4.862 -0.0511  0.1427 -0.0735
18620W        W22920  15.423   6.631   0.857 -0.0471  0.2909  0.0866
18621W        W22921   7.574   6.132  17.120  0.1850 -0.1479  0.1384
18622W        W22922  15.102   5.885  20.310  0.1600 -0.0342  0.0667
18623W        W22923  19.804   3.266  25.173 -0.1068  0.0639 -0.0745
18624W        W22924   3.733   1.627  19.164  0.0242 -0.0534 -0.2120
18625W        W22925   0.194   1.982   7.311  0.0224  0.0487  0.2886
18626W        W22926  18.126   0.891  10.598 -0.0292 -0.1249 -0.0017
18627W        W22927   4.116   3.981   9.764  0.1220 -0.3037  0.0523
18628W        W22928  29.726   5.826  25.813  0.1802  0.3120 -0.1326
18629W        W22929  29.640   0.538  22.508 -0.2172 -0.0634  0.0770
18630W        W22930   5.566   7.797   8.161 -0.3181  0.0481 -0.0306
18631W        W22931   6.624   4.003   9.713  0.0361 -0.1153  0.1151
18632W        W22932  13.641   7.443   4.902  0.0050  0.0612 -0.1606
18633W        W22933  26.286   4.224   1.399 -0.0941 -0.0486  0.2516
18634W        W22934   6.657   4.967   2.721  0.2020 -0.5295 -0.2147
18635W        W22935  25.966   6.060  26.203  0.1795  0.0899 -0.1893
18636W        W22936   7.807   2.338  24.180 -0.0784 -0.2147  0.0457
18637W        W22937   6.791   7.705  10.009  0.0378 -0.1871 -0.2819
18638W        W22938  19.861   7.644  18.974  0.3575 -0.1892  0.0182
18639W        W22939   2.996   5.442   4.612  0.0023  0.0124 -0.1086
18640W        W22940  15.199   2.447  25.806  0.0714  0.1028  0.0149
18641W        W22941   4.798   7.272   1.520  0.2117  0.0358  0.1144
18642W        W22942   7.581   3.524   0.044 -0.0947  0.2817  0.0054
18643W        W22943  29.232   0.996  22.543  0.0475 -0.0321  0.0958
18644W        W22944  20.415   3.229  24.347 -0.2467  0.1451  0.1025
18645W        W22945  21.353   5.911   3.224 -0.0414 -0.1158 -0.2373
18646W        W22946   0.977   4.389   6.302 -0.0820  0.0235 -0.1529
18647W        W22947  20.798   2.794   1.682  0.3033 -0.1945 -0.0467
18648W        W22948  12.759   3.517   9.496  0.0334  0.0259 -0.0564
18649W        W22949  30.286   3.829  22.409 -0.1521  0.0462  0.2764
18650W        W22950  18.811   6.636  10.343  0.1088  0.2232 -0.0556
18651W        W22951   9.583   4.906  26.193  0.0904 -0.0637 -0.0417
18652W        W22952   6.382   1.886   3.619  0.2403  0.2560 -0.3535
18653W        W22953   5.324   7.750   2.454  0.1194  0.0812  0.0431
18654W        W22954  26.788   3.432   1.118  0.0223  0.0641 -0.1031
18655W        W22955   5.143   4.254   5.716  0.3370 -0.2124 -0.2454
18656W        W22956  19.334   2.701   6.147 -0.0435 -0.3183  0.1413
18657W        W22957  22.660   2.097  21.956  0.2948 -0.0138 -0.1421
18658W        W22958  15.843   7.748   0.737  0.2555 -0.1587  0.2100
18659W        W22959  18.641   0.248  10.979 -0.2124  0.0938  0.2815
18660W        W22960  26.364   4.068  15.686  0.2916  0.1379 -0.0197
18661W        W22961  15.856   0.698  21.321  0.1972 -0.0171  0.4089
18662W        W22962  13.899   5.904   4.227 -0.2566 -0.1088 -0.1267
18663W        W22963  21.068   3.664   7.534 -0.2081  0.0039  0.1086
18664W        W22964   3.271   7.662   9.900 -0.1397  0.2164  0.0517
18665W        W22965  24.294   4.823  25.776 -0.1265  0.1046 -0.1842
18666W        W22966  25.042   6.924   2.234 -0.1828  0.1003 -0.0368
18667W        W22967  23.140   5.328   0.715  0.2018  0.0639  0.0810
18668W        W22968  22.164   3.602  17.629  0.3464  0.0305 -0.2179
18669W        W22969   2.068   1.544   5.094 -0.4879 -0.1700 -0.0481
18670W        W22970  16.717   4.475  10.057 -0.0363  0.0118  0.5045
18671W        W22971  22.569   1.751   9.377  0.1493  0.0928  0.0658
18672W        W22972  12.401   2.927  22.464  0.1565  0.0553 -0.0743
18673W        W22973   3.634   1.793  25.001  0.1793  0.0551  0.0181
18674W        W22974  14.924   4.179   0.403  0.3526  0.0486 -0.0785
18675W        W22975  14.454   4.377  25.008 -0.2140 -0.2548 -0.2652
18676W        W22976   5.555   3.438   7.882  0.3246  0.3552  0.2242
18677W        W22977  24.271   7.784  16.860  0.0083 -0.2824 -0.0020
18678W        W22978  18.019   5.093   3.102 -0.0102 -0.0565 -0.2829
18679W        W22979   2.477   3.498  18.291  0.0736  0.0741 -0.0481
18680W        W22980  15.481   0.606  20.551 -0.0387 -0.0792  0.1785
18681W        W22981  15.334   1.568  23.978  0.0908 -0.2195  0.0605
18682W        W22982  16.040   3.176   4.335  0.1440 -0.0570 -0.2170
18683W        W22983   3.775   0.606   7.125  0.1648 -0.0896 -0.0024
18684W        W22984  28.093   1.077  24.525  0.4429 -0.0777  0.2517
18685W        W22985   4.767   0.320   8.290  0.1697 -0.2688  0.2011
18686W        W22986   4.527   4.984   0.600  0.0145  0.1907 -0.0162
18687W        W22987  23.506   4.120   9.596 -0.2949  0.2274 -0.1957
18688W        W22988  29.238   6.439   8.568  0.0053  0.2877  0.1196
18689W        W22989   8.675   3.691  21.411 -0.1995 -0.2151 -0.3844
18690W        W22990  30.789   6.793  25.068  0.0800  0.0574 -0.0198
18691W        W22991  18.276   3.484   1.739 -0.0640  0.1924 -0.1340
18692W        W22992  19.270   6.943  21.415  0.4896  0.2786  0.2334
18693W        W22993   2.204   7.517   2.842  0.0081  0.1222 -0.0735
18694W        W22994  19.581   2.931  19.722 -0.0731 -0.0229 -0.0467
18695W        W22995  26.364   2.780  20.091  0.0062  0.3653 -0.1888
18696W        W22996   4.232   1.067  20.582 -0.3629  0.2874  0.0124
18697W        W22997  20.382   0.561   6.083  0.3152  0.0664 -0.1922
18698W        W22998   0.507   1.842   7.661  0.1679  0.0894  0.0122
18699W        W22999  25.020   1.874  23.098  0.0799 -0.0126 -0.0512
18700W        W23000  26.770   7.735  20.602  0.0637 -0.0740 -0.2674
18701W        W23001   7.383   1.825  21.556  0.0560 -0.1393 -0.3685
18702W        W23002  20.016   4.875   6.883  0.1300 -0.0914  0.1024
18703W        W23003  13.803   0.462  20.134 -0.0491 -0.0972 -0.1532
18704W        W23004  17.043   5.397   3.783 -0.1443  0.1099  0.1179
18705W        W23005   1.211   6.329   0.999  0.1244  0.0144 -0.1469
18706W        W23006  18.018   3.169  16.634 -0.0817 -0.4994  0.0106
18707W        W23007  19.609   1.522  24.634 -0.2735  0.1970 -0.4503
18708W        W23008  16.315   0.354  18.426 -0.0934 -0.0529  0.0001
18709W        W23009  30.117   2.610  16.469  0.0883 -0.1879 -0.2671
18710W        W23010  27.260   4.386   8.623  0.1349  0.1401 -0.3370
18711W        W23011  18.086   5.557   8.816  0.1131  0.0601 -0.0092
18712W        W23012  27.691   7.593  22.479 -0.1605 -0.1246  0.1791
18713W        W23013  15.749   6.966   1.864  0.2254 -0.2623  0.1704
18714W        W23014   9.130   6.453  24.134  0.1181 -0.1340  0.0562
18715W        W23015  30.914   2.348  10.215 -0.1584 -0.1951  0.2139
18716W        W23016  25.548   1.174  20.291 -0.1285  0.3043 -0.0994
18717W        W23017  21.689   4.103  16.871  0.1405  0.0964 -0.0196
18718W        W23018   6.632   2.566   2.748  0.0082 -0.1454 -0.0917
18719W        W23019   1.500   4.555   9.608 -0.1169  0.1406  0.1416
18720W        W23020  12.055   4.633   0.692 -0.0831  0.1692 -0.0155
18721W        W23021   0.391   5.752  11.421  0.1268 -0.2253 -0.0978
18722W        W23022   8.775   5.484  20.333  0.1601  0.1385  0.0738
18723W        W23023   0.978   0.742   7.631 -0.2231  0.1130 -0.0233
18724W        W23024  14.285   1.829   3.546  0.0421 -0.0441  0.1467
18725W        W23025  15.394   4.792   6.552 -0.0682  0.0126  0.0249
18726W        W23026   3.722   0.843   3.071 -0.0827  0.3907 -0.2850
18727W        W23027  24.613   2.868   7.853  0.1236  0.0454  0.0731
18728W        W23028  12.196   5.053  16.859 -0.1616  0.1581  0.2217
18729W        W23029  27.058   3.171  19.491 -0.2524 -0.0477 -0.2569
18730W        W23030   5.529   1.239  25.389 -0.2901 -0.0999 -0.2879
18731W        W23031  10.714   6.505   7.471  0.0154 -0.0706 -0.0842
18732W        W23032  18.614   5.450   4.343 -0.0926  0.0564 -0.0769
18733W        W23033   9.778   6.365  26.098 -0.0143 -0.1610  0.1159
18734W        W23034  10.549   4.433  19.660  0.3075  0.0487 -0.2482
18735W        W23035  26.383   7.008  10.528  0.1695 -0.1395 -0.3248
18736W        W23036  24.022   1.594   3.021 -0.0670  0.0389 -0.5263
18737W        W23037  26.615   4.259  26.323 -0.0022  0.0682 -0.3007
18738W        W23038  25.934   5.310  11.344  0.0242  0.1580 -0.0157
18739W        W23039   5.915   5.130  18.112 -0.1469 -0.1466  0.2182
18740W        W23040  29.200   7.487  26.024  0.0919 -0.1134 -0.0877
18741W        W23041   9.843   7.488   5.693  0.2268  0.0577  0.1158
18742W        W23042   0.984   1.643   7.671  0.0050 -0.1089 -0.0448
18743W        W23043  18.112   1.827  18.703  0.2746 -0.0063  0.0349
18744W        W23044   5.151   5.133  22.211 -0.0266 -0.0156 -0.1595
18745W        W23045   6.287   2.431  15.194 -0.0766 -0.0144  0.3011
18746W        W23046   8.885   0.988  25.110 -0.0275  0.0914  0.5668
18747W        W23047  10.987   5.391  15.886  0.2202 -0.0780 -0.1430
18748W        W23048  26.484   7.205  16.509  0.0345  0.0635 -0.0823
18749W        W23049   7.658   4.127  19.432 -0.1936 -0.1860 -0.1628
18750W        W23050  11.253   7.065  20.060  0.4078 -0.2114 -0.1416
18751W        W23051   3.802   6.912  18.431  0.1160 -0.1807 -0.3816
18752W        W23052  30.510   2.922   1.209  0.0567  0.0275 -0.0341
18753W        W23053  29.111   0.573  21.354  0.0455  0.4211  0.1066
18754W        W23054  27.631   7.367   1.206  0.1018  0.0100 -0.2924
18755W        W23055   6.928   3.496  22.848  0.1517 -0.2213 -0.3703
18756W        W23056   0.547   0.489   1.697 -0.2181  0.1581 -0.0845
18757W        W23057  14.918   5.069  20.852 -0.1339 -0.0328 -0.0771
18758W        W23058  25.158   6.651   4.886 -0.3149  0.0393 -0.0164
18759W        W23059   0.834   3.575  17.422  0.3465 -0.0185  0.1604
18760W        W23060   4.543   1.206   2.751 -0.2578  0.4398  0.2708
18761W        W23061  12.321   4.462  25.961  0.0310 -0.2671  0.0778
18762W        W23062  15.121   2.623  25.318 -0.1371  0.0531 -0.1034
18763W        W23063   5.267   2.649   1.390  0.0419  0.1430 -0.0036
18764W        W23064  26.442   5.757   5.743  0.1617 -0.0181 -0.0036
18765W        W23065  24.338   0.467  18.411  0.3002 -0.0871 -0.2900
18766W        W23066   3.665   2.956   1.079 -0.1998  0.1972  0.1021
18767W        W23067  16.696   4.083  19.867 -0.2421  0.1210 -0.2015
18768W        W23068  28.710   5.756  25.681  0.1379 -0.0251 -0.0061
18769W        W23069  14.650   3.075  26.367 -0.1355 -0.2172  0.0322
18770W        W23070  20.797   5.518   5.536 -0.1278  0.2992 -0.0250
18771W        W23071  12.716   2.012  16.685  0.4778  0.0701 -0.0580
18772W        W23072  23.724   3.321   2.754 -0.1728 -0.2434  0.0085
18773W        W23073  26.520   5.506   2.836 -0.0245  0.0535 -0.0386
18774W        W23074   4.526   1.292   9.924  0.3089 -0.3209  0.1239
18775W        W23075  11.928   6.685   0.942 -0.0936  0.2527 -0.0056
18776W        W23076  15.843   7.405   6.593  0.1847  0.2169  0.0670
18777W        W23077  20.213   6.800  21.086 -0.0236  0.1190 -0.0837
18778W        W23078   2.840   0.670   4.731  0.2296 -0.0842  0.2589
18779W        W23079  10.531   1.788  20.948 -0.0575 -0.0180 -0.0869
18780W        W23080  15.492   0.301  18.138  0.0405  0.3335  0.0505
18781W        W23081  26.248   2.615  26.251 -0.1751  0.3093  0.0861
18782W        W23082   8.870   2.850  23.172  0.0473 -0.1797  0.0772
18783W        W23083  29.888   1.579   5.925  0.1057  0.2535  0.1940
18784W        W23084  29.104   0.040  24.258 -0.1793 -0.0728  0.2268
18785W        W23085  13.237   2.712  24.848  0.2056 -0.1446  0.0080
18786W        W23086  16.810   5.645  24.815 -0.5311 -0.2330  0.1872
18787W        W23087   1.526   7.595  16.391  0.1302  0.3512 -0.1395
18788W        W23088   1.922   1.452  17.764 -0.1434 -0.0890 -0.1831
18789W        W23089  10.467   1.048  25.470 -0.0475  0.1705  0.0514
18790W        W23090  28.544   3.376  21.905 -0.1198  0.3232  0.2454
18791W        W23091   3.651   0.706  24.245 -0.1371 -0.1108  0.0791
18792W        W23092  16.265   5.569   4.508 -0.1092 -0.1355 -0.0056
18793W        W23093  26.282   3.130  16.625 -0.0225  0.0812 -0.0905
18794W        W23094   0.627   5.030  16.384 -0.0981  0.0538  0.1340
18795W        W23095   9.018   4.773  23.808 -0.0545  0.1679 -0.0935
18796W        W23096  21.042   5.960  21.264  0.4445  0.2923 -0.0486
18797W        W23097  16.562   5.171  23.237  0.0679  0.3403 -0.1691
18798W        W23098  22.326   1.391  16.883  0.2613 -0.0184  0.2317
18799W        W23099  15.503   1.278  22.824 -0.1709 -0.3540  0.0317
18800W        W23100   2.708   0.433   8.630  0.1108  0.0858 -0.0349
18801W        W23101  12.594   1.537  24.544  0.1689  0.0136  0.1727
18802W        W23102  14.355   1.099   6.222 -0.1926  0.2166  0.2410
18803W        W23103   1.594   4.735   5.633 -0.0340 -0.0687  0.0578
18804W        W23104   9.922   2.826   8.553 -0.0264  0.1337 -0.0650
18805W        W23105   7.630   0.946  18.424 -0.1172 -0.2100 -0.1772
18806W        W23106  18.175   5.885  20.109 -0.0022 -0.0267  0.2018
18807W        W23107  27.443   5.274  10.595 -0.0791  0.0805  0.0890
18808W        W23108   3.553   7.696  22.516 -0.2074  0.1727 -0.1806
18809W        W23109  10.063   4.222  10.668  0.1513 -0.0243  0.1196
18810W        W23110   6.309   5.802   0.566  0.1000 -0.0128  0.1174
18811W        W23111   8.989   0.032   4.276  0.1248  0.1543 -0.0916
18812W        W23112  24.242   2.636  17.084 -0.1959  0.2274 -0.2279
18813W        W23113  19.374   3.310  23.405  0.1049 -0.1526 -0.1685
18814W        W23114   3.078   4.681   0.708 -0.1311 -0.1849  0.3359
18815W        W23115   0.052   5.012   7.725 -0.1886 -0.0893  0.2300
18816W        W23116  21.916   2.306  17.493 -0.1904  0.0076 -0.0402
18817W        W23117   7.581   1.095   6.505 -0.1323  0.0267 -0.1082
18818W        W23118  27.628   1.434  17.177 -0.1356  0.1159  0.1317
18819W        W23119  29.304   0.434   8.299  0.1406 -0.0828  0.0775
18820W        W23120  12.168   7.200   1.391 -0.1837 -0.0984  0.2593
18821W        W23121  17.228   0.160  21.652 -0.1876  0.0899 -0.2059
18822W        W23122   3.643   2.087  10.906  0.3297 -0.2009 -0.2704
18823W        W23123  19.351   0.173   6.467  0.4162  0.3475  0.0614
18824W        W23124  18.252   4.873   7.886  0.2547  0.1923  0.2186
18825W        W23125  15.312   6.698  25.364 -0.0605 -0.4595 -0.0654
18826W        W23126  30.908   0.054   7.600  0.1570  0.0602  0.1156
18827W        W23127  21.525   7.276  17.940  0.0500 -0.3041 -0.0869
18828W        W23128   7.818   3.336  10.328 -0.0065  0.0321  0.1427
18829W        W23129  10.584   2.741  22.584 -0.2131 -0.2616 -0.1640
18830W        W23130   3.331   2.962  18.649 -0.2338  0.0962  0.1076
18831W        W23131   9.116   3.427   2.666 -0.1997 -0.0640 -0.2106
18832W        W23132   5.242   3.582   6.961  0.0336 -0.0055  0.3900
18833W        W23133  16.445   7.554  18.908 -0.3984 -0.1193  0.0428
18834W        W23134  18.251   7.378  23.260  0.0866  0.0716 -0.2572
18835W        W23135   3.330   0.654  24.690  0.1580 -0.0812 -0.1075
18836W        W23136   2.374   0.849  26.006 -0.2347 -0.0054  0.1892
18837W        W23137   8.195   0.306  21.136 -0.0717  0.1054 -0.1457
18838W        W23138   1.989   4.590  17.212  0.2245 -0.0050  0.0433
18839W        W23139  31.097   2.279   9.417 -0.1317  0.2572  0.1545
18840W        W23140   9.970   0.476   3.412  0.0751 -0.1155  0.0218
18841W        W23141  30.493   0.723  24.348  0.2395 -0.0615  0.1603
18842W        W23142   1.121   6.835   3.846 -0.0189  0.1957  0.0288
18843W        W23143  29.051   6.439   7.285 -0.1988  0.2051 -0.0831
18844W        W23144  21.493   3.445  20.906  0.1172 -0.0076  0.1351
18845W        W23145   3.981   1.783  23.548 -0.0829  0.2275  0.0355
18846W        W23146   1.855   6.538  21.306 -0.1807 -0.0725  0.1770
18847W        W23147   5.679   5.273   8.366 -0.1984 -0.0897 -0.0471
18848W        W23148  20.647   6.057  17.329  0.1164 -0.1658  0.1016
18849W        W23149   9.626   2.678  18.809  0.0694 -0.0143 -0.1530
18850W        W23150  14.337   7.434   2.720 -0.0779 -0.2633  0.0992
18851W        W23151  31.065   0.691   1.354  0.0872 -0.0003 -0.3343
18852W        W23152  25.676   3.398  23.282  0.0900  0.0362 -0.0573
18853W        W23153  13.569   0.123   4.701 -0.0158 -0.0635  0.2215
18854W        W23154   5.500   1.847  22.811 -0.0837 -0.0232  0.1845
18855W        W23155  25.053   7.472   4.355 -0.2934 -0.1383  0.3202
18856W        W23156  12.471   3.932  20.343  0.1656 -0.1497 -0.2126
18857W        W23157  12.588   6.446  18.711 -0.1137 -0.1358  0.0274
18858W        W23158  21.512   1.414  25.679  0.0280  0.4776 -0.0888
18859W        W23159  19.760   6.299  25.702 -0.0760  0.0328 -0.0736
18860W        W23160  13.528   2.136  24.174  0.1908  0.1181  0.1847
18861W        W23161   5.576   1.471  14.949  0.0786 -0.3535  0.2358
18862W        W23162  18.963   1.499   0.595  0.1652  0.0802  0.1071
18863W        W23163  10.683   0.304   7.719  0.0156 -0.2070 -0.0328
18864W        W23164  15.638   0.056  22.293 -0.0114  0.1371 -0.2207
18865W        W23165  19.585   0.142  19.288 -0.0814  0.1185  0.1052
18866W        W23166  21.431   6.058   9.022 -0.1617  0.1387 -0.0979
18867W        W23167  21.993   6.141  26.073 -0.1697  0.1504  0.0891
18868W        W23168   1.259   3.621  25.106 -0.1420  0.3585  0.0201
18869W        W23169   9.530   3.931  19.925 -0.3437  0.0096  0.0840
18870W        W23170  20.006   6.297   6.694  0.3190 -0.0446 -0.1476
18871W        W23171  10.067   5.532  10.705 -0.1003  0.2969 -0.2153
18872W        W23172  19.065   7.207   8.697 -0.0980  0.1898  0.1234
18873W        W23173   5.092   0.419   7.383  0.1885  0.2092 -0.3391
18874W        W23174   5.630   3.426   4.727 -0.1086 -0.1178 -0.2162
18875W        W23175  10.226   4.775  15.725 -0.0552  0.0561 -0.1268
18876W        W23176  11.346   0.897   0.757  0.1230 -0.2253  0.0026
18877W        W23177  20.334   4.958  10.676  0.3097 -0.0667  0.0855
18878W        W23178  14.491   4.501   0.606 -0.0319  0.3031  0.0108
18879W        W23179  19.293   3.482  25.869 -0.0350 -0.0057 -0.1149
18880W        W23180  11.456   6.557   7.066  0.2070 -0.2830  0.0108
18881W        W23181  29.086   1.459  24.374  0.1231  0.0172  0.0058
18882W        W23182   8.042   2.921  10.201 -0.1132  0.0432 -0.0434
18883W        W23183  22.285   6.300  20.959 -0.0928 -0.1215 -0.0025
18884W        W23184  18.571   4.855  22.265 -0.1514  0.0109  0.1400
18885W        W23185  22.494   4.182  20.315  0.0788 -0.0885  0.0996
18886W        W23186  13.027   1.156  22.441 -0.0484 -0.0396  0.1125
18887W        W23187   0.508   7.292  19.448  0.1009 -0.0395 -0.1088
18888W        W23188  23.251   3.101   6.469  0.0417 -0.1524 -0.4240
18889W        W23189  13.780   0.913  26.043 -0.1932  0.0793  0.0963
18890W        W23190   0.480   7.215  16.739  0.1541  0.0376  0.0766
18891W        W23191  26.553   0.778   9.347 -0.1754  0.3115 -0.0844
18892W        W23192  15.069   2.693   1.690 -0.0317  0.1845  0.4328
18893W        W23193   7.561   7.404  19.036 -0.0190  0.0874 -0.0493
18894W        W23194   8.804   6.759   1.542  0.2870  0.2068 -0.1034
18895W        W23195   2.572   4.746  20.966  0.3934 -0.1989  0.0474
18896W        W23196  24.114   7.080  17.855  0.1234 -0.2045  0.4023
18897W        W23197   3.649   0.500   2.708  0.2010 -0.2457 -0.2264
18898W        W23198  12.357   0.581  19.057 -0.0879  0.1833  0.2111
18899W        W23199  19.543   1.195  20.679  0.1994  0.0261 -0.2977
18900W        W23200  15.888   4.182   9.938  0.1610 -0.0868  0.4351
18901W        W23201  27.770   6.541  15.120 -0.0182  0.0281 -0.1129
18902W        W23202  24.162   4.928   6.112  0.1479 -0.1354  0.0334
18903W        W23203  16.619   0.683   6.026  0.2155 -0.1140 -0.0532
18904W        W23204  14.027   6.442  20.836  0.3569  0.3317 -0.0043
18905W        W23205  16.772   6.580  24.916 -0.1941 -0.0883  0.0166
18906W        W23206  25.500   2.058   1.946  0.2290  0.1561  0.0024
18907W        W23207   9.272   6.355   2.145  0.1417  0.0377 -0.1111
18908W        W23208  26.623   2.327  22.740 -0.3910  0.0272  0.0942
18909W        W23209  24.693   5.034  25.999  0.0375  0.2143 -0.0712
18910W        W23210  21.749   7.153  18.393  0.1588  0.0726  0.0198
18911W        W23211   9.321   1.672   8.592  0.0447 -0.2511 -0.2812
18912W        W23212  17.123   2.021   1.691  0.1374  0.1426  0.0361
18913W        W23213  16.445   3.398  21.778  0.0549 -0.1558 -0.1706
18914W        W23214  11.683   7.636  24.199  0.0443  0.1797  0.1030
18915W        W23215   0.112   2.118  25.388 -0.1659  0.0717  0.1500
18916W        W23216   2.734   3.151  10.304 -0.1767 -0.0890 -0.1463
18917W        W23217   2.369   1.335  24.319 -0.0035  0.2717  0.0059
18918W        W23218   7.329   2.348   5.383 -0.0962 -0.1242  0.2772
18919W        W23219   2.210   5.384  19.484  0.0669  0.3250  0.1396
18920W        W23220  12.452   7.613   0.785  0.0371  0.0019 -0.0162
18921W        W23221  26.653   3.531  23.918 -0.1679 -0.4117  0.2165
18922W        W23222   5.363   5.558   4.820  0.3257  0.0946 -0.0803
18923W        W23223  27.589   2.930  22.356 -0.0895  0.0040 -0.0644
18924W        W23224  26.081   5.774   6.603  0.2990  0.0319 -0.0196
18925W        W23225  30.189   1.845   9.891 -0.4308  0.3219  0.0238
18926W        W23226  24.203   4.591   7.798 -0.4030  0.1746 -0.1754
18927W        W23227  28.978   0.549  24.328 -0.0736 -0.3834 -0.0914
18928W        W23228  10.506   2.354  16.694  0.1458  0.2574 -0.0710
18929W        W23229  13.519   5.275  23.736  0.1185  0.0367  0.3458
18930W        W23230   8.575   5.911   0.441 -0.1981  0.0308  0.0934
18931W        W23231   2.029   0.662   3.574 -0.1333  0.0162 -0.1195
18932W        W23232   3.663   7.565  24.400  0.2024  0.0783 -0.0766
18933W        W23233  20.165   0.856  15.987  0.0165 -0.1549  0.0120
18934W        W23234  21.021   7.186  10.836 -0.2185  0.0040  0.1236
18935W        W23235  15.673   0.459  16.470  0.0325 -0.1763 -0.0056
18936W        W23236   1.887   3.567  24.957  0.0708  0.1412 -0.0627
18937W        W23237   8.706   2.895  24.965  0.0667  0.2774  0.0916
18938W        W23238  31.098   5.438  22.765  0.0227 -0.0990 -0.0330
18939W        W23239  18.675   7.397  17.285  0.2256  0.0672 -0.0645
18940W        W23240  11.674   6.931   3.050  0.2252 -0.0952 -0.1644
18941W        W23241  28.319   1.148  25.265  0.2894  0.3852 -0.2877
18942W        W23242  14.441   2.319  18.491  0.2225  0.1470  0.1713
18943W        W23243   7.866   5.372  16.075 -0.1289  0.0086 -0.1115
18944W        W23244  11.926   6.751  21.102  0.1123  0.0210  0.1572
18945W        W23245  14.724   6.037  19.649 -0.0709  0.3200  0.0292
18946W        W23246   8.702   7.556   9.635 -0.2831  0.0618 -0.1515
18947W        W23247  17.832   3.036   1.019  0.0596 -0.1541  0.0751
18948W        W23248  13.681   1.223   8.164  0.0156 -0.2929 -0.0755
18949W        W23249  15.595   1.510   6.956  0.0265  0.2454 -0.0547
18950W        W23250   8.787   2.834  10.706  0.1545 -0.2871  0.1965
18951W        W23251   8.115   2.019   2.076 -0.1005  0.1316 -0.1569
18952W        W23252   9.085   2.102  22.642  0.0018 -0.3860 -0.0786
18953W        W23253   3.282   5.927   3.768 -0.0364  0.4227 -0.3271
18954W        W23254  30.213   6.424  24.809 -0.0061  0.1231  0.0635
18955W        W23255   8.185   4.759  20.728  0.2248 -0.0691  0.2084
18956W        W23256  17.150   3.436   7.713 -0.1236  0.0766 -0.2510
18957W        W23257  23.896   6.373  25.442  0.0929  0.1159  0.0440
18958W        W23258   6.811   2.162   4.456 -0.5156 -0.1270  0.0440
18959W        W23259  28.743   1.017  24.294 -0.0781 -0.1471 -0.3993
18960W        W23260  21.439   7.337  12.100  0.2068 -0.0691  0.3473
18961W        W23261  16.756   5.121  19.884 -0.2805  0.2475  0.0114
18962W        W23262  28.601   2.562  16.668  0.1307 -0.0518  0.2041
18963W        W23263  30.372   6.142   0.104  0.1077 -0.1985  0.1195
18964W        W23264  22.043   6.513   9.770  0.1816  0.1750  0.3494
18965W        W23265  23.859   5.015   2.739  0.3285  0.2430 -0.1023
18966W        W23266  22.664   1.601  17.661  0.2500 -0.2336  0.0025
18967W        W23267  15.674   4.832  17.672 -0.0714 -0.0442 -0.1926
18968W        W23268   5.934   6.060  20.017  0.0951  0.0058 -0.3029
18969W        W23269   9.011   7.466   7.539 -0.1284 -0.2434  0.0488
18970W        W23270  25.110   1.076   1.823 -0.2310  0.0703 -0.2166
18971W        W23271  27.440   1.162   4.755 -0.0495  0.3642  0.1794
18972W        W23272  29.737   1.780  20.157 -0.0846  0.0780  0.1416
18973W        W23273  18.293   1.358   2.951 -0.2321 -0.1861 -0.1358
18974W        W23274  10.634   6.231  17.001  0.0516 -0.0434 -0.0289
18975W        W23275  26.750   4.361   7.767  0.1139 -0.0529  0.1089
18976W        W23276  12.605   6.694   3.207 -0.0950  0.1984 -0.4357
18977W        W23277   6.861   5.119   5.632 -0.0301  0.1662 -0.0139
18978W        W23278   9.381   1.187  23.408  0.0458  0.0452 -0.1355
18979W        W23279  21.797   3.225  23.905 -0.4280  0.0342  0.1183
18980W        W23280  13.841   0.188  15.480  0.1313  0.0845  0.1273
18981W        W23281  19.193   4.711   8.499 -0.1132  0.0391 -0.1794
18982W        W23282   2.139   5.360   3.136 -0.2852 -0.0438 -0.1498
18983W        W23283  29.009   4.357  17.728  0.2088 -0.0961 -0.0707
18984W        W23284  26.551   1.752   7.277 -0.0561 -0.1431 -0.2071
18985W        W23285  13.462   2.849  15.241  0.1171 -0.1956  0.3095
18986W        W23286  19.025   5.787   9.856 -0.0730  0.1792 -0.1828
18987W        W23287  17.131   0.374  19.884 -0.0537  0.2143 -0.1628
18988W        W23288  10.571   1.888   9.415 -0.0578  0.1879 -0.2212
18989W        W23289  11.333   0.842  22.806  0.0415 -0.0214  0.0745
18990W        W23290  29.427   1.579   7.647  0.1274  0.2486  0.2568
18991W        W23291  17.636   6.936  20.720 -0.3338 -0.3187 -0.1520
18992W        W23292  16.075   6.091  24.396  0.1663  0.0802  0.2916
18993W        W23293  26.541   6.303   4.866 -0.0303  0.1927  0.0165
18994W        W23294  20.418   4.443  15.622 -0.1594 -0.0761 -0.7864
18995W        W23295  23.167   6.776   0.276 -0.1714  0.2300  0.0102
18996W        W23296   2.403   6.327  23.265  0.0314  0.0560 -0.0694
18997W        W23297   9.686   0.388   4.335 -0.1343  0.0962 -0.1731
18998W        W23298  13.714   4.005  16.399  0.0780 -0.1254 -0.3172
18999W        W23299  31.038   2.470   3.602  0.0085 -0.1625 -0.0591
19000W        W23300  28.988   1.527  23.333 -0.0457 -0.2057 -0.0563
19001W        W23301  17.252   1.990  22.046 -0.1227  0.4535 -0.2926
19002W        W23302  12.050   0.925   1.232  0.0178 -0.1409  0.1958
19003W        W23303  26.331   4.477   2.098  0.1901 -0.1966  0.1593
19004W        W23304  30.184   2.249  25.699 -0.2705  0.3705  0.2198
19005W        W23305  28.048   7.642  18.622 -0.0624 -0.1364  0.0146
19006W        W23306   4.698   4.904   7.152  0.2279  0.2100 -0.1931
19007W        W23307  26.188   1.024   7.059  0.3175  0.0539  0.0037
19008W        W23308  17.766   5.040   9.200  0.2134  0.0573  0.0846
19009W        W23309  10.218   6.931   5.921  0.0727 -0.1090  0.1325
19010W        W23310   9.291   0.705   4.131 -0.0615 -0.0956 -0.0523
19011W        W23311  31.145   2.121  20.799 -0.3006  0.1278 -0.0223
19012W        W23312  19.964   5.535  16.894  0.0135  0.2024  0.1073
19013W        W23313  21.802   6.178  24.660  0.3656 -0.0963 -0.1009
19014W        W23314  16.913   6.156  18.448 -0.0695  0.0142 -0.1887
19015W        W23315  12.105   0.001  24.385  0.0469  0.3320  0.4203
19016W        W23316   3.239   5.689  25.512 -0.1189  0.2238  0.0727
19017W        W23317  16.080   2.366   2.487  0.1509 -0.0661 -0.0211
19018W        W23318  22.345   4.581   2.046 -0.0472 -0.2560 -0.1356
19019W        W23319  24.364   3.658  11.571 -0.1763  0.0848 -0.0764
19020W        W23320   0.480   1.943  21.596  0.0858  0.1967  0.3561
19021W        W23321   2.661   5.577   0.730  0.0080  0.0435  0.2205
19022W        W23322   2.859   2.108  21.545 -0.1699  0.3382 -0.1727
19023W        W23323  18.517   2.297  20.535  0.1209 -0.2173 -0.4469
19024W        W23324   7.873   5.737   3.680 -0.0989  0.2424 -0.0343
19025W        W23325   0.242   6.496   9.100  0.0990  0.2074 -0.3433
19026W        W23326  25.112   5.342   9.176  0.1399 -0.1742 -0.1518
19027W        W23327  29.157   5.460   4.557 -0.2043  0.0554  0.1024
19028W        W23328  30.334   6.497  16.021  0.2303  0.2911 -0.0805
19029W        W23329   8.644   7.666   7.781  0.0321 -0.1846 -0.1906
19030W        W23330  11.696   3.475  22.313  0.1598  0.2082  0.1038
19031W        W23331  28.169   3.709  20.493 -0.0774 -0.2005 -0.0307
19032W        W23332  31.030   1.803   2.474  0.1233  0.0593 -0.0730
19033W        W23333  25.043   5.433   5.214 -0.0117  0.2114  0.1828
19034W        W23334   5.088   6.961  25.665 -0.2690 -0.2373 -0.0777
19035W        W23335  10.703   4.447  20.342 -0.3172 -0.1886 -0.2193
19036W        W23336  21.240   1.200   0.704 -0.0715 -0.0122  0.3649
19037W        W23337   5.536   5.361  26.412 -0.0909 -0.3474  0.0201
19038W        W23338  21.984   3.174  17.321 -0.1321 -0.0325 -0.1128
19039W        W23339  20.525   7.394  16.764 -0.1408  0.0817 -0.0855
19040W        W23340   5.500   0.585  18.164 -0.2022  0.3153 -0.1314
19041W        W23341   5.166   0.864   4.873  0.3424 -0.2182  0.0384
19042W        W23342   8.753   7.330  19.157 -0.2497 -0.1583 -0.0250
19043W        W23343  15.575   4.993   2.652 -0.0105  0.0396 -0.0303
19044W        W23344   4.600   7.293   2.906 -0.0149 -0.1084 -0.0704
19045W        W23345  28.827   5.871  24.766  0.2077  0.1343  0.3387
19046W        W23346  26.623   2.644   1.030  0.0517  0.2251 -0.2451
19047W        W23347  15.781   2.700   4.417 -0.0946  0.3526  0.1005
19048W        W23348   1.848   1.543   9.921  0.0674  0.0034 -0.1545
19049W        W23349  20.975   6.162  11.063 -0.1534 -0.1145  0.0334
19050W        W23350   2.872   0.191  16.470 -0.2280  0.1475  0.0688
19051W        W23351  20.052   6.976   5.371  0.0373  0.1537 -0.0822
19052W        W23352  11.882   4.585  22.102 -0.3021  0.0197 -0.2943
19053W        W23353  13.409   5.549  17.289 -0.0145 -0.1406 -0.1447
19054W        W23354   3.846   3.966   1.010 -0.0568 -0.0638  0.0475
19055W        W23355  11.699   6.471  19.653 -0.0251  0.0706 -0.1818
19056W        W23356  17.145   3.742   7.234  0.0276 -0.1500 -0.1556
19057W        W23357  25.259   5.686  17.848 -0.2399  0.0367 -0.0010
19058W        W23358   1.187   6.553  16.192 -0.1388 -0.1068  0.2976
19059W        W23359  19.350   6.522   1.865 -0.1388 -0.1064  0.2612
19060W        W23360  25.491   6.410   3.023  0.1428 -0.0847 -0.1064
19061W        W23361  20.708   0.528  16.717 -0.0244  0.1252 -0.0606
19062W        W23362  20.262   1.714  23.087 -0.1562  0.1651  0.0084
19063W        W23363   0.391   7.029   2.358 -0.2177  0.0705 -0.0489
19064W        W23364   1.607   5.614  25.782  0.0077 -0.3272 -0.1068
19065W        W23365   1.765   3.494  21.961  0.2423  0.0164 -0.1398
19066W        W23366  17.202   7.711  14.825  0.3450 -0.0457  0.0087
19067W        W23367  25.203   1.906  24.881 -0.2312  0.0766 -0.0513
19068W        W23368  29.183   0.438  23.640 -0.0805  0.1240  0.0197
19069W        W23369  20.583   0.306   1.571  0.0136  0.0008 -0.0287
19070W        W23370  19.690   4.331   5.087 -0.1817 -0.4055  0.0084
19071W        W23371  24.224   7.453   0.750  0.1634  0.0859 -0.1500
19072W        W23372   2.005   6.611   7.017  0.1438 -0.1421  0.0342
19073W        W23373  23.867   3.038   3.567  0.2888 -0.0075  0.2500
19074W        W23374  15.346   1.480  24.543  0.1205 -0.0218  0.2519
19075W        W23375   3.982   0.524   8.916 -0.2267 -0.1019 -0.0476
19076W        W23376  19.337   6.186  21.938 -0.1626  0.3657  0.0184
19077W        W23377  26.717   7.793  25.817  0.2975  0.0030 -0.1103
19078W        W23378   8.484   0.452  22.095  0.1966  0.3715  0.0091
19079W        W23379  13.519   3.244   1.453 -0.1741  0.0399  0.0365
19080W        W23380   5.310   1.634  25.864  0.0137 -0.1312 -0.0876
19081W        W23381  24.444   5.368  19.218  0.1243 -0.3653  0.0754
19082W        W23382  17.556   2.853   2.981 -0.1242 -0.1094  0.0321
19083W        W23383  11.081   0.122  16.959 -0.0779  0.1370 -0.0987
19084W        W23384   9.804   5.314  19.024  0.0713  0.2208 -0.0869
19085W        W23385  21.520   5.372  25.768  0.1327  0.0193  0.0155
19086W        W23386  26.948   1.117   3.176 -0.2626  0.0281 -0.2536
19087W        W23387   3.043   4.585  22.660  0.0260 -0.1450  0.3178
19088W        W23388   8.261   4.660   4.449  0.0873  0.1195  0.2139
19089W        W23389  13.632   3.630  23.285 -0.3787  0.0895  0.2265
19090W        W23390  24.210   1.972   9.545  0.0373 -0.0738  0.2018
19091W        W23391  23.763   2.359   4.344  0.2805  0.2685 -0.0297
19092W        W23392  26.779   0.983  21.058 -0.0197 -0.1615 -0.2141
19093W        W23393   4.984   2.703  23.304  0.1043  0.2482  0.1269
19094W        W23394   8.390   3.403  15.697 -0.0877  0.0523 -0.0003
19095W        W23395  11.227   1.931  20.601 -0.3825  0.0014  0.2973
19096W        W23396  11.113   1.375  22.619 -0.2399 -0.2319 -0.0222
19097W        W23397   0.152   3.965  16.254 -0.0772 -0.0184  0.1101
19098W        W23398  25.045   2.817  10.672 -0.0380 -0.1295  0.2026
19099W        W23399  11.946   0.665   8.989 -0.2111  0.0033 -0.1087
19100W        W23400  16.566   7.287  26.093 -0.0921  0.1873  0.0496
19101W        W23401  24.979   1.914   1.449  0.0292 -0.1420  0.2245
19102W        W23402  23.616   5.062   0.949  0.2193 -0.1816 -0.0555
19103W        W23403   8.373   3.730  18.582  0.1079  0.1563 -0.1390
19104W        W23404   8.678   0.697  26.199  0.2402  0.3457  0.2735
19105W        W23405   4.417   2.377   1.133  0.0753 -0.1023 -0.0177
19106W        W23406  16.296   5.001  22.672  0.2862  0.0086 -0.0621
19107W        W23407  26.571   1.456   6.870 -0.2942  0.1916 -0.0892
19108W        W23408  16.696   6.303  16.498  0.0329  0.4085  0.0699
19109W        W23409   9.580   1.444   3.405  0.3582  0.0063 -0.1554
19110W        W23410   9.017   0.763  20.823 -0.1513  0.1881  0.0106
19111W        W23411  18.534   3.575  17.742  0.3485  0.2951  0.1870
19112W        W23412  10.834   2.292  19.233  0.2259  0.0406 -0.3550
19113W        W23413   0.544   0.577   8.236 -0.1556 -0.1288  0.1179
19114W        W23414  12.325   2.905  18.478 -0.0305 -0.1324 -0.1110
19115W        W23415  13.372   5.256  15.709 -0.0134  0.0771  0.2989
19116W        W23416  16.321   0.855   8.775 -0.1410  0.1589  0.0936
19117W        W23417  28.759   1.013   6.025 -0.0385 -0.1504 -0.0009
19118W        W23418   1.811   1.973   1.361  0.2288  0.2552  0.0314
19119W        W23419   5.098   6.405   5.084 -0.1885 -0.2050 -0.0410
19120W        W23420  16.719   4.337   1.736 -0.0573  0.0672 -0.3079
19121W        W23421  18.010   2.358  22.714  0.0428  0.0681  0.0666
19122W        W23422  19.749   0.320  16.491 -0.0158  0.2704  0.0834
19123W        W23423  30.944   0.826   1.947  0.1681  0.2038 -0.2708
19124W        W23424   6.721   7.254  19.008  0.1929  0.0551  0.0015
19125W        W23425   0.095   3.544   5.682 -0.1028 -0.0230 -0.1507
19126W        W23426   9.298   7.378  24.063  0.2872 -0.0709  0.0323
19127W        W23427   2.163   1.866   6.530  0.0583  0.3397 -0.1819
19128W        W23428  30.914   6.383   4.212  0.2165  0.0793 -0.0036
19129W        W23429   4.703   3.798  15.932  0.0174 -0.3148  0.0531
19130W        W23430   9.445   7.740   7.012 -0.0209  0.0967  0.3508
19131W        W23431  22.488   5.744  23.911  0.0794  0.0136  0.0718
19132W        W23432   2.904   2.200  18.899 -0.0707  0.1411 -0.0721
19133W        W23433  25.469   4.462  23.388 -0.0023 -0.0020 -0.0165
19134W        W23434  15.818   3.661  22.521  0.2427 -0.0670 -0.0684
19135W        W23435  11.435   7.037   4.217 -0.0032 -0.2607 -0.2196
19136W        W23436  12.904   3.773   1.668 -0.0890  0.1442 -0.3349
19137W        W23437  14.888   5.389   7.765  0.3010 -0.1811 -0.0972
19138W        W23438  27.484   6.305   8.382 -0.0344 -0.0392 -0.1392
19139W        W23439  24.871   7.771  17.755 -0.2705 -0.3953 -0.0387
19140W        W23440  10.787   0.012  16.033  0.0304  0.2393 -0.2674
19141W        W23441  21.167   4.022   5.069  0.4122 -0.2640  0.0960
19142W        W23442  17.569   2.219   2.490 -0.2940  0.0570 -0.0195
19143W        W23443   5.197   2.945   2.447  0.1391 -0.3553 -0.3221
19144W        W23444  30.484   5.295  17.512 -0.0704  0.2925 -0.1826
19145W        W23445   1.914   3.970   0.713 -0.1236 -0.0763 -0.2144
19146W        W23446  17.196   6.572  18.583 -0.1849 -0.0753 -0.1460
19147W        W23447  22.331   1.260  23.197 -0.2206 -0.1961 -0.1447
19148W        W23448  14.677   6.478   1.040 -0.2197  0.0503  0.0901
19149W        W23449  11.455   5.401  21.753 -0.0824 -0.3689 -0.2938
19150W        W23450  24.569   0.222  20.572  0.2631  0.0460  0.4655
19151W        W23451  21.667   0.752  20.164 -0.1728  0.2947 -0.0380
19152W        W23452  15.738   7.125   2.361 -0.1406 -0.1195 -0.0318
19153W        W23453   3.663   3.497  11.233  0.5203 -0.1652  0.1151
19154W        W23454  20.902   2.804  10.502 -0.3602 -0.0088 -0.1457
19155W        W23455  11.255   0.956  22.330 -0.0211 -0.1279  0.1934
19156W        W23456   6.882   5.706  25.373  0.1755 -0.0083 -0.1588
19157W        W23457   5.646   6.618  18.212  0.2524 -0.1762 -0.0941
19158W        W23458  23.020   3.788  25.118  0.0160 -0.0163  0.0894
19159W        W23459  30.080   5.261   1.021 -0.3122 -0.0755 -0.0079
19160W        W23460  11.324   7.670  24.568  0.1046  0.2586  0.1077
19161W        W23461   0.002   1.863  21.245  0.0910  0.1585  0.0572
19162W        W23462  18.781   2.768   6.275 -0.1658 -0.0199 -0.2200
19163W        W23463   1.641   6.512  20.351  0.1908 -0.0570 -0.0863
19164W        W23464   0.431   3.664   7.866  0.0277 -0.2924 -0.1229
19165W        W23465  25.226   2.709  21.419 -0.0446  0.0767  0.0851
19166W        W23466   6.092   2.637   6.757  0.1416 -0.0948  0.4229
19167W        W23467  30.844   3.735   7.342 -0.0208  0.0485 -0.2260
19168W        W23468   2.823   2.214  10.386 -0.2412 -0.0065  0.1404
19169W        W23469   3.497   5.949   0.669 -0.4214  0.0577  0.2200
19170W        W23470  20.743   0.997  10.773  0.1441  0.0610  0.0110
19171W        W23471   7.573   2.624   4.121 -0.0618 -0.0785  0.0695
19172W        W23472  23.838   0.548   2.264 -0.1478  0.1816 -0.1648
19173W        W23473  28.460   4.113  26.222 -0.2013 -0.2853 -0.2856
19174W        W23474  18.481   4.452  21.507 -0.1755 -0.2500  0.0201
19175W        W23475  22.344   5.775  16.511  0.3970  0.1193  0.1614
19176W        W23476   5.736   1.333  17.603 -0.0747 -0.0878  0.0736
19177W        W23477   4.467   1.562   4.937 -0.1853 -0.0373  0.0338
19178W        W23478  28.769   7.212  25.789 -0.2527  0.0027  0.0127
19179W        W23479  28.524   3.027   5.944  0.1464  0.0456  0.2143
19180W        W23480   0.407   4.580  18.338  0.0731 -0.1744 -0.3611
19181W        W23481   3.994   4.950  18.192 -0.3376 -0.1780  0.0675
19182W        W23482  22.642   3.101  17.619 -0.3105  0.0336 -0.1417
19183W        W23483  13.677   4.921   4.262  0.1680  0.0860 -0.3468
19184W        W23484  12.981   4.306  20.147 -0.2336 -0.0490  0.0609
19185W        W23485   0.530   2.028   3.186 -0.2491 -0.1972 -0.1168
19186W        W23486  12.240   1.133   4.430 -0.2673  0.0429 -0.1901
19187W        W23487  15.592   0.874  15.054 -0.2265 -0.3469 -0.2203
19188W        W23488  18.302   3.267   8.104  0.2701 -0.0984  0.1156
19189W        W23489  24.611   4.219  21.538 -0.1396 -0.0427 -0.0759
19190W        W23490  28.202   0.630  15.923  0.1124 -0.1732 -0.0653
19191W        W23491  23.871   6.827   5.552 -0.0019  0.0220  0.1500
19192W        W23492  15.173   0.238  22.050  0.2819 -0.0007 -0.0108
19193W        W23493  25.323   7.136   1.290 -0.0515  0.1756  0.2870
19194W        W23494   2.832   1.652   4.374  0.0632  0.1420  0.0314
19195W        W23495  11.362   5.235  17.287 -0.0970  0.0908  0.0807
19196W        W23496  24.859   0.886  22.904  0.2117 -0.2647  0.2189
19197W        W23497  19.321   6.362   3.584  0.1579  0.0323 -0.0833
19198W        W23498   5.419   1.888  25.364  0.1188  0.0714 -0.2374
19199W        W23499  27.900   7.483  25.409  0.0638 -0.0280  0.1047
19200W        W23500   2.248   0.446   6.039 -0.0404 -0.0547  0.0916
19201W        W23501   7.360   0.791  24.980  0.2587 -0.1904  0.1206
19202W        W23502  23.263   7.523   3.986  0.3554 -0.0169  0.0948
19203W        W23503   8.792   2.197  25.386  0.0460  0.1455 -0.2281
19204W        W23504   5.721   3.166  22.315 -0.0896 -0.1867  0.2341
19205W        W23505  15.932   3.844  23.228  0.2323 -0.0437 -0.1469
19206W        W23506  27.362   4.808   4.368  0.0175 -0.1244  0.0836
19207W        W23507   5.358   4.745   9.158 -0.0917 -0.1560 -0.1213
19208W        W23508  15.229   6.290  24.224 -0.0059 -0.0688  0.2364
19209W        W23509   2.684   1.977   6.368 -0.1342  0.0130  0.1047
19210W        W23510   0.477   3.877   1.507  0.1590 -0.0710  0.1155
19211W        W23511   0.024   1.152   0.687 -0.0051 -0.0424  0.5465
19212W        W23512   9.307   6.826   6.115 -0.0905 -0.1479  0.0730
19213W        W23513  11.126   4.222   6.436 -0.2902  0.0024  0.1147
19214W        W23514  23.024   3.029   8.283 -0.3274  0.0681 -0.2308
19215W        W23515   4.585   1.704  19.701 -0.0823  0.2377  0.0651
19216W        W23516  20.254   6.284   7.234 -0.0461 -0.3371 -0.1246
19217W        W23517  30.341   3.525  16.088 -0.1405 -0.1006 -0.1449
19218W        W23518  18.264   6.400   3.547  0.4709 -0.2182  0.4040
19219W        W23519  10.335   1.236  18.583 -0.1995 -0.0777 -0.1251
19220W        W23520  19.711   3.038  15.766  0.1967  0.0090  0.0204
19221W        W23521  12.881   5.556  23.015 -0.1781 -0.1984 -0.3772
19222W        W23522   7.935   0.836  22.958  0.1619  0.3343  0.1818
19223W        W23523   6.730   2.862   1.789  0.0040 -0.4698 -0.2055
19224W        W23524  30.344   3.763  17.597  0.0067 -0.1662  0.1042
19225W        W23525  16.714   1.904   8.924 -0.1074  0.0990  0.1029
19226W        W23526  11.990   3.331  23.247 -0.1241  0.1188  0.2778
19227W        W23527  15.199   6.897  24.369  0.0117 -0.0744 -0.0790
19228W        W23528  22.739   6.130  19.208 -0.0537  0.3279  0.1269
19229W        W23529   7.180   2.052   2.021 -0.3123 -0.0474 -0.0298
19230W        W23530  21.378   5.622   1.011 -0.1488 -0.1417 -0.0054
19231W        W23531   9.987   4.944   6.675  0.0469 -0.1048  0.4511
19232W        W23532  18.439   2.363   0.202  0.0932  0.1469  0.1727
19233W        W23533  14.379   2.934  10.039 -0.1739  0.2008 -0.0234
19234W        W23534  17.383   1.588  25.268  0.2287  0.1871 -0.1555
19235W        W23535  28.056   4.735   5.031 -0.1075 -0.1999  0.0293
19236W        W23536  30.894   0.311  20.515 -0.0949  0.0477  0.5581
19237W        W23537  23.573   7.436  22.265  0.2058  0.0298  0.0732
19238W        W23538  10.691   6.891  16.095 -0.2819  0.1937  0.2579
19239W        W23539  10.513   2.494   5.093 -0.2640 -0.2135  0.3385
19240W        W23540  13.595   2.786   4.840  0.0245 -0.2164  0.0383
19241W        W23541   8.700   2.552  22.455  0.0278  0.1476  0.1071
19242W        W23542  10.860   4.482  17.988  0.0267 -0.2576 -0.0414
19243W        W23543  23.819   5.281  10.586 -0.1124  0.0253 -0.4471
19244W        W23544  17.700   3.168   2.574  0.3142 -0.0808 -0.2160
19245W        W23545  16.818   2.157   1.252  0.0343 -0.1133  0.1415
19246W        W23546  24.531   6.930  25.057  0.3030 -0.1927 -0.2620
19247W        W23547  18.815   7.240  19.327 -0.1980 -0.0794  0.3543
19248W        W23548  28.985   5.183   1.951  0.0208  0.2011  0.0850
19249W        W23549   3.211   6.139  16.148 -0.1084 -0.1981  0.0254
19250W        W23550   0.674   6.819  22.921 -0.0954  0.0558 -0.2680
19251W        W23551   2.553   0.990  21.769  0.0496  0.0871  0.0229
19252W        W23552  15.694   4.400   4.683  0.1305  0.1174  0.0732
19253W        W23553  16.571   6.879   6.971  0.0609 -0.2723 -0.1887
19254W        W23554   7.862   7.154   7.893  0.1634  0.1380  0.0703
19255W        W23555  14.181   5.356  24.379  0.0561 -0.0572 -0.1124
19256W        W23556   0.778   2.978  10.285  0.3017 -0.0065  0.1112
19257W        W23557   1.033   2.061  25.225  0.1802 -0.1160  0.0370
19258W        W23558   6.430   1.334   4.314  0.0318  0.1326 -0.1510
19259W        W23559   1.919   0.266  23.031 -0.0957  0.0009 -0.1339
19260W        W23560  21.424   6.455  24.549  0.1351  0.1395  0.2260
19261W        W23561   8.696   1.955   9.256 -0.1963  0.2497  0.0854
19262W        W23562  13.732   4.113   7.496  0.0643  0.1009  0.2832
19263W        W23563   1.194   3.365   5.541 -0.0070 -0.1084 -0.3648
19264W        W23564  12.701   1.581  21.564  0.1822  0.1184  0.0281
19265W        W23565   8.058   7.798  10.836  0.0918 -0.0314 -0.0021
19266W        W23566  14.474   2.094   9.768  0.0424 -0.0936  0.1254
19267W        W23567   3.850   1.073  15.839 -0.1071  0.1082  0.1425
19268W        W23568   4.653   7.389   0.318  0.0699  0.0205  0.1681
19269W        W23569  17.286   6.761   0.005  0.0649  0.0336 -0.0908
19270W        W23570   7.576   4.562   4.366  0.0482  0.2034 -0.2047
19271W        W23571  14.292   5.342   4.022 -0.0572  0.0650 -0.3240
19272W        W23572  21.563   0.976   8.098 -0.0511 -0.1843  0.2596
19273W        W23573  24.869   4.450   9.494  0.0080 -0.0991 -0.1367
19274W        W23574  23.574   5.893   0.002 -0.1164  0.1160 -0.1310
19275W        W23575   6.198   6.929  25.393 -0.0509 -0.0910  0.1596
19276W        W23576  13.927   5.553  26.242  0.3175  0.1748  0.2933
19277W        W23577  10.125   7.695  17.973 -0.2368 -0.1930  0.2560
19278W        W23578  16.176   3.114  26.061 -0.1101 -0.0356 -0.2300
19279W        W23579  12.464   3.042   9.498  0.0302 -0.2339 -0.2690
19280W        W23580   8.253   2.324  24.472  0.0357 -0.2321  0.2107
19281W        W23581  10.112   5.336  19.860 -0.0533 -0.0116  0.1113
19282W        W23582  17.983   1.684   7.608  0.1657  0.0266  0.0320
19283W        W23583  29.598   4.390   2.827  0.0539 -0.2174 -0.2651
19284W        W23584  19.049   2.174   3.498  0.2460  0.2135 -0.1793
19285W        W23585  31.104   5.677  19.208 -0.0530  0.2291  0.1901
19286W        W23586  25.731   3.996  20.465 -0.1757  0.2999  0.1664
19287W        W23587  25.250   2.289  16.490 -0.0774  0.1804 -0.0178
19288W        W23588  22.554   0.844   5.264 -0.0431  0.2858  0.3058
19289W        W23589  11.421   4.168  14.869 -0.1635 -0.2085  0.2686
19290W        W23590   6.140   6.427  21.798  0.2230  0.0847 -0.1696
19291W        W23591   3.546   6.936  25.573 -0.2742 -0.2745  0.3317
19292W        W23592   5.338   0.328  11.434  0.1794  0.3157  0.1467
19293W        W23593   4.231   5.676  22.614 -0.1522 -0.0550 -0.0725
19294W        W23594   1.621   6.049  20.619  0.2060 -0.0020  0.0916
19295W        W23595   0.949   6.281   7.259  0.3594 -0.1228 -0.0261
19296W        W23596  28.819   6.066   0.505 -0.2884  0.1617  0.2791
19297W        W23597   6.197   6.467  26.420  0.0209 -0.0068  0.0084
19298W        W23598  24.733   6.893  21.678 -0.2366  0.1435  0.2443
19299W        W23599  24.678   2.853  17.874  0.0715 -0.1112  0.0436
19300W        W23600  24.020   6.372   5.784  0.1057  0.2036  0.1339
19301W        W23601   6.722   6.660   1.237  0.2334 -0.0219  0.3138
19302W        W23602  26.156   7.252  16.885 -0.0013  0.0324 -0.2551
19303W        W23603  12.825   7.447   8.364  0.1337 -0.1396  0.2232
19304W        W23604  10.575   5.264  19.524 -0.4936  0.0390 -0.4520
19305W        W23605  11.302   7.053   1.401  0.0382  0.0904 -0.1094
19306W        W23606  24.962   6.797  17.175  0.0921 -0.1373  0.2948
19307W        W23607  19.511   2.481  23.055  0.2721 -0.0962 -0.0978
19308W        W23608   1.379   3.401  16.715 -0.0176  0.1233 -0.2326
19309W        W23609  21.562   4.182   9.452 -0.1094 -0.0090  0.1070
19310W        W23610  10.959   1.970  21.099 -0.2298  0.2726  0.0231
19311W        W23611  22.368   4.389   4.749 -0.1572 -0.0231  0.2635
19312W        W23612   7.798   7.231  22.735 -0.4836 -0.1327  0.2180
19313W        W23613  21.036   2.237  15.538 -0.0403 -0.0874 -0.1174
19314W        W23614  16.521   6.068   3.820 -0.2578 -0.0825 -0.0486
19315W        W23615  20.389   2.179   2.701  0.3307  0.1252 -0.0508
19316W        W23616  18.905   0.512   8.781  0.1241 -0.0061  0.0064
19317W        W23617  12.934   4.108  20.652 -0.3155  0.0604 -0.1832
19318W        W23618  26.410   6.272  15.996 -0.3235  0.1097 -0.0117
19319W        W23619  27.338   2.414   8.039 -0.1160 -0.0661 -0.0509
19320W        W23620   7.457   0.634   0.288 -0.0797  0.1421 -0.0047
19321W        W23621   8.724   5.684   4.390  0.2651  0.1767 -0.2578
19322W        W23622  20.370   4.664  25.751 -0.1112 -0.0301 -0.3880
19323W        W23623  21.433   0.664  19.002 -0.1423  0.2024  0.0998
19324W        W23624   8.066   0.064  10.262  0.0200 -0.2644 -0.0547
19325W        W23625  24.755   7.614   4.745 -0.2798  0.3667 -0.1102
19326W        W23626   1.660   4.273   8.278  0.0173  0.2462 -0.2324
19327W        W23627  10.372   7.715   7.941  0.3612 -0.1084  0.3810
19328W        W23628  21.744   3.240   4.191 -0.0246  0.0830  0.1547
19329W        W23629  10.702   1.342   6.157 -0.1566 -0.0213 -0.1441
19330W        W23630  20.626   3.739  26.044 -0.0071 -0.0860 -0.1647
19331W        W23631  22.535   6.731   2.178  0.0744 -0.3231  0.1359
19332W        W23632   5.954   5.637   0.970  0.0944  0.0945  0.0740
19333W        W23633  26.438   0.649  19.018  0.0752 -0.0075 -0.2540
19334W        W23634   8.464   6.095   4.179 -0.3966  0.0303 -0.0624
19335W        W23635   9.916   4.100   7.924  0.1390 -0.2262  0.1813
19336W        W23636  20.405   6.098  11.066  0.0924  0.0443 -0.0147
19337W        W23637  22.488   0.233  17.907 -0.0065 -0.1679  0.0819
19338W        W23638  24.059   4.764  17.509  0.0108 -0.2042 -0.4043
19339W        W23639  30.971   5.836  25.394 -0.0786 -0.0114 -0.0479
19340W        W23640  25.374   3.888   5.148 -0.0063 -0.0260  0.1435
19341W        W23641   7.624   7.144  26.299  0.0454  0.2054  0.0487
19342W        W23642   6.475   1.735   0.895 -0.0731 -0.0055  0.0231
19343W        W23643  16.555   0.470  22.774  0.2725 -0.1486  0.1970
19344W        W23644   4.972   4.883  22.639 -0.1462  0.0420 -0.4007
19345W        W23645  27.639   4.968  22.313  0.2368 -0.2069  0.3266
19346W        W23646  23.815   2.864  18.904 -0.0206  0.1066  0.0351
19347W        W23647  29.235   6.473   0.796  0.0362  0.4375 -0.2908
19348W        W23648  16.388   3.108  16.006 -0.0755  0.1366 -0.1469
19349W        W23649  25.339   1.655   6.617 -0.1357  0.1838 -0.2277
19350W        W23650   8.794   1.520  24.374  0.1043  0.3359  0.1174
19351W        W23651  24.563   5.766  24.423 -0.0690  0.0831  0.2589
19352W        W23652  11.796   0.015  10.293  0.1966  0.0181  0.0810
19353W        W23653  22.106   5.599   1.877  0.1840 -0.0819  0.1609
19354W        W23654   9.407   3.700   9.551  0.1671 -0.0881 -0.1391
19355W        W23655  25.305   3.696  18.861  0.1770 -0.0389 -0.2101
19356W        W23656  22.633   4.712   3.255  0.1733  0.1341  0.1163
19357W        W23657  11.268   1.074  16.560 -0.1023 -0.1569 -0.1268
19358W        W23658  24.038   2.423  24.811 -0.0041 -0.2295  0.0826
19359W        W23659   2.927   3.330   0.702  0.1136 -0.0807  0.0750
19360W        W23660   3.390   2.609   7.773 -0.0588  0.0761  0.2301
19361W        W23661  24.655   7.073  20.539 -0.3425 -0.1186 -0.2029
19362W        W23662  28.527   4.613  20.331  0.2766 -0.0572 -0.2328
19363W        W23663  19.659   0.537  25.983  0.2800  0.1811  0.0910
19364W        W23664  21.949   0.919   0.130  0.4337 -0.2428  0.0370
19365W        W23665  21.509   4.038  25.664  0.1681  0.0257 -0.0203
19366W        W23666   3.386   0.741  21.705  0.0454  0.0386  0.3297
19367W        W23667  11.593   0.402  23.765  0.1452 -0.4589  0.0788
19368W        W23668  28.763   2.313   0.583 -0.1696  0.2436 -0.0796
19369W        W23669   3.786   7.132  24.279 -0.1507 -0.0949  0.0300
19370W        W23670  18.714   3.684   8.097 -0.0239  0.2249  0.0281
19371W        W23671  27.736   7.201  17.166  0.1121 -0.1813  0.0131
19372W        W23672  20.655   5.925  19.326 -0.4393 -0.0217  0.0880
19373W        W23673   3.407   2.389   3.071 -0.0890  0.2172  0.1507
19374W        W23674   7.180   0.052  21.405 -0.0858 -0.0392 -0.1679
19375W        W23675  16.994   6.579   4.971 -0.2180  0.4744  0.1849
19376W        W23676  18.408   1.423   4.177  0.1943 -0.0531 -0.1729
19377W        W23677   1.705   2.876  23.355 -0.0774  0.0461 -0.1577
19378W        W23678  22.725   7.576   0.336  0.2968 -0.3483  0.0855
19379W        W23679  21.847   1.211  18.854  0.0174 -0.2112  0.1864
19380W        W23680  23.632   5.087  24.250 -0.0951  0.3509  0.3536
19381W        W23681   2.664   0.519  16.080 -0.3273 -0.0874 -0.0670
19382W        W23682  20.903   5.119  21.244 -0.0704  0.2970 -0.1956
19383W        W23683   2.955   5.184   2.056  0.3511 -0.1349 -0.1642
19384W        W23684  15.143   7.494   4.247  0.2699  0.2580  0.2008
19385W        W23685  29.983   5.507   5.505  0.0122  0.1049  0.0412
19386W        W23686  24.064   4.433  18.141  0.3216 -0.0998 -0.0631
19387W        W23687   8.168   4.934  18.445  0.0056 -0.0443 -0.1027
19388W        W23688  22.410   2.685  25.117 -0.1773 -0.0313  0.2442
19389W        W23689  30.959   1.557  20.616 -0.0057 -0.2675  0.1452
19390W        W23690   2.806   3.687  10.069  0.0821  0.1420 -0.1866
19391W        W23691  26.754   2.095  20.593  0.0081 -0.0319 -0.2054
19392W        W23692  27.137   5.886  21.635 -0.0884 -0.0447 -0.1114
19393W        W23693   4.965   5.972   4.714 -0.4241  0.0070  0.1154
19394W        W23694   9.279   7.621  17.636 -0.0964  0.2741  0.1050
19395W        W23695   9.783   7.482   9.068  0.0399  0.2171  0.1494
19396W        W23696  16.280   4.179   6.593 -0.3353 -0.0105 -0.0252
19397W        W23697  24.041   1.752  23.365 -0.1134 -0.1075  0.2213
19398W        W23698  22.368   1.708  21.135 -0.4003 -0.1333  0.1683
19399W        W23699  20.215   5.777   8.466 -0.1530  0.0697  0.0862
19400W        W23700   5.386   2.835  15.916  0.1222 -0.0272  0.1979
19401W        W23701  31.105   2.493   0.282 -0.1349  0.0846 -0.1159
19402W        W23702   5.496   5.923   3.814 -0.1831  0.2894 -0.0133
19403W        W23703   8.778   5.709  23.247  0.1424  0.0091  0.1144
19404W        W23704   4.082   1.635  25.671  0.0232  0.1936 -0.0252
19405W        W23705   9.690   4.328   1.445  0.0062 -0.1788 -0.1738
19406W        W23706  11.059   1.771   7.784  0.1574 -0.0668 -0.1639
19407W        W23707  24.299   1.386   7.078 -0.0066 -0.3887  0.2152
19408W        W23708  27.875   0.736   6.125 -0.1422 -0.3524 -0.2803
19409W        W23709   9.988   3.821   5.190 -0.1518  0.0768  0.2420
19410W        W23710  14.011   7.049  22.390 -0.2592  0.0512  0.2809
19411W        W23711  10.797   6.662  17.883  0.0054 -0.1632 -0.0560
19412W        W23712  11.148   5.433   6.582 -0.0030 -0.1480  0.0147
19413W        W23713   1.647   6.256   0.785  0.3058  0.4858 -0.0677
19414W        W23714   0.100   5.642   8.521  0.3801 -0.1633  0.1016
19415W        W23715  26.925   5.606  22.643 -0.0116 -0.0870 -0.4109
19416W        W23716   7.371   2.804  18.970  0.1316 -0.1968 -0.2707
19417W        W23717  20.130   4.548   5.273  0.0572  0.0987  0.1264
19418W        W23718   5.457   3.119  25.904  0.0591 -0.1355 -0.0434
19419W        W23719  13.259   2.329   8.443  0.1296  0.2308  0.2432
19420W        W23720  23.724   6.514   9.827 -0.0319 -0.0414  0.0043
19421W        W23721  29.670   5.802   1.490 -0.1675  0.1311 -0.0770
19422W        W23722   4.481   0.814   4.596 -0.0375 -0.1858  0.2108
19423W        W23723  28.948   2.569   2.035 -0.0484 -0.3067  0.0365
19424W        W23724   3.516   6.022  10.202  0.2889  0.2660 -0.0360
19425W        W23725  22.514   0.326  20.645  0.0773 -0.0994 -0.0069
19426W        W23726   3.994   1.521  17.205 -0.1391 -0.0149 -0.0100
19427W        W23727  16.025   6.157   5.385 -0.2460 -0.3274 -0.3265
19428W        W23728   8.714   7.135   6.850 -0.1822  0.3165 -0.0166
19429W        W23729  11.744   1.352  21.195  0.4117  0.2856  0.3293
19430W        W23730  29.431   3.203  10.490 -0.0876  0.0468  0.0516
19431W        W23731   4.447   1.818  20.590  0.2900  0.0753 -0.0421
19432W        W23732  16.258   7.378  21.330  0.0682  0.0217  0.0180
19433W        W23733  27.671   5.632   2.264 -0.0528  0.0081  0.3047
19434W        W23734  20.260   4.819  16.111 -0.2490 -0.1342  0.0191
19435W        W23735  22.407   7.399  26.407 -0.1063 -0.4238 -0.1368
19436W        W23736  25.475   5.248   5.620  0.3377  0.2535  0.0577
19437W        W23737  29.904   5.381  17.791  0.1792  0.2346  0.0848
19438W        W23738  11.738   2.778   3.310 -0.2188  0.0324 -0.0513
19439W        W23739  16.630   5.065   6.215 -0.1084  0.3110  0.0224
19440W        W23740  10.614   5.930  24.455  0.1231  0.0043 -0.0416
19441W        W23741  10.845   1.761  25.665 -0.0477  0.1232  0.0569
19442W        W23742  25.247   2.121  10.043  0.0834 -0.0284  0.0269
19443W        W23743   8.174   5.674  16.520 -0.3142 -0.0634 -0.2026
19444W        W23744  20.741   2.447  17.818 -0.4321  0.2845 -0.0399
19445W        W23745  12.617   1.062   3.008 -0.0574 -0.1220 -0.2290
19446W        W23746   1.651   0.614  11.015 -0.0456 -0.0675  0.4385
19447W        W23747  18.930   7.196  24.980  0.0673  0.0327  0.0288
19448W        W23748  21.316   0.781  23.385  0.2674 -0.1055  0.2033
19449W        W23749   8.106   2.840   6.233 -0.0105  0.2090  0.2118
19450W        W23750  16.553   7.783   8.231 -0.1912  0.1900  0.2577
19451W        W23751  21.535   2.869   6.732 -0.1087  0.0953 -0.1497
19452W        W23752  12.579   6.736  14.706  0.0482 -0.0572  0.0743
19453W        W23753  25.256   3.259  10.609 -0.2221 -0.0274  0.0482
19454W        W23754  14.638   1.852  17.149 -0.0652  0.1120  0.1411
19455W        W23755  13.869   5.390   8.408 -0.0031  0.0843 -0.0277
19456W        W23756  28.521   3.012  25.659  0.0422  0.1018 -0.0199
19457W        W23757  17.029   7.100  15.881 -0.0939  0.0989  0.0603
19458W        W23758  16.289   1.383  25.700 -0.2652  0.3083  0.1755
19459W        W23759  17.036   0.984  19.054 -0.1320  0.2351  0.0143
19460W        W23760   4.573   7.222  16.248  0.1985 -0.3545 -0.1044
19461W        W23761  28.775   1.799  10.505  0.0319 -0.0704  0.1700
19462W        W23762  26.309   3.652  20.332 -0.3195  0.3263 -0.0573
19463W        W23763  23.632   2.639  10.165  0.1490  0.1262 -0.2334
19464W        W23764  21.158   5.812   5.688 -0.1626 -0.1583 -0.0806
19465W        W23765  29.679   3.007  20.071 -0.0340  0.0228 -0.0990
19466W        W23766  16.470   2.272  24.736 -0.1394 -0.2714  0.0390
19467W        W23767  30.993   7.756   2.535 -0.0919  0.0506  0.0884
19468W        W23768  18.190   2.534  19.418 -0.2027 -0.1127  0.1347
19469W        W23769  23.479   3.268  26.268  0.3291 -0.0929  0.1455
19470W        W23770   3.478   0.617  23.735  0.4124 -0.1308  0.2801
19471W        W23771  19.700   3.264   6.602 -0.0353 -0.0727  0.0386
19472W        W23772  13.893   2.461  17.349 -0.0830 -0.0021  0.1437
19473W        W23773  17.849   4.135   8.746 -0.0155 -0.1401  0.1898
19474W        W23774  16.254   6.757   8.596 -0.1011  0.1735  0.1594
19475W        W23775  23.023   4.443   2.855 -0.0572 -0.0123 -0.1003
19476W        W23776   2.693   7.678  23.038  0.0390 -0.4889 -0.1263
19477W        W23777  27.323   6.951  25.503  0.0622  0.0109 -0.0892
19478W        W23778  26.229   6.158   8.705 -0.0524  0.2219  0.2993
19479W        W23779  19.263   5.714  11.297  0.0097  0.1681 -0.1949
19480W        W23780  23.485   1.503  18.077  0.0516 -0.0709 -0.1028
19481W        W23781   5.881   4.140   7.295  0.1257  0.0181  0.2350
19482W        W23782  15.646   7.030  23.497 -0.1460 -0.0440 -0.0391
19483W        W23783  13.864   0.232   4.225 -0.1842 -0.0879 -0.0421
19484W        W23784   9.251   4.656  22.851  0.0200  0.2954  0.0270
19485W        W23785  12.877   1.112  23.841 -0.1322  0.1391  0.1376
19486W        W23786  29.413   6.236  21.935 -0.1027  0.1303 -0.2711
19487W        W23787  14.179   6.185   3.318  0.1423  0.0196 -0.1144
19488W        W23788   1.640   6.305   7.915 -0.0698  0.1329  0.0392
19489W        W23789  26.618   7.732  25.257 -0.1166  0.1526  0.0972
19490W        W23790  31.162   6.181  23.277  0.0248 -0.2247  0.2311
19491W        W23791  19.438   5.367  10.374 -0.0105  0.0402 -0.2587
19492W        W23792  10.267   2.751   2.088 -0.0519 -0.3561  0.1462
19493W        W23793  13.071   0.811   5.666  0.1165 -0.2785  0.1407
19494W        W23794  19.885   3.566  17.500 -0.2152 -0.1258 -0.2516
19495W        W23795   8.591   7.037  21.921  0.0364 -0.2512 -0.1760
19496W        W23796  22.174   3.363   0.368  0.0062  0.1760  0.0783
19497W        W23797  13.581   0.619   4.437  0.0146  0.0505  0.2952
19498W        W23798   4.031   3.012  23.273 -0.0913  0.2411  0.0802
19499W        W23799   5.295   2.288  10.024 -0.0050 -0.2796 -0.0929
19500W        W23800  27.857   6.244   4.525  0.2361  0.2463 -0.0645
19501W        W23801  17.714   3.046  11.107 -0.1014  0.0717  0.3143
19502W        W23802  15.170   6.113   8.611  0.1433  0.0608 -0.1156
19503W        W23803  13.783   3.689  17.539  0.0406  0.3077 -0.0361
19504W        W23804  29.874   0.076  10.659  0.1599 -0.0360  0.3115
19505W        W23805  18.903   6.981   4.515 -0.1360 -0.2587 -0.2045
19506W        W23806  14.450   7.349   3.794 -0.1359  0.5929  0.1672
19507W        W23807  18.676   6.273   1.158  0.3437  0.1544  0.2237
19508W        W23808  12.664   2.219  11.518 -0.3867 -0.2225 -0.0202
19509W        W23809   8.876   3.537  15.591 -0.2727 -0.3739 -0.1100
19510W        W23810  19.432   3.493   2.160  0.2005 -0.3977 -0.1304
19511W        W23811  13.223   4.502   4.726  0.0347 -0.3293 -0.1109
19512W        W23812   1.797   1.661  19.556  0.0824  0.0096 -0.1379
19513W        W23813  26.346   2.201  15.554  0.2237  0.2022  0.0600
19514W        W23814  12.653   3.980   2.529  0.1739 -0.0122  0.0039
19515W        W23815  16.189   6.161  20.385 -0.1893 -0.1846 -0.2079
19516W        W23816   9.342   5.329  17.754  0.0013 -0.1644 -0.1564
19517W        W23817  20.403   6.743   8.098 -0.0364 -0.0510  0.1829
19518W        W23818   4.975   0.971  17.637 -0.2123 -0.2458 -0.2592
19519W        W23819   4.819   6.627  17.632  0.0401  0.3276 -0.0085
19520W        W23820   8.009   2.064  25.760 -0.1242 -0.0108  0.1960
19521W        W23821  26.829   6.751   0.730  0.0458  0.3009  0.1310
19522W        W23822   1.268   5.677  19.412 -0.1815  0.1013 -0.1044
19523W        W23823  11.736   4.275  19.557  0.0730 -0.0033 -0.0014
19524W        W23824   8.175   7.694  20.825 -0.1811 -0.0786 -0.1154
19525W        W23825  19.199   3.720   9.349  0.1872 -0.0965  0.0310
19526W        W23826  12.484   4.376  15.870 -0.0201 -0.1294  0.1137
19527W        W23827  20.626   6.970   9.483  0.1354  0.1164  0.2405
19528W        W23828  27.962   4.848  18.567  0.0105  0.2348 -0.2027
19529W        W23829   7.868   4.927  23.107  0.4316  0.2075 -0.1611
19530W        W23830  13.235   4.762   4.150 -0.2647 -0.2147 -0.2406
19531W        W23831  18.859   7.095   9.688 -0.0606  0.0016  0.0056
19532W        W23832  18.749   2.115  10.509 -0.1665 -0.1140 -0.3030
19533W        W23833   3.639   1.477  18.677  0.0777  0.0198 -0.3249
19534W        W23834  24.619   7.782   0.671  0.1360  0.2048  0.0295
19535W        W23835  10.961   2.448  21.169 -0.3442 -0.2811 -0.1341
19536W        W23836  22.794   0.520  20.216 -0.1734  0.3200 -0.0006
19537W        W23837  30.399   1.205  10.998  0.0656  0.3073 -0.0818
19538W        W23838  18.969   4.451   7.587 -0.1331 -0.0175  0.2896
19539W        W23839  12.071   4.196  21.349  0.2036 -0.1555 -0.2382
19540W        W23840  15.960   2.894  20.674  0.0344  0.3446 -0.1767
19541W        W23841  27.448   4.543   1.548  0.0111  0.2980  0.1894
19542W        W23842  15.903   3.877   3.331 -0.0855 -0.2416 -0.0781
19543W        W23843  30.867   3.349   8.815  0.2068 -0.0643  0.0458
19544W        W23844  23.593   4.037   8.018  0.0475 -0.0064  0.3010
19545W        W23845  10.613   6.385  18.435 -0.1449 -0.1808  0.2204
19546W        W23846  27.171   7.231  18.122  0.0787  0.3449 -0.2195
19547W        W23847  25.404   2.799  20.433  0.1084 -0.2290 -0.0691
19548W        W23848  23.619   6.020   2.859  0.0114  0.0364  0.0177
19549W        W23849   9.155   1.877  25.678 -0.1701  0.1687 -0.0005
19550W        W23850  28.160   4.127  17.845 -0.1598  0.1194  0.1227
19551W        W23851  22.103   2.384   1.493 -0.2377 -0.3253 -0.1536
19552W        W23852  26.552   5.634  18.528  0.2091  0.2020  0.1591
19553W        W23853   8.624   2.312  16.527  0.3102  0.0039  0.0210
19554W        W23854  10.221   6.561  23.303 -0.1146 -0.0613 -0.0782
19555W        W23855  15.116   4.980   9.274 -0.0589 -0.2143  0.4055
19556W        W23856  17.744   7.037  10.324  0.1322 -0.0520 -0.0893
19557W        W23857   6.991   5.845   5.028 -0.1531 -0.0292 -0.0397
19558W        W23858  28.306   1.392   5.014  0.5023  0.0731 -0.1227
19559W        W23859  24.712   7.764  23.221  0.0328  0.2510 -0.1791
19560W        W23860  20.528   3.357   8.620 -0.0645  0.2340 -0.0462
19561W        W23861   9.112   3.972   3.750 -0.1258 -0.0194  0.1952
19562W        W23862   0.112   7.172   3.783  0.0783  0.0256  0.0232
19563W        W23863  28.223   2.326   9.932 -0.0666 -0.1696 -0.0998
19564W        W23864  25.557   1.712  17.254 -0.2495 -0.2022 -0.0581
19565W        W23865   3.026   5.920  24.431  0.0120  0.2287  0.4978
19566W        W23866  17.382   3.907   1.454 -0.3047  0.0086 -0.0688
19567W        W23867   9.592   4.544  25.646  0.0220  0.1905  0.0090
19568W        W23868  13.624   2.339  24.660 -0.0792  0.1948 -0.0469
19569W        W23869  18.840   2.959   4.034 -0.1024 -0.0040 -0.2932
19570W        W23870  20.627   5.451  17.767 -0.2757 -0.1872  0.3631
19571W        W23871  25.630   2.719   0.524 -0.0474  0.0618  0.2270
19572W        W23872  22.650   3.222   9.135  0.0516 -0.0193 -0.1828
19573W        W23873  28.165   7.477   3.113 -0.1978  0.3066  0.0546
19574W        W23874   9.951   6.597  16.043 -0.1270 -0.1249 -0.0576
19575W        W23875   0.568   3.462  20.228  0.0348  0.3352 -0.1763
19576W        W23876  28.927   7.034  16.917  0.2123 -0.0816  0.1075
19577W        W23877  20.599   0.177  23.535 -0.1134 -0.0470 -0.0754
19578W        W23878  19.778   1.916   9.457  0.0447  0.1445 -0.0200
19579W        W23879  25.664   0.375   1.045 -0.3406 -0.2834  0.0989
19580W        W23880  26.173   3.076  22.149  0.0543  0.4153 -0.1299
19581W        W23881  10.335   0.958  19.398 -0.0481  0.3558 -0.1391
19582W        W23882   5.643   1.854   2.575  0.0320 -0.0801  0.1194
19583W        W23883   8.593   0.750  19.713 -0.2719 -0.1158  0.2192
19584W        W23884  18.543   7.327   6.624  0.2311  0.0916 -0.3771
19585W        W23885  28.194   4.561   6.210 -0.1117  0.0849 -0.1019
19586W        W23886  19.201   1.699   0.093  0.3727 -0.0153  0.1215
19587W        W23887  28.054   5.666  16.957  0.3772 -0.1996 -0.0621
19588W        W23888  25.427   6.832  19.388 -0.3233 -0.0359  0.4060
19589W        W23889   7.830   3.335   6.349 -0.0177  0.2601 -0.0303
19590W        W23890   4.032   7.169   4.865  0.2476 -0.0785  0.1093
19591W        W23891  30.015   3.058   1.842  0.0413  0.0366  0.0387
19592W        W23892  30.408   3.918   2.601 -0.0113 -0.1989 -0.1987
19593W        W23893  23.872   4.608   3.070  0.1031  0.1326  0.3472
19594W        W23894  19.376   2.119   4.724  0.0716 -0.1864  0.1128
19595W        W23895  30.997   1.046  21.634  0.1237 -0.1853  0.4642
19596W        W23896   4.901   5.136   3.742  0.0067 -0.0823  0.0700
19597W        W23897   5.638   5.575   5.755 -0.3191 -0.1274  0.0215
19598W        W23898  16.915   4.709  23.270 -0.1424 -0.0581 -0.0355
19599W        W23899  14.974   6.761   9.181 -0.0663 -0.1913 -0.0958
19600W        W23900  19.970   0.781  19.958  0.1000  0.0112 -0.0927
19601W        W23901  19.015   3.414   4.145  0.1838 -0.1609  0.2558
19602W        W23902   6.419   3.785   9.148 -0.0688  0.0441  0.1768
19603W        W23903  21.859   0.142   5.314  0.1522  0.0804  0.1063
19604W        W23904   8.679   5.479   1.281 -0.1238 -0.0164  0.1363
19605W        W23905   6.869   0.484   7.993 -0.2787  0.2968 -0.0404
19606W        W23906  16.346   5.757  22.400  0.3870  0.0648 -0.0139
19607W        W23907  24.357   2.549  19.950  0.0600 -0.3319 -0.0835
19608W        W23908  27.574   6.077   4.967  0.0195  0.0513 -0.0291
19609W        W23909  15.955   3.900   8.565 -0.0256 -0.0322  0.1186
19610W        W23910   5.425   6.201  18.183 -0.0366  0.1155 -0.2254
19611W        W23911  21.801   3.107   8.564 -0.1285  0.1533  0.2977
19612W        W23912   3.638   1.116  17.226  0.1099 -0.0800 -0.3347
19613W        W23913  23.035   2.459   4.090  0.0396 -0.2600  0.0566
19614W        W23914  15.357   1.922  16.660  0.3046 -0.0002 -0.0650
19615W        W23915  17.122   7.786  20.813  0.0290 -0.1288 -0.3294
19616W        W23916  30.419   2.425   8.206  0.0563  0.0368 -0.3189
19617W        W23917   8.794   4.387  15.448 -0.3186  0.0915  0.1041
19618W        W23918  26.692   4.421  21.783  0.0431 -0.1423 -0.0395
19619W        W23919  27.618   5.150  20.356 -0.0054 -0.1834 -0.1910
19620W        W23920  15.889   2.055   6.794 -0.0932  0.1354  0.0715
19621W        W23921  10.774   2.365   2.144  0.3037  0.0541  0.3034
19622W        W23922  19.692   2.594  15.362  0.3805 -0.0520 -0.0539
19623W        W23923   2.259   0.994  18.463  0.0176 -0.0685 -0.0335
19624W        W23924  13.596   4.052   2.617 -0.1525 -0.3757 -0.1454
19625W        W23925  27.667   6.607  23.119  0.3120 -0.1323  0.0463
19626W        W23926  25.396   2.060  16.924  0.3743  0.1940  0.0007
19627W        W23927  14.135   4.065   9.109  0.0034 -0.0388 -0.1420
19628W        W23928  17.750   3.514   2.121  0.2607 -0.3261  0.2413
19629W        W23929   5.717   1.346   8.317 -0.0454  0.0854  0.2939
19630W        W23930  11.094   6.341   1.177  0.0881 -0.0760 -0.0296
19631W        W23931  31.204   7.590  25.584  0.1621  0.1146 -0.1145
19632W        W23932   0.351   6.917   8.765 -0.1902 -0.0657 -0.2642
19633W        W23933  22.288   3.149   1.325  0.0443  0.3761  0.0223
19634W        W23934  21.977   1.999  10.905  0.0882 -0.1445  0.2079
19635W        W23935  21.075   0.842   7.104 -0.0174  0.2683  0.1216
19636W        W23936   1.092   1.492   2.752  0.1888  0.0283 -0.0640
19637W        W23937  21.936   2.620  25.304  0.0609  0.3129  0.0189
19638W        W23938  20.663   1.798  19.324 -0.1716 -0.0640 -0.0065
19639W        W23939  30.707   0.543   0.507  0.0146  0.2295 -0.2488
19640W        W23940  30.366   0.762  22.792  0.1547  0.0840  0.0961
19641W        W23941  11.192   3.953   3.894 -0.1501  0.0686 -0.1157
19642W        W23942   6.625   6.349  20.227  0.2429  0.0120  0.1400
19643W        W23943  13.235   1.890  17.245 -0.2843 -0.1847  0.0682
19644W        W23944   2.127   3.540  21.603  0.1551  0.1967 -0.3679
19645W        W23945  18.374   5.000   1.017  0.1838 -0.0494 -0.0967
19646W        W23946  24.238   0.459   3.107  0.5953 -0.2721 -0.0741
19647W        W23947  17.375   7.428  20.540  0.2213 -0.0115  0.1027
19648W        W23948  11.626   2.976   2.010 -0.0009 -0.2034 -0.0479
19649W        W23949   3.307   5.205   2.473 -0.2376 -0.3058  0.3634
19650W        W23950  26.682   0.024  17.857 -0.1824  0.0907 -0.0683
19651W        W23951   4.339   4.507  18.193 -0.0221 -0.1972  0.1091
19652W        W23952   6.961   6.130   9.197  0.0605  0.2442  0.0635
19653W        W23953  19.753   6.408   7.310  0.0863 -0.0202  0.2202
19654W        W23954  24.228   2.203   3.648  0.0519 -0.1704 -0.1585
19655W        W23955  12.614   0.911  19.483 -0.2187 -0.0083 -0.0034
19656W        W23956   9.350   5.380   8.339  0.0952 -0.1620 -0.0753
19657W        W23957   0.411   0.254  24.338  0.0207  0.2396 -0.1983
19658W        W23958  19.493   2.650  18.278  0.4455 -0.2104 -0.2972
19659W        W23959   6.980   0.655   4.600  0.1037  0.0853 -0.1637
19660W        W23960  13.836   4.455   8.939  0.0103 -0.0009 -0.2597
19661W        W23961  15.866   3.860   9.087  0.1195  0.1111  0.0476
19662W        W23962  18.841   5.914  18.543 -0.1547  0.1440 -0.1485
19663W        W23963  26.642   0.927  26.050 -0.0881  0.1637  0.4023
19664W        W23964   0.014   0.500  17.672 -0.1784  0.0476  0.1352
19665W        W23965  28.929   4.266   4.418  0.1048  0.1578  0.1537
19666W        W23966  22.008   4.479  19.374  0.0712 -0.1557  0.1462
19667W        W23967   1.124   0.365  18.091  0.3369 -0.3743  0.1336
19668W        W23968   7.636   6.872   1.393  0.0279  0.0138 -0.1314
19669W        W23969  11.285   0.664   1.634  0.2353  0.1107  0.1221
19670W        W23970  25.532   6.849  16.093  0.1348  0.1339  0.3062
19671W        W23971  29.156   1.092  20.606 -0.4593 -0.0145 -0.1373
19672W        W23972  20.329   3.194   0.528  0.0261 -0.2279 -0.4236
19673W        W23973  27.444   6.543   4.680 -0.0318  0.3308  0.3253
19674W        W23974  27.708   1.831  21.614 -0.0224  0.2016 -0.0015
19675W        W23975  30.202   0.837   8.865 -0.0046  0.0456  0.1511
19676W        W23976  23.492   0.536  20.026 -0.1901  0.0152  0.1160
19677W        W23977  16.855   4.274  20.329  0.1100  0.1901  0.0487
19678W        W23978  28.559   4.982   6.846 -0.2347 -0.0261 -0.2277
19679W        W23979  18.671   5.838   2.213  0.1829 -0.0614  0.0816
19680W        W23980  26.569   5.022   3.414 -0.1401 -0.2881  0.0346
19681W        W23981   6.889   4.413  24.619 -0.0854  0.2328 -0.2176
19682W        W23982  20.362   5.329   9.723 -0.0367 -0.4747 -0.1551
19683W        W23983  17.394   6.512  15.155 -0.0241 -0.0792  0.1088
19684W        W23984  17.158   7.394  25.564  0.2643  0.1500 -0.0067
19685W        W23985   8.721   4.976  16.436 -0.1199 -0.0569 -0.2715
19686W        W23986  23.263   6.143   0.276  0.0804  0.1424  0.1116
19687W        W23987   4.198   1.596  15.783  0.0500  0.0138  0.1353
19688W        W23988  23.675   0.797  16.081 -0.0497  0.0468 -0.0104
19689W        W23989  31.194   5.016  19.944 -0.2566  0.1924 -0.2204
19690W        W23990   7.941   4.583   9.309 -0.1703  0.2189  0.1060
19691W        W23991   6.986   2.431   2.363  0.3619 -0.3144  0.2993
19692W        W23992  23.437   3.849  25.716  0.0835  0.0353  0.2451
19693W        W23993  12.126   4.032  25.741  0.2142 -0.0301  0.1252
19694W        W23994   3.481   2.187  20.774  0.0702  0.0125  0.1649
19695W        W23995   7.168   3.246  22.487 -0.3076 -0.0532  0.1675
19696W        W23996  17.323   3.460   8.593 -0.3276  0.1325 -0.1506
19697W        W23997   4.808   0.041   7.810 -0.2698 -0.0625  0.0620
19698W        W23998  22.284   0.330  10.255 -0.0600  0.0722 -0.1187
19699W        W23999   7.281   2.037   7.245 -0.0572 -0.3220 -0.2324
19700W        W24000  18.538   1.069  24.799  0.2578 -0.0500  0.0709
19701W        W24001  12.617   7.050   8.657  0.0236 -0.0159 -0.1009
19702W        W24002   4.375   7.795   6.651 -0.0176  0.3492 -0.0448
19703W        W24003   4.463   5.411  17.565  0.4261  0.0958  0.0152
19704W        W24004  30.355   0.355   8.827 -0.0590 -0.0336  0.0896
19705W        W24005   4.060   1.557   3.130  0.0055  0.0094  0.0073
19706W        W24006  23.428   7.159  19.811 -0.1993  0.1827  0.0004
19707W        W24007  25.087   1.920   2.877 -0.3915 -0.1082  0.0668
19708W        W24008   7.285   1.864  26.328  0.0503 -0.1923  0.0565
19709W        W24009   5.761   2.632   1.551 -0.0880 -0.1519  0.0716
19710W        W24010  14.484   1.438  25.432  0.0785 -0.1819 -0.0711
19711W        W24011  10.060   3.866   0.517 -0.0506  0.2933 -0.0646
19712W        W24012  29.010   6.072   2.525 -0.0497 -0.0772  0.0003
19713W        W24013  25.631   3.715  24.234 -0.3949  0.1630  0.0640
19714W        W24014   2.801   4.465  11.060 -0.1759  0.1990  0.2854
19715W        W24015  11.233   0.516  10.258 -0.1256 -0.0577  0.0946
19716W        W24016  21.435   1.934  25.536  0.0131 -0.0771 -0.0648
19717W        W24017   0.603   2.944  18.250 -0.1760  0.0624  0.4345
19718W        W24018   3.099   3.373  15.624  0.1338  0.1024  0.0661
19719W        W24019   2.771   6.217   7.659  0.3575 -0.2272  0.0939
19720W        W24020  25.396   4.583  26.277 -0.0209 -0.3251  0.0710
19721W        W24021  30.027   1.279   7.574  0.0535  0.0459  0.1196
19722W        W24022   5.378   0.584   9.519 -0.2114  0.1235 -0.2389
19723W        W24023   7.802   0.353   7.655 -0.3141 -0.1585 -0.3554
19724W        W24024  27.228   5.214  22.523 -0.0487 -0.0764 -0.0933
19725W        W24025  24.101   0.804  16.318  0.0979  0.3403  0.0089
19726W        W24026   8.670   2.543  26.189  0.2870  0.2206  0.1346
19727W        W24027   5.439   4.420  16.968  0.2849 -0.2855 -0.0362
19728W        W24028  17.570   0.765  23.705  0.0105  0.0051  0.0112
19729W        W24029  21.290   4.934  26.071 -0.0084 -0.1146 -0.0640
19730W        W24030  21.740   2.016  18.343 -0.0209 -0.0456 -0.1672
19731W        W24031  13.977   3.065   3.578  0.1803  0.2254  0.0347
19732W        W24032   7.360   5.543   0.642 -0.1775  0.2913 -0.0123
19733W        W24033  24.556   4.314   1.555  0.1122  0.2707 -0.0538
19734W        W24034   5.614   6.530   7.916 -0.0961  0.3837 -0.0499
19735W        W24035  13.941   7.618   2.407  0.0773 -0.2481 -0.0937
19736W        W24036   6.873   7.003  18.569  0.0164  0.0454  0.2121
19737W        W24037  11.832   0.597   9.492 -0.3242 -0.2195  0.0260
19738W        W24038  10.373   5.195  21.096 -0.0899 -0.1840 -0.1278
19739W        W24039  18.311   7.549  25.250 -0.0949  0.0397  0.1190
19740W        W24040  12.131   5.242  17.734  0.2121  0.4289 -0.0853
19741W        W24041   9.255   4.313   2.352  0.2799 -0.1755  0.1001
19742W        W24042  13.948   5.835   7.696 -0.0260  0.0356  0.2384
19743W        W24043  27.911   2.249  23.112 -0.2537  0.1015  0.1131
19744W        W24044  15.495   3.730  24.032  0.1865  0.0168  0.2316
19745W        W24045  18.954   2.479   2.211  0.1545  0.0679  0.0743
19746W        W24046  25.542   3.653   0.896 -0.1765 -0.0069 -0.0163
19747W        W24047  10.458   1.252   2.330 -0.1096 -0.0282 -0.3332
19748W        W24048   5.392   2.895   0.668 -0.2910  0.1063  0.0811
19749W        W24049   5.091   3.139   3.343 -0.1519 -0.0614 -0.1860
19750W        W24050  29.548   1.283  18.615 -0.0064  0.2162 -0.1066
19751W        W24051  15.295   2.179   7.474 -0.1564  0.0042  0.1447
19752W        W24052   5.199   3.370  22.092 -0.0761 -0.1537 -0.2316
19753W        W24053  28.581   1.610  11.332  0.1358 -0.0217 -0.5184
19754W        W24054  28.699   3.724  25.893 -0.2063  0.3198  0.0064
19755W        W24055   2.148   3.068  17.434 -0.0637 -0.1066 -0.0666
19756W        W24056  11.442   4.711  17.221 -0.2392 -0.0488 -0.3105
19757W        W24057   6.220   6.300  24.010  0.1460 -0.5138  0.1878
19758W        W24058  16.682   3.151   6.671  0.1203  0.3061  0.1301
19759W        W24059  24.608   3.913   9.619 -0.1138 -0.0214  0.0239
19760W        W24060  19.898   1.996  22.900 -0.0767  0.0821  0.3259
19761W        W24061  10.266   4.277  25.226  0.3026 -0.0200 -0.0095
19762W        W24062  19.179   5.865   3.693 -0.1743  0.1730  0.2774
19763W        W24063  21.386   5.654  22.761 -0.1326 -0.1314 -0.0529
19764W        W24064  24.277   0.918   9.354 -0.0237 -0.0926  0.1278
19765W        W24065  30.635   2.421  23.015  0.0113 -0.3012 -0.0008
19766W        W24066  29.164   3.587   8.991  0.1058 -0.1722 -0.3504
19767W        W24067   1.638   4.245  20.093 -0.0928  0.0078 -0.0600
19768W        W24068  16.289   3.092   5.214  0.1019 -0.0344 -0.2110
19769W        W24069  18.954   7.330  21.121 -0.2624 -0.0002 -0.0696
19770W        W24070   9.691   5.860  22.518  0.0887 -0.1942  0.0798
19771W        W24071   6.090   0.953  17.613  0.1202  0.3496  0.0650
19772W        W24072   6.182   7.444  20.348  0.2252  0.0077  0.3460
19773W        W24073  15.313   2.655   6.438 -0.0329 -0.2269 -0.3496
19774W        W24074   5.381   3.357   0.780  0.1220  0.0334  0.1830
19775W        W24075   5.968   3.995  26.100 -0.1307  0.1325 -0.0083
19776W        W24076   1.197   3.250  19.407  0.1199 -0.1305  0.1337
19777W        W24077   1.507   4.723  25.429 -0.2235  0.1151  0.1013
19778W        W24078   1.407   2.984   8.943  0.1000  0.3119 -0.1456
19779W        W24079  17.539   3.468  10.202  0.0485  0.0746 -0.1429
19780W        W24080  26.979   5.683   2.714  0.1651  0.0209 -0.2542
19781W        W24081  21.470   7.761   5.853 -0.2904 -0.1669  0.0395
19782W        W24082  17.380   6.230   1.753 -0.0288  0.2788  0.2234
19783W        W24083  21.262   1.671   3.984 -0.0845  0.2579  0.2527
19784W        W24084  26.922   3.925   6.660  0.2925  0.2701 -0.3076
19785W        W24085  30.979   2.199   5.003 -0.2913  0.0465 -0.0515
19786W        W24086   5.966   2.479   7.234  0.1776 -0.1675  0.0732
19787W        W24087  25.474   0.901   4.872 -0.2932 -0.0042  0.2329
19788W        W24088  17.192   2.437   8.131  0.4808  0.2136 -0.1766
19789W        W24089   8.240   0.267  17.586 -0.0140 -0.1312  0.0979
19790W        W24090  17.876   5.918  18.283 -0.0627 -0.0303 -0.1689
19791W        W24091  14.541   0.801   4.565 -0.2003  0.2273 -0.0825
19792W        W24092  18.838   6.370   0.656 -0.1684 -0.0970  0.0979
19793W        W24093  28.018   0.823   5.359  0.0669  0.0313  0.2644
19794W        W24094   6.800   1.048  23.633 -0.1013 -0.2922 -0.2450
19795W        W24095  17.219   3.494  18.274 -0.1711 -0.1914  0.1444
19796W        W24096  24.622   2.457  20.782 -0.1908  0.2364 -0.1857
19797W        W24097  16.371   7.762  16.812 -0.2368 -0.0172 -0.2479
19798W        W24098   1.116   5.070   5.524  0.3572 -0.2411  0.0485
19799W        W24099   5.007   3.629  19.417 -0.0325  0.2360  0.0855
19800W        W24100  22.022   4.943   9.081 -0.1994  0.0349 -0.1308
19801W        W24101  22.958   5.989  22.166 -0.2545 -0.0118  0.1856
19802W        W24102   2.414   0.991  16.935  0.1370 -0.1365 -0.0310
19803W        W24103   6.319   7.033   6.721 -0.0078 -0.0376  0.1800
19804W        W24104  24.260   6.374   6.226 -0.2546 -0.0362  0.2074
19805W        W24105  23.412   2.591   3.688 -0.1207 -0.1443 -0.0424
19806W        W24106  14.505   6.631   3.096  0.2824 -0.1626 -0.2425
19807W        W24107  10.098   3.386   5.070  0.2802 -0.1194  0.3501
19808W        W24108  30.250   0.604  10.086  0.4237  0.0827  0.1319
19809W        W24109  24.078   4.530  21.355  0.1259 -0.3056  0.1006
19810W        W24110  11.405   2.243   2.592  0.1886 -0.1186 -0.3487
19811W        W24111  25.874   6.784  10.537 -0.0097 -0.2586  0.1247
19812W        W24112  26.896   6.250  24.263 -0.0300  0.1562  0.1952
19813W        W24113  28.508   2.341  25.669 -0.3391 -0.1328 -0.0898
19814W        W24114   7.885   2.232  21.802  0.0752 -0.0488 -0.0523
19815W        W24115  21.482   5.917   2.665  0.0460  0.0027  0.0476
19816W        W24116  17.628   5.664   4.520 -0.1451  0.2066 -0.2371
19817W        W24117  12.624   6.373   3.922 -0.0687  0.1085 -0.3129
19818W        W24118  25.460   0.139   3.646  0.0583  0.0711 -0.2312
19819W        W24119  13.738   1.747   6.693 -0.0807  0.2809  0.0469
19820W        W24120  23.278   4.542   6.862 -0.2036  0.1460  0.1891
19821W        W24121  27.083   0.806  15.678  0.0391 -0.1173 -0.1624
19822W        W24122   0.025   6.716   1.568 -0.0445 -0.1364  0.0334
19823W        W24123  18.075   5.646   0.539  0.1719 -0.3009  0.1392
19824W        W24124   6.384   4.815  18.017 -0.1690  0.3272  0.1735
19825W        W24125  16.789   6.151  21.272  0.1284 -0.3222 -0.0544
19826W        W24126  11.215   5.834  26.373  0.2714  0.3045 -0.1083
19827W        W24127   7.564   6.847   0.851  0.0664 -0.1156 -0.2335
19828W        W24128  26.666   1.516   3.036 -0.0696  0.1553 -0.1143
19829W        W24129   5.342   6.881   6.225  0.0145  0.2392 -0.2024
19830W        W24130   1.727   4.269   3.893 -0.0115  0.0491 -0.0057
19831W        W24131  15.668   7.033   0.734 -0.0932 -0.3189  0.0939
19832W        W24132   3.461   5.839  22.018 -0.2068 -0.0845  0.2917
19833W        W24133  18.919   5.499   0.400 -0.1308 -0.1086 -0.1868
19834W        W24134  30.430   5.781   8.422  0.0670 -0.1241  0.1394
19835W        W24135   5.274   2.741  16.794 -0.3637  0.0575  0.0869
19836W        W24136  25.721   5.228   0.265 -0.1495  0.0023 -0.0849
19837W        W24137  16.610   0.110  20.653 -0.3734  0.1641 -0.1484
19838W        W24138  17.810   2.377  18.145 -0.3255  0.0688 -0.2673
19839W        W24139  10.447   2.833  26.271 -0.0529 -0.5704  0.2925
19840W        W24140  27.850   6.203   1.453 -0.0688 -0.1133 -0.0756
19841W        W24141   7.715   2.126  18.614 -0.0855  0.0061  0.0453
19842W        W24142  22.480   0.612  16.264  0.1155 -0.0792  0.0665
19843W        W24143  25.452   3.624   2.943 -0.0871 -0.1265  0.0149
19844W        W24144  16.559   6.611  25.417 -0.2019  0.2468 -0.0256
19845W        W24145  23.787   6.138  15.309  0.0843  0.2276 -0.2668
19846W        W24146  13.666   0.582  10.298  0.0829 -0.1026  0.2460
19847W        W24147  26.586   4.031  25.103 -0.2593 -0.0790 -0.0685
19848W        W24148  20.895   3.143   5.180 -0.1309 -0.2393 -0.0573
19849W        W24149  20.518   6.282  15.783 -0.0542  0.0453  0.0469
19850W        W24150  11.608   7.700  23.110 -0.0583  0.1476 -0.1231
19851W        W24151  26.196   5.279  21.297  0.1107 -0.1964 -0.0243
19852W        W24152  29.331   0.524  19.627 -0.0804  0.0412 -0.2387
19853W        W24153  20.343   4.128   2.844  0.0156  0.3870 -0.1546
19854W        W24154  20.162   5.809   7.022  0.0334  0.0686  0.1251
19855W        W24155  22.959   6.957   5.032 -0.3424 -0.0571  0.1244
19856W        W24156  19.003   0.768  20.495 -0.1010 -0.2462  0.4378
19857W        W24157  27.795   5.680   9.735 -0.0914  0.0907 -0.2790
19858W        W24158  30.107   3.873   7.749 -0.2450 -0.0976  0.0458
19859W        W24159  20.422   4.576   7.604 -0.0117  0.0132 -0.0548
19860W        W24160  24.588   1.076   0.834 -0.2138 -0.3786 -0.1790
19861W        W24161  16.629   4.516   2.324  0.4622 -0.1281 -0.0226
19862W        W24162  21.905   4.358  10.115  0.1290 -0.0478 -0.2785
19863W        W24163  29.390   3.980   1.624 -0.2184  0.1840  0.0500
19864W        W24164  25.550   5.577  25.595 -0.3299 -0.0887 -0.0825
19865W        W24165  12.709   0.996   4.339  0.2557 -0.0071  0.1235
19866W        W24166  15.403   4.616   1.270  0.1490  0.0256  0.0095
19867W        W24167  18.088   3.524   1.103 -0.1777 -0.0274  0.1347
19868W        W24168  29.474   4.636  20.910 -0.0535  0.4616  0.3885
19869W        W24169  15.161   6.985  21.235  0.1954  0.2784 -0.1548
19870W        W24170  28.164   0.510  11.410  0.1617  0.1857  0.1676
19871W        W24171  30.283   1.866   5.802  0.0044 -0.0002  0.2949
19872W        W24172   8.560   1.180   3.622  0.1885 -0.1221 -0.1118
19873W        W24173   9.980   6.914  10.583 -0.0500 -0.2820 -0.0115
19874W        W24174   0.113   6.425   4.583 -0.0390  0.1688  0.0197
19875W        W24175   8.357   4.142  20.655 -0.1326 -0.0859  0.0224
19876W        W24176  19.375   5.905  25.531 -0.1360 -0.0160  0.2739
19877W        W24177  24.310   5.069   7.899 -0.3646 -0.0786  0.1226
19878W        W24178  12.690   1.781  20.955  0.0169  0.2739  0.0172
19879W        W24179  30.555   2.354  15.881  0.0267 -0.0361  0.1441
19880W        W24180   0.528   7.300  23.777  0.0076 -0.0626 -0.0983
19881W        W24181   9.551   6.925  10.376  0.0753 -0.0362  0.1373
19882W        W24182   9.638   3.134   2.883 -0.1127 -0.0740 -0.1183
19883W        W24183  12.085   4.123  17.117  0.0230 -0.1341  0.1410
19884W        W24184  25.585   5.774  26.066  0.3212  0.1772  0.1341
19885W        W24185  13.777   1.895  20.817 -0.1839  0.1428 -0.0306
19886W        W24186  10.591   3.195   6.322 -0.0736  0.0327  0.2908
19887W        W24187  28.633   0.756  21.208 -0.1251  0.2029 -0.0970
19888W        W24188  10.354   4.344   6.086  0.2525 -0.1545  0.0637
19889W        W24189  20.346   3.999  15.768  0.2209 -0.0089 -0.0293
19890W        W24190  13.396   4.410   8.605  0.2086  0.2163  0.1948
19891W        W24191  26.085   3.732  21.788 -0.0750 -0.1946  0.0635
19892W        W24192  14.279   6.636  24.678 -0.0797  0.0669 -0.2146
19893W        W24193  10.655   4.540  24.511  0.3192 -0.3445  0.1915
19894W        W24194  24.246   4.455   5.771  0.2255  0.2074 -0.0342
19895W        W24195   2.612   3.977  22.233  0.3184 -0.5587  0.0079
19896W        W24196   0.276   4.302   1.397  0.3505  0.2030  0.1882
19897W        W24197   8.473   3.928  10.065  0.0541 -0.1764  0.0679
19898W        W24198  29.996   0.461  19.056  0.2932  0.2130 -0.1425
19899W        W24199   4.050   0.474   4.464 -0.2169  0.0265  0.5284
19900W        W24200   1.720   6.859   2.575  0.0962 -0.1296  0.1616
19901W        W24201  29.867   6.974  15.301 -0.0590 -0.3333 -0.2364
19902W        W24202  22.180   2.116   1.109 -0.0845  0.1629 -0.0940
19903W        W24203  17.797   1.019   1.920 -0.1342  0.0097  0.1171
19904W        W24204   2.258   1.704   9.627 -0.2737  0.3050 -0.2785
19905W        W24205   9.642   3.971   1.075  0.0801  0.0473  0.2075
19906W        W24206  24.868   4.493  18.908  0.2736 -0.0588 -0.2169
19907W        W24207   4.312   0.017   3.572 -0.1255 -0.0552  0.0921
19908W        W24208  13.718   2.557  23.147  0.3239 -0.0024  0.0189
19909W        W24209   7.792   1.149  22.503 -0.0391  0.1511 -0.1059
19910W        W24210   4.203   1.993   4.775  0.0859  0.2753  0.1688
19911W        W24211  22.667   5.441   1.942 -0.0291 -0.2139  0.0859
19912W        W24212  12.512   2.099  19.927  0.0270  0.2469 -0.0665
19913W        W24213   6.943   6.549   2.747 -0.1519 -0.0009  0.1787
19914W        W24214   2.224   7.388  22.366  0.1111  0.0823 -0.2459
19915W        W24215  24.314   3.773  17.506 -0.1025  0.0782  0.1015
19916W        W24216  12.318   4.480  19.508 -0.1932  0.2591 -0.1064
19917W        W24217   1.959   5.146  25.874  0.0620 -0.0853  0.0398
19918W        W24218  18.336   5.433   2.198 -0.1249 -0.0857 -0.0440
19919W        W24219  14.544   4.115  26.160  0.0832  0.0831  0.1671
19920W        W24220   6.909   5.525  18.559  0.0280 -0.0235  0.1498
19921W        W24221  19.628   6.849   3.439  0.1689  0.2585  0.0078
19922W        W24222   2.199   2.397  21.412 -0.0536  0.1338  0.2574
19923W        W24223  29.163   2.205  17.889 -0.5595  0.0630  0.3986
19924W        W24224  25.189   2.773  16.538 -0.1841 -0.1869  0.1111
19925W        W24225  24.184   1.271  16.551  0.0389  0.0075  0.2670
19926W        W24226   1.232   2.646  23.550  0.2145 -0.3611  0.0032
19927W        W24227  23.798   5.533   6.586 -0.2343 -0.0259 -0.1056
19928W        W24228  15.590   4.596  16.782 -0.0895  0.0088  0.0728
19929W        W24229  19.280   7.696  10.188  0.1307  0.0851 -0.0677
19930W        W24230   2.981   2.304   1.528  0.1353  0.4429  0.1617
19931W        W24231  28.601   2.013   3.837 -0.2938 -0.2110 -0.2455
19932W        W24232  17.223   0.217  24.424  0.0413  0.0116  0.0319
19933W        W24233  29.401   4.056  24.426 -0.3933 -0.1619 -0.0855
19934W        W24234  28.954   1.601   7.671  0.0388 -0.1585  0.3260
19935W        W24235   5.701   4.577   0.045  0.0243  0.1897 -0.0103
19936W        W24236  23.531   3.194  15.978  0.0201 -0.4606  0.1044
19937W        W24237  17.404   7.116   1.912 -0.0524 -0.1212  0.2594
19938W        W24238   1.898   7.085  22.719  0.1086 -0.0547  0.1400
19939W        W24239   4.136   3.549   1.649 -0.0067  0.0960  0.0543
19940W        W24240  17.343   5.807  26.075  0.0837  0.0972 -0.0818
19941W        W24241   0.561   7.314   8.562  0.0773  0.1010 -0.2544
19942W        W24242  14.778   1.057  26.236 -0.1171 -0.3869 -0.0852
19943W        W24243   5.103   6.426   4.527 -0.1400 -0.0102  0.0856
19944W        W24244  22.294   0.282  18.947 -0.1299  0.1683  0.0356
19945W        W24245  15.241   6.803  10.317 -0.2877 -0.0960 -0.0437
19946W        W24246  17.110   7.585  15.901  0.0643 -0.0921  0.2896
19947W        W24247  18.212   4.832  21.391 -0.0737  0.0397 -0.0639
19948W        W24248  17.298   3.533  23.525 -0.2254  0.0753 -0.0887
19949W        W24249  18.069   4.515  18.388 -0.1277 -0.2188 -0.1419
19950W        W24250   5.658   7.351   3.146 -0.0770  0.0190 -0.2819
19951W        W24251   8.645   2.659  24.431 -0.0472 -0.3204 -0.2250
19952W        W24252   5.316   3.802  24.761  0.1151 -0.0751 -0.2383
19953W        W24253  12.116   1.854  20.339 -0.0539  0.1061  0.1515
19954W        W24254  27.358   2.298   3.848  0.0089  0.1333  0.1042
19955W        W24255   5.032   1.904  24.044  0.0359 -0.4484  0.0412
19956W        W24256   2.373   1.263   4.378  0.1198  0.1224 -0.0478
19957W        W24257  22.318   5.559  20.270 -0.0426  0.0477 -0.2708
19958W        W24258  21.108   7.298   5.367  0.0413 -0.3026  0.0457
19959W        W24259  27.294   5.149  19.964 -0.1640 -0.2849 -0.1356
19960W        W24260  15.711   4.582  18.224 -0.1474  0.1271 -0.1945
19961W        W24261  20.133   0.785  24.815  0.4443 -0.0405  0.1433
19962W        W24262  26.283   4.002   3.363 -0.2001 -0.2604 -0.1685
19963W        W24263  29.752   6.091  21.185 -0.1297 -0.1782 -0.1913
19964W        W24264  29.005   3.222   9.624  0.0515 -0.0354 -0.0497
19965W        W24265  25.718   4.080  11.258  0.2752  0.3928 -0.2378
19966W        W24266  19.360   0.137  26.026 -0.0053 -0.0348  0.0587
19967W        W24267   3.650   0.909   9.156 -0.1427  0.0777 -0.0732
19968W        W24268  19.249   4.508   5.335  0.0742 -0.0104  0.1937
19969W        W24269   2.275   1.519  18.458  0.0219  0.0390 -0.0982
19970W        W24270  24.263   1.270  17.012  0.2520 -0.1589  0.2114
19971W        W24271   5.947   7.798   5.758 -0.2574  0.2014  0.0818
19972W        W24272  10.683   2.775   1.794  0.0090 -0.4432  0.0155
19973W        W24273   8.681   1.626   3.330  0.0272  0.3027 -0.3851
19974W        W24274  19.113   4.277  20.128 -0.0149  0.0578 -0.1904
19975W        W24275   9.183   5.861   8.180 -0.1874  0.3425 -0.0328
19976W        W24276  24.432   1.417  11.256  0.0978  0.1911  0.3019
19977W        W24277  15.196   4.589   1.986  0.1819 -0.1853  0.0090
19978W        W24278  28.278   7.155  25.287 -0.0696  0.0878 -0.1522
19979W        W24279  12.693   1.426  19.557 -0.0860  0.2706 -0.0655
19980W        W24280  20.413   5.158   4.696  0.0784  0.2766  0.2979
19981W        W24281  27.153   0.497  22.024 -0.0687  0.0914  0.1238
19982W        W24282   1.264   4.531   3.859 -0.2037 -0.3069  0.1334
19983W        W24283   9.343   5.785   9.244  0.0508  0.2020  0.0115
19984W        W24284  16.920   5.285  25.236 -0.3110  0.1322  0.0296
19985W        W24285  29.297   2.450  19.196  0.4029 -0.1208 -0.2760
19986W        W24286  23.357   5.192   2.634 -0.2978 -0.0448  0.0646
19987W        W24287   0.110   4.085  10.453  0.0352 -0.0370  0.1096
19988W        W24288  10.930   3.578   5.704 -0.1632  0.0614 -0.2382
19989W        W24289  18.121   3.967  22.766  0.1814 -0.0043  0.1662
19990W        W24290  23.425   5.969   7.913  0.2106 -0.0086  0.0658
19991W        W24291   2.555   3.306   7.492 -0.5503  0.3043 -0.0803
19992W        W24292  27.516   1.684   9.547  0.2997  0.2138 -0.0354
19993W        W24293  20.624   3.341   2.244 -0.1056  0.1521 -0.1457
19994W        W24294  13.232   1.076  16.562 -0.1848  0.0024 -0.2379
19995W        W24295   5.166   3.317   2.064 -0.1889  0.0169 -0.0514
19996W        W24296  27.536   1.316  21.509 -0.1606 -0.1571  0.0689
19997W        W24297  12.076   4.152   8.979  0.0290  0.1578  0.1339
19998W        W24298  26.517   0.432  26.050  0.0928  0.0714 -0.2462
19999W        W24299  20.834   4.230  23.717 -0.3602 -0.1233 -0.1915
20000W        W24300  11.631   6.294  10.405  0.1015  0.0259 -0.0570
20001W        W24301  25.141   5.557  20.473  0.1020  0.0447 -0.1482
20002W        W24302  25.320   6.908   4.485  0.1230 -0.0587 -0.0616
20003W        W24303   0.320   6.812   1.165 -0.0866 -0.1643 -0.1719
20004W        W24304  10.647   4.449  15.672  0.0733  0.0537  0.0530
20005W        W24305  16.086   5.114  16.914  0.2346  0.1379  0.1631
20006W        W24306   4.034   6.017   5.383  0.0841 -0.3179  0.1502
20007W        W24307   0.941   6.825   8.614  0.0201  0.4357  0.0079
20008W        W24308  19.012   4.642   6.551 -0.3935  0.1504  0.0846
20009W        W24309  23.077   5.066   6.465  0.1193  0.1788 -0.1043
20010W        W24310  28.852   6.038  16.640  0.0901 -0.0289 -0.1501
20011W        W24311  18.211   4.467   8.838  0.2141  0.1325 -0.1038
20012W        W24312  23.184   6.975  20.208 -0.1825  0.3378  0.3712
20013W        W24313  24.763   1.617  16.069  0.0641 -0.0140 -0.2428
20014W        W24314  12.563   3.495   8.406 -0.2013 -0.4105  0.2500
20015W        W24315  27.581   2.285  21.520  0.1210 -0.0378  0.1661
20016W        W24316   7.652   1.166   5.972  0.3312  0.1005  0.1062
20017W        W24317  22.516   6.713  17.956  0.0531  0.0758 -0.0130
20018W        W24318  19.916   5.255  22.885 -0.1639  0.0789 -0.0686
20019W        W24319  16.036   1.222  19.417  0.5340 -0.0705 -0.3144
20020W        W24320   3.249   1.534  24.189  0.0185 -0.1544  0.0460
20021W        W24321  15.473   3.154  17.294  0.3064 -0.0935 -0.0753
20022W        W24322  30.964   3.652  24.333 -0.1464  0.1392  0.0790
20023W        W24323  16.256   1.742  16.830  0.2336 -0.0252  0.2399
20024W        W24324  24.428   2.535   5.969 -0.2208  0.0705  0.2287
20025W        W24325   2.016   1.102   8.382 -0.0381 -0.1348  0.0359
20026W        W24326  28.228   1.121  19.008  0.0207  0.1571 -0.4228
20027W        W24327   3.278   2.550   1.203  0.3127  0.2718  0.0483
20028W        W24328   8.122   5.736   0.113 -0.1225 -0.1689  0.1475
20029W        W24329   6.001   5.572   2.209  0.0320  0.1273 -0.1887
20030W        W24330   7.957   4.604  19.475 -0.2823 -0.2027  0.1060
20031W        W24331  20.635   0.318   5.223  0.2878 -0.3314 -0.1212
20032W        W24332  20.898   3.888  23.300 -0.0009  0.1316 -0.1633
20033W        W24333   9.061   7.580  24.964  0.1774  0.1767 -0.0800
20034W        W24334   7.485   7.757   5.640 -0.1050 -0.0595 -0.0273
20035W        W24335  24.812   3.224  22.169  0.1512 -0.2894 -0.0772
20036W        W24336  17.806   2.657   4.235 -0.2801  0.1221 -0.3496
20037W        W24337  10.410   2.286  24.478  0.0142  0.0622 -0.2303
20038W        W24338  30.912   3.389   1.358  0.1669  0.0262  0.0395
20039W        W24339  12.281   6.947   9.271  0.1684 -0.1597  0.0660
20040W        W24340   9.070   5.581  22.792  0.4494  0.1490 -0.0764
20041W        W24341  15.460   2.536   3.884  0.2984 -0.1951  0.0105
20042W        W24342  12.696   0.564   2.669  0.0688  0.3237  0.4964
20043W        W24343   8.541   1.677   8.654 -0.2536 -0.0117 -0.0701
20044W        W24344   0.279   1.540  21.845  0.0330  0.3348 -0.0228
20045W        W24345  11.277   2.637   2.927  0.0520  0.1226 -0.1517
20046W        W24346   0.677   2.769  24.834 -0.0444  0.0457  0.2790
20047W        W24347   8.083   6.736  24.105 -0.1421 -0.0479  0.1020
20048W        W24348  19.502   6.237   6.558 -0.0119 -0.1224  0.0937
20049W        W24349   0.582   7.083  11.518  0.2385  0.1788 -0.2214
20050W        W24350  17.169   4.366  15.832  0.1445  0.1897  0.4270
20051W        W24351   9.098   0.910  19.582  0.1214 -0.0046  0.1647
20052W        W24352  25.194   7.263  25.884  0.0127 -0.3343 -0.2410
20053W        W24353  10.768   0.143  21.559 -0.0508  0.2620  0.3313
20054W        W24354   5.808   2.354  11.284 -0.0162  0.3890 -0.0354
20055W        W24355  19.283   4.006   7.611 -0.1788  0.0901  0.0937
20056W        W24356  30.107   6.265  11.136  0.3814  0.0852 -0.2888
20057W        W24357  29.771   7.542  17.510  0.0382 -0.1484 -0.0581
20058W        W24358   0.693   1.172   7.627  0.2498  0.0097  0.1419
20059W        W24359  14.796   7.084  18.953  0.3503  0.3270  0.3388
20060W        W24360  26.768   6.329   7.563  0.3502 -0.0709 -0.0431
20061W        W24361  14.429   3.178   1.179  0.1622 -0.4253  0.0486
20062W        W24362  20.582   7.769   0.004 -0.0786  0.1336  0.0807
20063W        W24363  10.840   3.295   9.020  0.1667 -0.4407  0.3017
20064W        W24364   2.992   4.141  23.512 -0.2214  0.0759 -0.0138
20065W        W24365  22.927   3.984   7.303  0.3385  0.1589  0.1516
20066W        W24366   9.463   2.767  11.103 -0.1228 -0.0352  0.0922
20067W        W24367   0.890   0.099  10.334  0.0806  0.0264  0.0837
20068W        W24368  23.758   7.123   4.646  0.1336 -0.3623  0.3562
20069W        W24369  26.406   1.847  15.945 -0.0980 -0.1026 -0.0096
20070W        W24370   5.733   4.125   2.229 -0.1456 -0.1487  0.1568
20071W        W24371   6.826   6.269  22.840  0.0865  0.1507 -0.0903
20072W        W24372   2.581   0.932   8.801 -0.0147  0.1872 -0.1589
20073W        W24373  16.390   2.175  25.997 -0.1447  0.1246 -0.1288
20074W        W24374  29.636   4.902  25.713 -0.0614 -0.1267 -0.0055
20075W        W24375  27.854   7.084  23.222  0.0395  0.1046  0.0035
20076W        W24376  14.748   2.827  18.881 -0.0913  0.2257  0.3405
20077W        W24377  17.657   4.625   2.173 -0.0259 -0.3691 -0.1590
20078W        W24378  14.491   4.090  20.212  0.1408 -0.1744 -0.0551
20079W        W24379  26.830   7.319   4.254 -0.0915 -0.2390 -0.1354
20080W        W24380   7.384   6.868   9.631  0.1417  0.4043  0.0320
20081W        W24381  19.504   6.953  20.342  0.1226  0.0606 -0.1799
20082W        W24382  30.070   0.709  18.492  0.0556  0.1102  0.1410
20083W        W24383   6.584   4.948   4.571  0.0266  0.1136 -0.3415
20084W        W24384  16.689   3.044   4.553 -0.3186 -0.1893  0.0333
20085W        W24385  18.678   0.471   4.710 -0.1966  0.1252  0.0910
20086W        W24386  11.491   0.799   5.152 -0.3560 -0.0918  0.1131
20087W        W24387   1.068   5.869  24.096 -0.0314 -0.0034 -0.0729
20088W        W24388  26.908   2.662  24.071  0.1273  0.1911 -0.1800
20089W        W24389  22.188   1.109  10.689 -0.1698  0.0131 -0.2054
20090W        W24390  23.067   2.959   0.741  0.1409 -0.0871 -0.0422
20091W        W24391   7.096   1.834   5.180  0.0773 -0.3217  0.2265
20092W        W24392  15.992   6.830  23.194  0.1581 -0.1942 -0.0665
20093W        W24393  13.783   1.212  23.487 -0.2473  0.1900  0.1143
20094W        W24394  29.805   7.270  19.014 -0.0622  0.3737  0.1260
20095W        W24395  20.376   1.566   4.648  0.0819  0.0706  0.1187
20096W        W24396  26.450   3.227  20.831 -0.0387 -0.2066 -0.0539
20097W        W24397  16.525   4.244  16.318 -0.2069  0.1892  0.1608
20098W        W24398  20.129   3.556   6.777 -0.2547  0.2029 -0.0260
20099W        W24399  12.126   5.076   5.679 -0.0282  0.1813 -0.0412
20100W        W24400  24.663   5.058  23.367  0.0758 -0.0354 -0.0850
20101W        W24401  13.549   2.243  23.683  0.2362 -0.3114 -0.3446
20102W        W24402  29.993   3.410  17.490 -0.1234  0.2355  0.2434
20103W        W24403  16.787   2.329   7.078 -0.0114  0.0613  0.1713
20104W        W24404  29.531   4.961  26.192 -0.0585  0.0862 -0.1596
20105W        W24405  25.094   5.331  16.979  0.1320 -0.0615  0.1206
20106W        W24406  16.386   5.578   5.283 -0.1724  0.1518 -0.1944
20107W        W24407   1.068   2.617  10.775  0.4342  0.0254  0.1198
20108W        W24408  18.376   5.107   1.839 -0.1450  0.0907 -0.0228
20109W        W24409  20.459   4.645  19.333  0.0599  0.3494  0.2431
20110W        W24410  18.794   7.470  23.703 -0.2090  0.0126 -0.3142
20111W        W24411  22.928   6.234   7.843 -0.1697 -0.0137 -0.0043
20112W        W24412   5.997   7.356  16.272 -0.0003 -0.1988 -0.1524
20113W        W24413   8.454   2.777  19.492  0.1054 -0.0037 -0.0689
20114W        W24414   8.163   5.005   2.858  0.1016 -0.1166  0.2779
20115W        W24415   1.820   0.104  24.680  0.0892  0.3209  0.0457
20116W        W24416  22.011   0.354  17.320 -0.0634  0.1355 -0.1556
20117W        W24417  11.590   4.695   2.906  0.0832 -0.0870 -0.1682
20118W        W24418   8.423   4.470  25.209 -0.2228  0.1145 -0.2002
20119W        W24419   1.781   4.207  16.461  0.0637  0.0145  0.1475
20120W        W24420  21.614   5.528  23.285 -0.1612 -0.5296 -0.1565
20121W        W24421  23.757   6.895   3.640 -0.0575  0.2778 -0.0566
20122W        W24422   4.162   3.508  11.071  0.1219  0.2955  0.0023
20123W        W24423  14.306   3.445  10.004 -0.1091 -0.2167  0.2853
20124W        W24424   2.496   3.154  18.679 -0.1847 -0.0131  0.1165
20125W        W24425  14.316   1.063  20.941 -0.1924  0.1603  0.3140
20126W        W24426   7.331   6.766   7.342  0.0789 -0.4671 -0.0902
20127W        W24427   6.253   3.146  16.769 -0.0533 -0.3422  0.0046
20128W        W24428   1.321   4.973   8.264 -0.3959  0.0293 -0.3111
20129W        W24429  30.218   5.376  21.732  0.2281 -0.0143 -0.2391
20130W        W24430   4.615   4.436  17.228  0.0815 -0.2290 -0.2467
20131W        W24431  18.844   3.975   4.890 -0.0171 -0.1449 -0.1252
20132W        W24432   6.970   3.711  17.048  0.2006  0.1506  0.3405
20133W        W24433  20.185   6.280  17.157  0.2584  0.2611  0.0756
20134W        W24434  24.447   3.771   6.559  0.0502 -0.2255  0.3114
20135W        W24435  12.359   6.610   2.520  0.2581 -0.0872 -0.0161
20136W        W24436   1.128   7.487   5.705  0.3689 -0.0933 -0.0279
20137W        W24437   3.169   2.693   6.653 -0.1599  0.4195  0.0588
20138W        W24438  30.043   4.309   7.980 -0.1803 -0.0549 -0.1267
20139W        W24439  31.168   2.204  17.110 -0.1078 -0.1861  0.3421
20140W        W24440  21.784   7.131  17.098  0.0462  0.0642 -0.0172
20141W        W24441  11.425   7.448   6.457  0.3080 -0.0171 -0.1568
20142W        W24442  26.020   7.549  16.490  0.2051 -0.0082 -0.0508
20143W        W24443  20.766   0.323   9.046 -0.1683  0.2120  0.1516
20144W        W24444  22.784   4.188   3.931 -0.1289 -0.2291  0.0931
20145W        W24445  19.346   1.954  19.380 -0.0998 -0.2433  0.1246
20146W        W24446   9.468   1.915  19.262  0.1535 -0.0917 -0.2255
20147W        W24447   7.842   7.687  16.382  0.1201 -0.3688 -0.1234
20148W        W24448  26.065   4.783   8.155 -0.1818 -0.0091 -0.2146
20149W        W24449  20.378   4.481   9.439  0.0119  0.0355 -0.1092
20150W        W24450  16.012   1.600  22.415 -0.1036 -0.2744 -0.0585
20151W        W24451   6.245   5.772  18.042 -0.1186 -0.2687 -0.0294
20152W        W24452  29.921   3.749  15.582  0.0161  0.2235  0.0814
20153W        W24453  18.125   1.753  25.361 -0.0900  0.0245  0.2183
20154W        W24454  11.190   2.673   3.482 -0.2066 -0.0151 -0.0889
20155W        W24455  12.412   4.336   2.774 -0.0779 -0.0661 -0.1264
20156W        W24456  12.503   4.582   3.873 -0.3530 -0.2944  0.2132
20157W        W24457  18.214   2.818  16.255 -0.1418 -0.0195 -0.0584
20158W        W24458  15.731   0.471   6.775 -0.3305  0.0110  0.2281
20159W        W24459  22.865   2.399   2.645 -0.1108 -0.1715  0.0835
20160W        W24460  30.961   0.047  17.544 -0.2368 -0.0064  0.1336
20161W        W24461  28.548   0.355   3.403  0.1006 -0.0460  0.4825
20162W        W24462  25.888   5.053   5.306  0.0475  0.3478  0.2566
20163W        W24463  13.081   5.073  23.195  0.2861 -0.0007 -0.0024
20164W        W24464  13.218   5.875   4.982 -0.1296  0.0334 -0.0700
20165W        W24465  11.624   3.706  20.325 -0.1502 -0.0419 -0.0464
20166W        W24466  13.842   7.395   8.052  0.1162  0.0309  0.2066
20167W        W24467   1.155   7.754  22.448 -0.0577 -0.1483 -0.2051
20168W        W24468  21.300   3.400   5.385 -0.2356 -0.1565  0.1114
20169W        W24469  19.680   0.844  25.067 -0.2966 -0.1559 -0.1034
20170W        W24470   9.717   2.454  20.155 -0.0886  0.0239  0.1565
20171W        W24471   2.698   7.702  22.429 -0.1739 -0.0300 -0.0954
20172W        W24472   3.496   3.791  21.629  0.0616 -0.0419  0.0888
20173W        W24473  20.368   7.180   0.771 -0.0489 -0.0241 -0.1633
20174W        W24474  18.051   2.048  23.680 -0.3751 -0.2251  0.2606
20175W        W24475  28.611   0.451  20.395 -0.1841 -0.0264 -0.1897
20176W        W24476   9.588   4.774  16.427 -0.1006 -0.3318  0.0803
20177W        W24477  20.379   1.939  11.408  0.0323  0.1855  0.2062
20178W        W24478  28.983   1.280  15.564 -0.4079  0.1135  0.0772
20179W        W24479  30.117   2.745   1.481  0.0835 -0.2157 -0.2512
20180W        W24480  28.849   4.735   1.734 -0.0242  0.0850  0.1968
20181W        W24481   4.764   1.612  22.064 -0.1284  0.2760 -0.1848
20182W        W24482   4.235   0.738   2.089 -0.0841 -0.0551  0.0083
20183W        W24483  28.624   3.680  24.176  0.2949 -0.0815  0.0497
20184W        W24484  10.302   6.179  26.033 -0.0760  0.1295  0.0914
20185W        W24485  18.332   5.613  19.581  0.1918 -0.0265  0.1510
20186W        W24486   9.898   1.926  26.404  0.2966 -0.1251  0.0665
20187W        W24487  15.378   6.487  16.947 -0.1782  0.1517 -0.0461
20188W        W24488  14.630   3.897  17.340  0.0672 -0.0552  0.1558
20189W        W24489  11.467   3.845  18.711 -0.1360  0.1475 -0.0529
20190W        W24490  15.946   3.129   9.902 -0.3537 -0.0340 -0.1619
20191W        W24491   5.928   2.724  25.139  0.4001 -0.3468 -0.1251
20192W        W24492  29.284   3.825  23.484  0.1578  0.0073  0.1563
20193W        W24493   8.125   5.377  18.614  0.0361 -0.3340  0.1989
20194W        W24494   7.231   7.786  21.905 -0.0358  0.1867  0.0614
20195W        W24495  13.708   6.588   1.902  0.3109 -0.1058 -0.4813
20196W        W24496  22.430   3.804  23.205 -0.0426 -0.1966 -0.2713
20197W        W24497  28.703   5.618  17.953 -0.0096  0.0716 -0.0081
20198W        W24498  22.536   2.530  23.672 -0.1676 -0.1538  0.2039
20199W        W24499   6.172   7.167   7.654  0.1630 -0.1768 -0.0729
20200W        W24500  14.714   5.674  17.138 -0.0766 -0.0289  0.1196
20201W        W24501   7.909   1.179  20.136  0.0274  0.0222  0.0268
20202W        W24502   7.322   2.505   6.316 -0.1649 -0.3770 -0.1517
20203W        W24503  24.031   7.420  16.494 -0.5798  0.1618 -0.2659
20204W        W24504   2.562   7.776  25.835 -0.2167 -0.0625 -0.1709
20205W        W24505   9.970   5.885  17.700 -0.0047 -0.0326  0.1799
20206W        W24506   5.878   2.247  10.778 -0.2246 -0.0741 -0.0202
20207W        W24507  13.681   3.854  25.621  0.0349  0.1890  0.0546
20208W        W24508   0.188   6.073   9.408  0.2206 -0.1244  0.2419
20209W        W24509   4.477   7.010  22.138  0.1406  0.1302 -0.1425
20210W        W24510  17.775   7.166   3.480 -0.1454  0.1514  0.0231
20211W        W24511  28.792   5.282   3.755 -0.1033  0.1704  0.0846
20212W        W24512  29.092   6.929   3.277 -0.2072  0.0129 -0.0085
20213W        W24513  21.370   5.375  10.629  0.3019  0.4238  0.2487
20214W        W24514  21.723   0.260  18.853  0.1976  0.2861 -0.0485
20215W        W24515  27.794   1.169  23.097  0.4111 -0.0172  0.2278
20216W        W24516  12.756   1.208  19.034 -0.3589  0.1063 -0.2644
20217W        W24517  30.241   2.613  19.252 -0.1099 -0.1874  0.0139
20218W        W24518   4.969   4.719   8.213 -0.0078  0.0272  0.0482
20219W        W24519  11.418   7.551   1.064  0.0377  0.2140  0.2711
20220W        W24520  18.267   4.325   2.191 -0.0920 -0.1189 -0.1186
20221W        W24521   3.723   3.002   7.804  0.0189  0.0145 -0.2968
20222W        W24522   0.980   1.988  21.732 -0.1768  0.2096 -0.3213
20223W        W24523  28.477   4.235   4.674 -0.1050  0.1761  0.1736
20224W        W24524  17.726   1.742  26.251  0.3271  0.0002  0.0457
20225W        W24525  28.527   5.041  25.126  0.0650 -0.0993  0.0196
20226W        W24526  25.956   7.293  23.241  0.1370 -0.1161  0.1677
20227W        W24527   5.961   6.133  22.245 -0.1659 -0.0451 -0.0210
20228W        W24528   4.548   5.917   0.682 -0.1060  0.3236  0.1368
20229W        W24529  23.737   4.836  23.018 -0.0318  0.0467 -0.1118
20230W        W24530  19.375   4.121  25.050 -0.0165 -0.2034  0.0285
20231W        W24531   7.209   6.268   7.936 -0.5543 -0.0214  0.2087
20232W        W24532  12.221   3.112   7.362  0.3265  0.2150  0.0228
20233W        W24533  14.191   7.243   6.049  0.0935  0.3069  0.0033
20234W        W24534  22.546   7.177   3.909 -0.0456  0.1338  0.2545
20235W        W24535  13.888   1.194   7.646 -0.0013  0.1327 -0.0055
20236W        W24536  28.228   2.353  26.309 -0.2517 -0.0027 -0.0903
20237W        W24537  22.750   6.661  25.820  0.2224 -0.0790  0.0315
20238W        W24538  30.286   4.072   0.405 -0.0316 -0.1952  0.0085
20239W        W24539  12.274   5.722  10.224 -0.0314 -0.1806  0.1365
20240W        W24540  23.993   0.325   1.773 -0.1565  0.0944 -0.4664
20241W        W24541  15.664   0.901  24.974  0.1575 -0.1432 -0.0568
20242W        W24542  27.069   0.244  17.393 -0.2490 -0.3015 -0.2255
20243W        W24543  22.027   6.297   7.955  0.1655 -0.2340 -0.0546
20244W        W24544  20.347   1.903  21.783 -0.4228  0.0536 -0.2579
20245W        W24545  12.883   0.547   1.103  0.2341  0.4158 -0.1515
20246W        W24546   7.904   1.287  24.733  0.1032 -0.2866 -0.0113
20247W        W24547  15.102   6.379   1.489  0.0238 -0.2098 -0.0267
20248W        W24548  21.677   1.427   2.479 -0.0947  0.0012 -0.0846
20249W        W24549  28.624   6.603  23.686  0.1186 -0.1232  0.1359
20250W        W24550  26.179   4.937   0.289  0.3577  0.0683  0.3152
20251W        W24551  27.386   3.985  18.308 -0.0748  0.0017  0.1425
20252W        W24552  19.688   4.938   0.831 -0.0425  0.0131  0.0024
20253W        W24553  12.849   3.583   0.385 -0.1010 -0.2338 -0.0944
20254W        W24554   9.078   7.709   8.101 -0.1850 -0.2134 -0.2936
20255W        W24555   7.822   4.663  15.578  0.2129 -0.1035 -0.1403
20256W        W24556   2.925   4.018  24.751  0.0660 -0.1616  0.0754
20257W        W24557  15.519   4.950   1.840 -0.0769 -0.1082 -0.1274
20258W        W24558  14.713   2.598   0.201 -0.0406  0.1524  0.0159
20259W        W24559  27.163   4.699  23.227 -0.1505 -0.2084 -0.1206
20260W        W24560  26.590   4.940  17.041  0.1016 -0.1399 -0.2002
20261W        W24561  11.161   7.272   8.212  0.2296  0.1475  0.1298
20262W        W24562  25.211   0.369  19.883 -0.0776  0.0309 -0.3476
20263W        W24563   7.402   3.830   1.672  0.0119  0.2215 -0.1537
20264W        W24564  21.249   1.683   8.598 -0.1324 -0.2343  0.0840
20265W        W24565  23.237   5.172   8.876 -0.1582 -0.1042  0.2311
20266W        W24566   1.865   1.323   8.899  0.2366  0.1510 -0.1518
20267W        W24567  27.885   1.882   7.109  0.2771 -0.0606  0.0838
20268W        W24568  21.282   2.322  22.974 -0.0282  0.3121  0.3314
20269W        W24569   4.122   1.588  24.287  0.1104  0.1446 -0.2004
20270W        W24570  25.674   3.315  15.683 -0.0168  0.0954  0.0149
20271W        W24571  21.916   7.052  24.680 -0.0821 -0.2761 -0.0120
20272W        W24572   1.396   3.524  15.343  0.0535  0.1504  0.1418
20273W        W24573   7.899   6.091   3.376  0.0604 -0.1454 -0.1354
20274W        W24574  27.606   6.563   4.191 -0.1407  0.1134  0.0598
20275W        W24575   2.393   3.533  22.039 -0.1000 -0.0964 -0.0090
20276W        W24576  13.319   2.254  15.746  0.2525  0.1243  0.1016
20277W        W24577  29.038   6.692  21.396  0.1609 -0.0379 -0.1171
20278W        W24578  12.882   0.480   0.249  0.0090  0.0466 -0.0373
20279W        W24579  29.154   0.571  10.054 -0.2836 -0.2004  0.0053
20280W        W24580  19.809   7.707  15.902  0.0663  0.0724  0.1368
20281W        W24581  10.727   2.606  20.371  0.0021 -0.4443  0.0844
20282W        W24582   0.616   6.490   3.126  0.1197  0.1078  0.0520
20283W        W24583  26.309   3.783  25.430  0.0230 -0.2801  0.3153
20284W        W24584  24.351   4.020  10.639  0.2121 -0.0488 -0.1355
20285W        W24585  14.459   6.936  16.124  0.1536 -0.0205 -0.2147
20286W        W24586   9.665   3.724  23.130 -0.0874  0.4110  0.1189
20287W        W24587   1.656   1.199   6.609 -0.0676  0.2100 -0.0042
20288W        W24588   1.920   1.677  25.260  0.2593 -0.0034 -0.5335
20289W        W24589  13.567   6.665  15.875 -0.2985 -0.0892  0.0908
20290W        W24590  30.921   2.961   6.946  0.2334  0.1952 -0.2709
20291W        W24591   3.926   4.402  18.466  0.1262 -0.0298 -0.1351
20292W        W24592  12.075   0.689  26.326  0.1519 -0.0000  0.1209
20293W        W24593  17.114   6.930  24.662  0.0913  0.1283  0.0219
20294W        W24594   8.166   3.221   3.030  0.0266  0.1319  0.1385
20295W        W24595   1.870   7.313  26.362  0.2033 -0.0392 -0.1706
20296W        W24596   4.608   3.627  22.845 -0.0123  0.1792  0.0913
20297W        W24597   0.087   1.900  18.813  0.0239 -0.2449  0.1448
20298W        W24598   3.037   5.933  10.520 -0.4540 -0.1530  0.3902
20299W        W24599   1.630   2.734  15.427 -0.1618 -0.0203 -0.0068
20300W        W24600  25.880   1.560  10.098 -0.0519  0.0661 -0.2537
20301W        W24601  17.039   2.703   8.533  0.0519  0.1113 -0.0924
20302W        W24602  13.690   5.857   7.188  0.3105  0.0008 -0.3326
20303W        W24603  10.414   5.810  20.478 -0.1036  0.2970 -0.0797
20304W        W24604  12.636   3.234  19.767  0.1186  0.0953 -0.1585
20305W        W24605  23.091   2.360   6.140  0.1450 -0.2559  0.0956
20306W        W24606   6.399   0.696  25.705  0.0966 -0.0038 -0.3145
20307W        W24607  15.959   7.671  25.069 -0.0811 -0.2426  0.0093
20308W        W24608   8.842   7.583  10.125  0.0962  0.1662 -0.4740
20309W        W24609   1.783   3.658  20.574  0.0180 -0.0482 -0.0651
20310W        W24610   5.762   3.368   4.236 -0.2199 -0.3036  0.1528
20311W        W24611  23.543   1.813  10.697 -0.1112 -0.0677  0.1762
20312W        W24612  10.524   4.192   4.633  0.2375 -0.1377  0.0389
20313W        W24613   0.342   5.692  25.515  0.1519  0.6988  0.0448
20314W        W24614  19.258   3.756   4.822 -0.2225 -0.0009  0.0313
20315W        W24615  11.616   2.248  25.204 -0.0197 -0.0909  0.1455
20316W        W24616  12.500   7.194  26.153  0.3199  0.0810 -0.0328
20317W        W24617  25.424   0.032   6.892  0.0674  0.2603  0.2063
20318W        W24618   1.058   6.404  20.542 -0.0429 -0.1350 -0.0816
20319W        W24619  20.667   3.743  17.028 -0.1188 -0.0523 -0.0738
20320W        W24620  14.347   3.800  21.211  0.2252 -0.3550 -0.0822
20321W        W24621  12.795   6.037   5.344 -0.1203  0.1096  0.0105
20322W        W24622  19.488   1.232  22.634 -0.0421 -0.3483 -0.1485
20323W        W24623  29.610   5.465   9.222  0.2293  0.1287  0.0393
20324W        W24624  13.992   3.993  16.777  0.0356 -0.1524  0.0075
20325W        W24625  12.369   0.868  23.231  0.0683 -0.2508  0.2554
20326W        W24626   9.852   0.436  19.669 -0.1938  0.1710  0.0020
20327W        W24627  27.438   2.037   8.476 -0.1566  0.0646  0.2236
20328W        W24628  15.060   1.290   1.644 -0.3468 -0.0997 -0.1056
20329W        W24629   4.100   6.269   3.671 -0.2512  0.0093  0.0157
20330W        W24630  14.920   5.386   2.569  0.0154 -0.1726 -0.2651
20331W        W24631   8.575   4.027   3.509 -0.0327 -0.2425  0.3092
20332W        W24632  25.749   4.465  19.120  0.0137  0.1749 -0.3104
20333W        W24633  20.729   6.959  20.789 -0.3406 -0.1127 -0.1044
20334W        W24634   5.310   2.510  26.027 -0.2039 -0.0468  0.1870
20335W        W24635  26.143   4.605   1.113 -0.0517  0.1106  0.1138
20336W        W24636  19.315   5.728  23.141  0.0248  0.0387 -0.0864
20337W        W24637  22.958   4.139  16.144 -0.3067  0.1295  0.0965
20338W        W24638   3.187   2.113   7.771 -0.3673 -0.2718  0.2645
20339W        W24639  27.822   7.009  22.250 -0.0644  0.1019 -0.0320
20340W        W24640  23.930   7.166  18.774 -0.0465 -0.1344  0.0709
20341W        W24641  10.335   7.078  10.225  0.0302  0.1251  0.0463
20342W        W24642   6.461   5.615   0.981 -0.0336 -0.1213 -0.3966
20343W        W24643  17.988   7.739  10.589 -0.2227 -0.2320  0.0120
20344W        W24644  19.792   7.107   7.072  0.0836 -0.2232  0.0451
20345W        W24645  19.777   5.381  20.297 -0.0576 -0.1349  0.3356
20346W        W24646  26.491   4.347   7.341  0.1717  0.0838  0.0874
20347W        W24647   5.328   4.946  20.942 -0.0583  0.0646  0.0360
20348W        W24648   6.545   0.888   7.857 -0.1975 -0.0796 -0.2764
20349W        W24649  30.642   6.739   9.421  0.0635 -0.2889  0.1913
20350W        W24650  23.151   2.101  20.608  0.0770 -0.0303 -0.0787
20351W        W24651  29.243   7.405  17.055  0.0733 -0.0900 -0.0687
20352W        W24652  17.575   6.169  15.517  0.0216 -0.0618  0.0583
20353W        W24653  12.504   1.903   8.605  0.1246  0.1023  0.1056
20354W        W24654   8.795   2.101  18.044  0.2908  0.1813 -0.1127
20355W        W24655   7.087   2.512  20.384 -0.1077  0.3771 -0.1175
20356W        W24656   9.296   4.949   4.492 -0.1135  0.2006  0.0509
20357W        W24657  11.138   4.628  24.219  0.2439  0.0064 -0.2789
20358W        W24658  26.900   4.013  22.402 -0.0800 -0.2053  0.2794
20359W        W24659  24.540   5.945  17.149  0.3146 -0.0301  0.1465
20360W        W24660   9.337   2.556   1.742 -0.2434  0.0260  0.1249
20361W        W24661  21.091   0.137  11.056 -0.3007 -0.3472 -0.0755
20362W        W24662   8.369   5.405  23.195  0.0139 -0.0964  0.4360
20363W        W24663  25.977   7.298   9.704 -0.2761  0.2868  0.0117
20364W        W24664   6.791   3.064  25.134 -0.0597  0.2020  0.0666
20365W        W24665  12.461   1.313  11.326  0.1208 -0.1209  0.1018
20366W        W24666  22.717   5.770   7.775  0.0688  0.4202 -0.0332
20367W        W24667  30.183   3.809  19.904  0.0924  0.1479  0.1231
20368W        W24668  14.062   4.288   0.677 -0.0081 -0.3189 -0.0034
20369W        W24669   0.320   1.238   8.051 -0.1339 -0.1354  0.0260
20370W        W24670  13.314   6.477   5.922 -0.0624  0.0576  0.1966
20371W        W24671  13.357   6.282  21.527 -0.0619  0.4051  0.3057
20372W        W24672  18.739   3.753   0.299 -0.2729  0.0800 -0.0896
20373W        W24673   5.735   3.501  18.215 -0.2760  0.1168  0.3083
20374W        W24674  11.768   6.552  16.466  0.2933 -0.0959 -0.0756
20375W        W24675   7.019   2.038  25.635 -0.1026  0.2943 -0.0260
20376W        W24676  24.316   4.880   2.355  0.0422  0.2364  0.1901
20377W        W24677  13.560   1.429  20.682 -0.1634  0.3025 -0.2600
20378W        W24678   2.394   4.018  22.737 -0.1134 -0.0127 -0.0660
20379W        W24679  29.727   7.426   0.990 -0.3194 -0.1294 -0.0720
20380W        W24680  17.140   2.570   9.505 -0.0670 -0.1279  0.2477
20381W        W24681  17.090   2.347  23.135 -0.1390 -0.2941 -0.1882
20382W        W24682  10.314   6.511  15.620  0.0940  0.0956  0.1283
20383W        W24683  22.840   3.027  18.053  0.3129 -0.0215  0.1531
20384W        W24684  15.427   5.205   1.362  0.1095  0.0106 -0.2542
20385W        W24685  13.243   5.353   4.985  0.2331  0.0365 -0.1736
20386W        W24686  29.618   7.016   4.923  0.0010  0.1938 -0.3933
20387W        W24687   2.500   4.121   1.413 -0.0212 -0.2190  0.2313
20388W        W24688   8.400   6.439  23.816  0.1174  0.0261 -0.0524
20389W        W24689  14.745   5.578  25.495 -0.0886 -0.0700 -0.0289
20390W        W24690  14.610   7.667   1.717 -0.1351  0.0122 -0.2667
20391W        W24691  25.185   4.643   0.799 -0.0559 -0.0321  0.2082
20392W        W24692   7.957   3.615   6.795 -0.0154 -0.3496 -0.1789
20393W        W24693  22.585   5.073   6.415  0.2369  0.0433 -0.0820
20394W        W24694  16.904   5.585  26.081 -0.1503  0.1504  0.0044
20395W        W24695   7.343   6.936  23.604  0.1328 -0.1248  0.2408
20396W        W24696  16.573   5.138  14.788 -0.2333 -0.0799  0.3173
20397W        W24697  24.366   3.024  19.706  0.1572 -0.1585 -0.1005
20398W        W24698  17.851   5.894  25.308 -0.2091  0.1641  0.1535
20399W        W24699  12.005   5.748  10.876 -0.1274  0.1386 -0.0229
20400W        W24700  14.943   3.791  23.266  0.1467 -0.1094  0.0981
20401W        W24701   6.489   6.196   8.991  0.0926  0.1518 -0.0917
20402W        W24702  13.108   3.770   2.967  0.0628 -0.0204 -0.2100
20403W        W24703  29.592   7.054   0.070  0.1210  0.2539 -0.0916
20404W        W24704  24.666   6.981   3.824 -0.0762 -0.0131  0.3777
20405W        W24705   8.917   3.544   6.198 -0.1195  0.1845  0.0531
20406W        W24706   6.037   1.828  21.804 -0.2495  0.0529 -0.2564
20407W        W24707   3.996   5.534  24.437 -0.0339 -0.0436 -0.1735
20408W        W24708  26.362   6.847  20.739 -0.0683  0.3624  0.1966
20409W        W24709  26.399   0.093  23.075  0.0667 -0.1850  0.2188
20410W        W24710  31.153   2.744   2.028  0.1636 -0.1487  0.3737
20411W        W24711   7.144   0.799   7.672  0.2216  0.1664 -0.1770
20412W        W24712  26.982   5.128   8.888  0.0833 -0.1098 -0.0108
20413W        W24713   4.974   7.722  20.727 -0.0505  0.0458  0.1888
20414W        W24714   4.378   4.102   6.254  0.1718 -0.3703  0.2648
20415W        W24715  26.581   6.612  22.943  0.0642  0.2067  0.0642
20416W        W24716   6.305   1.746  19.903  0.2791 -0.2407 -0.0523
20417W        W24717  14.447   4.605   4.592 -0.0386 -0.0557  0.2226
20418W        W24718  15.475   1.252   5.579  0.4095  0.1051  0.2199
20419W        W24719  31.166   1.570   3.661  0.1271  0.0876 -0.1402
20420W        W24720  28.327   3.763  21.536 -0.2142  0.0195  0.2648
20421W        W24721  13.968   0.110  21.846 -0.0843  0.1988  0.2912
20422W        W24722  26.264   2.246   6.876 -0.1292  0.4624 -0.0969
20423W        W24723  28.772   4.777  20.755 -0.1278 -0.3371  0.0506
20424W        W24724  26.010   2.268  21.626  0.1735 -0.0489 -0.1922
20425W        W24725  14.326   4.943  22.220 -0.0143 -0.1587  0.1792
20426W        W24726   7.771   5.806  21.026  0.0434  0.2876  0.0688
20427W        W24727   1.632   1.699  23.181 -0.2298  0.0419  0.2001
20428W        W24728  17.417   6.872  16.701  0.1922  0.0049 -0.0861
20429W        W24729   4.112   7.277  19.839  0.1645  0.2903  0.3955
20430W        W24730   2.303   6.539   5.055 -0.2487 -0.0237  0.0095
20431W        W24731   3.356   5.802  15.306 -0.0630 -0.0795 -0.1891
20432W        W24732   6.371   0.786  23.757  0.1732  0.0487 -0.0566
20433W        W24733  22.910   2.380  24.089 -0.0439  0.0014  0.1386
20434W        W24734  29.047   0.091  10.265  0.0596  0.1461  0.2222
20435W        W24735  20.715   5.563  19.721  0.2852  0.1111  0.3530
20436W        W24736  14.302   5.047  18.638 -0.0077 -0.0495  0.1770
20437W        W24737  10.733   0.067  19.544  0.0628 -0.0134  0.0437
20438W        W24738   4.987   5.309  16.363 -0.2080 -0.1094  0.1094
20439W        W24739  18.072   3.160   0.058  0.0101  0.1505  0.1262
20440W        W24740  28.522   6.722  19.433  0.0740 -0.2185 -0.2771
20441W        W24741  22.698   5.001   4.045  0.0760 -0.0848  0.0618
20442W        W24742  21.201   2.130   3.732 -0.2333 -0.0984  0.1879
20443W        W24743  26.315   3.787   0.677  0.2027 -0.2681  0.0653
20444W        W24744  22.479   2.837  23.257  0.0825 -0.2710 -0.0057
20445W        W24745  27.018   0.880   2.039 -0.0375  0.1941  0.1459
20446W        W24746  21.001   3.309   3.380 -0.0196 -0.0948 -0.4524
20447W        W24747   2.937   5.632   7.858  0.1977  0.1762  0.2026
20448W        W24748   1.828   3.699   2.058  0.0133 -0.3143 -0.0012
20449W        W24749  28.588   6.426  24.162 -0.0210  0.4255 -0.0273
20450W        W24750   6.938   2.743   7.181  0.0911 -0.0205  0.2209
20451W        W24751   9.185   0.929   2.971 -0.0425  0.1075 -0.1080
20452W        W24752  10.713   0.585   9.094 -0.2088 -0.0891 -0.0173
20453W        W24753  11.360   3.303  26.225  0.3039 -0.0336  0.2099
20454W        W24754  26.261   1.458   9.765 -0.0747  0.1879 -0.0214
20455W        W24755  29.464   0.717   7.108  0.1922  0.2990 -0.0721
20456W        W24756  22.489   7.414  25.521  0.0239  0.1660  0.1392
20457W        W24757  19.976   4.558   8.970  0.0311 -0.0891  0.2201
20458W        W24758  15.346   2.080  21.203  0.0384 -0.2156  0.0682
20459W        W24759  13.019   1.904   2.492  0.1846 -0.0924 -0.1392
20460W        W24760   2.397   2.157  22.882  0.1496 -0.0048  0.0847
20461W        W24761   6.115   4.783   2.594 -0.1166 -0.2178  0.2568
20462W        W24762  23.793   7.620   9.265  0.2419  0.0184 -0.3849
20463W        W24763  25.146   6.598   9.694 -0.2312  0.1162  0.0139
20464W        W24764  13.349   6.394  23.437  0.0286 -0.0252  0.0619
20465W        W24765   0.570   2.273  25.683 -0.0201 -0.0248  0.1778
20466W        W24766   4.645   3.941  19.525  0.0862  0.0156  0.0820
20467W        W24767   5.396   6.886  18.844 -0.0647  0.1414  0.1751
20468W        W24768   6.235   1.476   3.889 -0.0769 -0.2234  0.0763
20469W        W24769  21.393   3.551  10.069  0.2093 -0.1842 -0.2770
20470W        W24770  24.560   6.850  15.544  0.0387  0.2511  0.3553
20471W        W24771  11.559   1.723   7.535  0.4369 -0.2550 -0.0969
20472W        W24772  11.976   6.175   5.636 -0.1709  0.1668 -0.0434
20473W        W24773  10.953   2.918   7.724 -0.0371 -0.0695 -0.3718
20474W        W24774   0.788   2.330  17.021  0.1069 -0.2040  0.0347
20475W        W24775   0.958   5.706   6.516  0.0763  0.2863 -0.3313
20476W        W24776  25.814   2.249  17.202  0.1127 -0.0818 -0.1137
20477W        W24777  13.865   6.397  16.958 -0.4444  0.0502 -0.1316
20478W        W24778  21.990   6.866  17.962  0.1545 -0.2500  0.2505
20479W        W24779   5.991   4.663   5.696 -0.3571  0.1713 -0.2033
20480W        W24780   1.290   6.156   9.662 -0.3056  0.2092  0.1490
20481W        W24781   0.195   1.920  26.003  0.2072  0.0501  0.1617
20482W        W24782  15.562   2.999   7.803  0.0598 -0.1652  0.1293
20483W        W24783   9.668   6.895  20.576 -0.1033  0.0887 -0.0422
20484W        W24784  23.039   6.051  21.668 -0.0029  0.0253  0.0552
20485W        W24785   4.183   4.167  19.457  0.2230  0.3221  0.1941
20486W        W24786  11.186   3.940   8.684 -0.0960 -0.0566  0.0187
20487W        W24787  25.943   0.002   3.955 -0.0658 -0.4073 -0.0081
20488W        W24788  20.403   7.206  15.411 -0.0353  0.0727 -0.0913
20489W        W24789  27.652   2.911   6.964  0.1131  0.3413 -0.0619
20490W        W24790  12.697   2.096   6.065  0.2491 -0.0783 -0.4024
20491W        W24791  16.775   4.781   2.782 -0.2300  0.1138  0.0105
20492W        W24792   9.744   3.533   1.335  0.0699  0.0922 -0.0664
20493W        W24793   4.345   2.292   7.921 -0.2376  0.1452  0.0328
20494W        W24794  29.471   4.594   5.704 -0.3059 -0.0107  0.0289
20495W        W24795   4.336   5.244  19.493  0.0782  0.0906 -0.0170
20496W        W24796  19.962   2.930   0.693  0.0395 -0.3328  0.4360
20497W        W24797  14.939   2.890   4.916 -0.1329 -0.0544 -0.0403
20498W        W24798  26.493   5.276   3.975 -0.2200 -0.0474  0.0560
20499W        W24799  14.368   6.636   8.379  0.0292 -0.2949  0.2627
20500W        W24800  13.226   6.415   5.378  0.1513  0.1778  0.2980
20501W        W24801  27.682   1.148  21.035 -0.2076 -0.1995  0.0978
20502W        W24802  12.948   5.135  16.513  0.4385 -0.2337  0.2306
20503W        W24803   1.284   1.147  17.405 -0.1183 -0.2847 -0.1016
20504W        W24804  28.651   6.712  21.022 -0.1356  0.0446  0.2870
20505W        W24805  13.956   2.996  19.538  0.1018  0.2281  0.1454
20506W        W24806   1.796   0.382  15.679  0.0260 -0.1774  0.3521
20507W        W24807   9.221   3.725  24.163 -0.1018  0.1100  0.0620
20508W        W24808  12.110   5.794  25.664 -0.0678 -0.0188 -0.3076
20509W        W24809  14.142   3.421   5.213 -0.0695 -0.0779  0.2446
20510W        W24810  14.070   5.519   6.400 -0.2034  0.2410 -0.0627
20511W        W24811  16.024   7.685   3.057  0.1550 -0.0304  0.0799
20512W        W24812   2.373   6.961   6.857  0.1753  0.1093 -0.0428
20513W        W24813   1.160   2.687   5.935 -0.0736 -0.0158 -0.0761
20514W        W24814  10.283   7.054   0.098 -0.0244 -0.1822 -0.0010
20515W        W24815   3.708   6.924   9.721  0.3068  0.0402 -0.1146
20516W        W24816  25.103   0.133  18.590 -0.3760 -0.2179 -0.0106
20517W        W24817  20.841   5.820  24.838 -0.3101 -0.0947  0.0980
20518W        W24818  14.585   2.116   2.125  0.0329 -0.0362  0.1490
20519W        W24819  28.199   0.776   9.405  0.2125 -0.0623  0.0482
20520W        W24820  10.099   2.302  19.928 -0.1005  0.1821  0.1028
20521W        W24821   1.325   7.112   5.458  0.1880 -0.1071 -0.4164
20522W        W24822  22.390   4.893  25.822  0.2024 -0.0620  0.0167
20523W        W24823  17.329   7.794   2.521  0.2293 -0.0270  0.2615
20524W        W24824   1.426   6.598   5.286  0.1070 -0.0650  0.0329
20525W        W24825  18.487   0.458  23.612 -0.1035  0.1454 -0.0416
20526W        W24826   1.119   0.495   1.895 -0.0122 -0.1150 -0.1783
20527W        W24827   4.501   4.769   3.815 -0.1171  0.1440  0.0491
20528W        W24828  10.869   7.703   3.827  0.0726  0.3233 -0.2383
20529W        W24829   7.718   1.434  26.113  0.1673 -0.0827 -0.2167
20530W        W24830   5.442   2.416  15.710  0.1383 -0.3411 -0.3932
20531W        W24831  14.793   3.527  19.524 -0.0857 -0.0892  0.0863
20532W        W24832  18.172   0.495   4.780 -0.0396  0.2539 -0.0087
20533W        W24833  21.902   6.240   3.565 -0.0688  0.0418 -0.1047
20534W        W24834  13.466   7.281   9.853 -0.3830  0.1760 -0.1745
20535W        W24835  12.919   1.521   7.812  0.0678 -0.1686  0.0978
20536W        W24836  21.182   1.227  24.909  0.0160  0.2480 -0.1158
20537W        W24837  10.580   0.468  20.619  0.1949 -0.0110 -0.1181
20538W        W24838  20.270   3.069   7.388  0.2440  0.0155  0.2191
20539W        W24839  29.226   0.283  25.813 -0.0950 -0.0500 -0.0589
20540W        W24840   7.486   4.061  20.468  0.0391  0.1854  0.0478
20541W        W24841  16.051   3.610  10.019  0.0658 -0.2204  0.1895
20542W        W24842  29.733   0.072   0.836  0.0390  0.1163  0.1756
20543W        W24843  11.948   5.121  20.165  0.1631  0.1727 -0.1561
20544W        W24844  15.104   0.205   2.905 -0.0805  0.0825  0.1366
20545W        W24845   9.079   5.731  20.565  0.0990 -0.0547 -0.3015
20546W        W24846  20.027   0.816  19.046 -0.1411  0.1520  0.2368
20547W        W24847  25.688   1.571  15.996 -0.2657 -0.0215  0.1228
20548W        W24848   7.137   1.738  20.050  0.1112  0.2017  0.2825
20549W        W24849  14.655   2.544  20.644 -0.0200 -0.1201  0.0988
20550W        W24850  17.034   6.058  10.835  0.1030 -0.1238  0.2378
20551W        W24851  14.394   3.888   2.911  0.0258  0.0677  0.1285
20552W        W24852  14.433   3.399  22.278 -0.2031  0.0296  0.0294
20553W        W24853   4.916   3.056  16.146 -0.0734  0.2399  0.0993
20554W        W24854   3.518   0.839   1.410 -0.2844  0.2660  0.3011
20555W        W24855  26.714   2.671   8.347  0.1655  0.0266 -0.1812
20556W        W24856   5.139   3.826  21.199 -0.1504  0.1650  0.1946
20557W        W24857  13.748   5.994   9.620 -0.0482 -0.1762 -0.0907
20558W        W24858  12.447   3.564  18.803 -0.0911  0.1139  0.0640
20559W        W24859  27.433   0.443  16.320 -0.2177  0.3353 -0.2549
20560W        W24860   3.271   3.659  23.485  0.0593  0.0961 -0.2068
20561W        W24861  24.513   3.674   2.628  0.0600  0.1476 -0.1659
20562W        W24862  28.223   2.729  23.064 -0.0251 -0.1108 -0.1100
20563W        W24863  27.676   0.310  22.464  0.1893  0.1829  0.0184
20564W        W24864   7.884   6.912   3.573 -0.0419 -0.0625 -0.2328
20565W        W24865  16.916   7.501   2.628 -0.0278 -0.1825  0.0793
20566W        W24866   4.180   4.747  23.391 -0.3298  0.0136  0.2573
20567W        W24867   8.950   2.764   4.707  0.3017 -0.1964 -0.0546
20568W        W24868  23.679   6.471  10.299  0.2162  0.0202  0.0030
20569W        W24869   5.023   3.884  21.756  0.0433 -0.1116 -0.0306
20570W        W24870  15.582   1.306  19.164 -0.1177  0.1466  0.0388
20571W        W24871  22.058   0.590   7.551 -0.0405 -0.1543 -0.2278
20572W        W24872  11.500   5.790  25.524  0.4246  0.1572  0.3707
20573W        W24873  28.825   6.555  16.718 -0.0799  0.0865 -0.0328
20574W        W24874  28.104   6.655   2.458 -0.0321  0.3267 -0.3077
20575W        W24875  22.555   0.060   9.408  0.1448 -0.0846 -0.0034
20576W        W24876   8.209   2.255  18.674 -0.3254  0.1266 -0.0470
20577W        W24877   7.092   3.719   4.330  0.0849  0.0320 -0.4322
20578W        W24878   8.742   7.339  22.884 -0.0920 -0.1576  0.1536
20579W        W24879  28.267   3.013  16.921 -0.2566 -0.0201  0.1570
20580W        W24880  10.274   7.256   2.963 -0.1046 -0.2310  0.1934
20581W        W24881   0.273   3.951  15.261  0.2722  0.0878  0.0227
20582W        W24882   4.578   6.516  22.151  0.4924  0.0063 -0.0127
20583W        W24883  28.556   6.753   9.114 -0.0547 -0.1407  0.1030
20584W        W24884  26.184   0.730  25.734  0.0399 -0.1302  0.1133
20585W        W24885   9.022   2.566  18.225  0.3474 -0.0959 -0.2631
20586W        W24886  29.539   2.026  22.148  0.1944 -0.4396 -0.0782
20587W        W24887  28.299   5.841  24.946 -0.0029 -0.1324  0.2356
20588W        W24888   1.956   4.912  25.210  0.0798  0.2007  0.0303
20589W        W24889  13.981   5.073  16.748 -0.1802 -0.1117 -0.1960
20590W        W24890   0.812   4.202   3.676  0.3059 -0.0435  0.1028
20591W        W24891  29.611   6.388  24.867  0.0756  0.1095 -0.3034
20592W        W24892  20.920   1.719  24.199 -0.0112 -0.2858  0.2574
20593W        W24893  23.363   7.746  25.190  0.1614 -0.3615 -0.0408
20594W        W24894  26.135   0.228   6.392  0.0053  0.4325 -0.1503
20595W        W24895   0.984   6.420  15.565  0.3188  0.1148  0.1756
20596W        W24896  18.749   5.467  20.902  0.1706  0.1083 -0.0807
20597W        W24897  13.968   4.222   6.180 -0.0661 -0.3204 -0.0324
20598W        W24898  11.940   7.343  15.309  0.1569 -0.1117 -0.1072
20599W        W24899  28.395   1.844   5.346 -0.3290 -0.1208 -0.0461
20600W        W24900  16.793   6.462  19.641  0.2179  0.1186  0.3793
20601W        W24901   2.820   3.326   8.057  0.3075  0.0802  0.0121
20602W        W24902  11.786   4.518   1.515  0.1045 -0.1193 -0.1959
20603W        W24903  10.966   3.067  19.033  0.0571  0.0884  0.0346
20604W        W24904  13.022   7.486  21.463  0.1463  0.1460  0.1082
20605W        W24905  16.583   6.939  24.616 -0.0959 -0.2152 -0.1401
20606W        W24906   5.360   7.328  10.799 -0.1292  0.1242 -0.0080
20607W        W24907   9.884   6.900  23.331  0.0831 -0.2353  0.0149
20608W        W24908   0.498   7.441  21.502  0.1867 -0.0598  0.0648
20609W        W24909   3.799   7.292   0.173  0.0716 -0.1711 -0.1935
20610W        W24910   8.739   1.087   3.153 -0.3629 -0.0104 -0.0189
20611W        W24911  30.556   5.266  22.188  0.0388 -0.1316 -0.0218
20612W        W24912  16.425   5.135  21.986 -0.2942  0.2587 -0.3771
20613W        W24913  13.128   6.336  20.767 -0.0834 -0.0815  0.1734
20614W        W24914   0.824   4.553  10.133 -0.1088 -0.1869  0.0243
20615W        W24915   6.856   6.324  17.775 -0.0124  0.0736  0.1242
20616W        W24916  17.523   5.956  19.273  0.0482  0.1134 -0.1420
20617W        W24917  22.816   5.659   1.052  0.0149 -0.0642  0.1000
20618W        W24918   1.223   0.588  25.408 -0.3496  0.0169 -0.3739
20619W        W24919  11.132   3.866  17.567  0.0246  0.1121  0.1008
20620W        W24920   7.685   6.931  21.646  0.1650 -0.3419  0.1508
20621W        W24921   7.056   1.698   6.982 -0.0150 -0.0960  0.1017
20622W        W24922   3.713   6.794   6.552  0.0254 -0.1571 -0.3966
20623W        W24923   8.460   3.824  11.367  0.3113  0.0191  0.0134
20624W        W24924   8.614   7.492  24.775 -0.0929 -0.0304  0.0810
20625W        W24925  15.474   4.521   7.587  0.3720 -0.0908  0.1433
20626W        W24926   5.014   6.506  18.956  0.2059 -0.1561  0.1178
20627W        W24927   4.625   5.043  20.432  0.4158 -0.1298  0.1364
20628W        W24928   7.977   7.553   4.929  0.1897 -0.0693  0.2136
20629W        W24929  11.792   5.669   0.852 -0.1592  0.1862 -0.2352
20630W        W24930  13.416   1.129   4.133  0.4760 -0.0961 -0.2402
20631W        W24931  10.930   7.132  23.359 -0.0065  0.0997 -0.0706
20632W        W24932  11.196   0.263   7.456 -0.2330 -0.0533 -0.0070
20633W        W24933  19.536   1.995   2.877  0.0329  0.0746 -0.0144
20634W        W24934  28.104   3.288   6.185 -0.3161 -0.3478 -0.2208
20635W        W24935  21.015   0.313  19.612  0.1317 -0.1710 -0.0370
20636W        W24936  16.984   5.022  16.375  0.0734  0.0137 -0.4146
20637W        W24937  11.640   2.190  22.618 -0.0596 -0.1546  0.0666
20638W        W24938   0.204   7.225   8.234  0.3013 -0.3991  0.0362
20639W        W24939  22.059   2.052  24.435 -0.2024  0.1837  0.1566
20640W        W24940  28.798   0.274   8.105 -0.0913 -0.0966  0.1842
20641W        W24941  21.125   1.706   9.967  0.1018  0.0650  0.0973
20642W        W24942  15.142   1.934   3.878  0.0389  0.1068 -0.0701
20643W        W24943  20.499   1.250  17.255  0.0371 -0.3941 -0.0716
20644W        W24944  27.383   3.219   8.252  0.0999 -0.3948 -0.1282
20645W        W24945   8.088   1.692   7.904  0.2830 -0.2534 -0.0199
20646W        W24946  11.052   5.142  24.033 -0.2954 -0.1639 -0.0550
20647W        W24947  28.166   4.431  25.030  0.0179  0.2532 -0.1904
20648W        W24948   5.560   0.180  22.520  0.0444 -0.1196  0.1980
20649W        W24949  19.588   4.328  21.137 -0.0590  0.0551 -0.1267
20650W        W24950   7.981   7.155   6.229  0.1677 -0.1829  0.1563
20651W        W24951   7.161   1.040  21.677  0.0904 -0.0740 -0.1742
20652W        W24952  28.608   4.045  17.606 -0.3394  0.1658  0.2034
20653W        W24953   5.415   6.052  19.502  0.0263 -0.1520  0.0013
20654W        W24954   7.191   4.486   0.967  0.0372  0.1205  0.1545
20655W        W24955   4.188   3.889  20.908  0.0671  0.0301 -0.0194
20656W        W24956   1.126   5.018  26.417 -0.2371  0.0182 -0.1652
20657W        W24957  28.176   0.256  24.147 -0.2991 -0.1627  0.2025
20658W        W24958  16.849   7.318   6.825 -0.2058  0.0506  0.1890
20659W        W24959   9.551   3.867  17.501  0.1730  0.2898 -0.0588
20660W        W24960  25.793   1.094  21.777 -0.1103 -0.0494  0.1001
20661W        W24961  20.900   5.738   4.174 -0.0149 -0.3798 -0.2265
20662W        W24962   6.390   4.861  10.980  0.3082  0.1696 -0.0525
20663W        W24963  30.255   5.222  20.215  0.0947 -0.6777  0.0919
20664W        W24964   4.002   1.658   5.700  0.2660  0.3789  0.2471
20665W        W24965  20.254   1.522   0.795 -0.2539 -0.2455  0.0013
20666W        W24966  30.039   7.001   0.888 -0.2215 -0.1076  0.0649
20667W        W24967   2.149   3.461  11.015 -0.1010 -0.1593 -0.2953
20668W        W24968  13.727   0.850  16.062  0.3260  0.0447 -0.1550
20669W        W24969   1.941   3.619  19.023  0.0489  0.1324  0.1788
20670W        W24970  23.626   2.498   2.205 -0.0146 -0.0902 -0.3746
20671W        W24971  15.693   1.740   6.160 -0.0271 -0.1863 -0.0571
20672W        W24972  29.448   3.720  24.787  0.0292  0.1805  0.0537
20673W        W24973  27.892   1.934   4.536 -0.2276 -0.1323  0.4257
20674W        W24974   6.066   3.962  11.273 -0.1142  0.1053  0.1103
20675W        W24975  22.248   0.981   6.877 -0.0539 -0.0124 -0.0663
20676W        W24976   0.679   7.563   5.897  0.1158  0.1479  0.2549
20677W        W24977  11.621   2.930  23.380 -0.1355  0.0833  0.0193
20678W        W24978   6.098   3.493   2.728  0.1749 -0.0864  0.2631
20679W        W24979  13.448   1.045   1.696  0.1958  0.2234  0.1133
20680W        W24980  15.097   2.759  18.541  0.1953  0.0981  0.2331
20681W        W24981  21.524   1.378   9.476  0.1926 -0.4158 -0.2625
20682W        W24982   9.671   7.039   9.341 -0.0561  0.1947 -0.0818
20683W        W24983  13.841   6.983  10.002 -0.0796 -0.1233 -0.1356
20684W        W24984  24.201   2.774  18.531  0.2438  0.2692  0.2197
20685W        W24985   2.831   1.858  22.861 -0.2918 -0.0260  0.0863
20686W        W24986   3.835   0.850   2.352 -0.0830 -0.1935  0.0417
20687W        W24987   8.562   1.098  24.500 -0.4601 -0.1872 -0.0472
20688W        W24988  16.941   2.074  17.163 -0.1487  0.2125  0.0519
20689W        W24989  19.823   6.454   3.663  0.0515 -0.1495  0.3559
20690W        W24990  16.482   0.326   6.403  0.1049 -0.1029  0.3200
20691W        W24991  13.522   3.429  21.495 -0.0570 -0.1153  0.2097
20692W        W24992  19.708   7.217  21.669 -0.2448 -0.2820  0.0448
20693W        W24993  15.919   0.965  23.779  0.0229 -0.3016 -0.1760
20694W        W24994  12.623   7.473  10.083 -0.0856  0.1110 -0.4071
20695W        W24995   4.818   1.947   5.000  0.0091  0.3772 -0.0740
20696W        W24996  24.327   1.642  23.775  0.1285  0.1308  0.0599
20697W        W24997   0.043   3.419  16.987 -0.0612 -0.1917 -0.0291
20698W        W24998  20.623   3.110  20.680 -0.2068  0.1245  0.0541
20699W        W24999   8.834   0.519   3.887 -0.1074  0.0697 -0.2635
20700W        W25000  23.507   6.199   4.094  0.0974 -0.0970  0.3691
20701W        W25001  10.814   3.023  18.070 -0.1689  0.3261 -0.3115
20702W        W25002  26.995   2.023   4.560  0.2627  0.1125 -0.1459
20703W        W25003   8.005   2.274  18.175  0.1740 -0.0590 -0.1261
20704W        W25004  26.766   5.485   0.355 -0.1156 -0.0425  0.0346
20705W        W25005  18.482   5.571   3.211 -0.0497 -0.0868 -0.1191
20706W        W25006   5.158   7.253   7.413  0.1749 -0.1498  0.0670
20707W        W25007  27.016   0.558  17.791 -0.2392  0.1096  0.0571
20708W        W25008  18.961   5.223   9.792  0.0457  0.0565 -0.0110
20709W        W25009  20.248   1.791  17.581  0.3991 -0.3504 -0.0024
20710W        W25010  27.165   7.052  21.841 -0.1260 -0.0375 -0.1856
20711W        W25011  20.967   5.927   9.445  0.0202 -0.3708 -0.1877
20712W        W25012  11.880   0.140   1.030  0.0479  0.0972  0.3853
20713W        W25013  24.699   2.085  20.426  0.0377 -0.1926  0.1906
20714W        W25014   5.503   6.987  25.931 -0.2835 -0.0649  0.1556
20715W        W25015   2.363   3.447  22.549  0.2175 -0.1047 -0.0756
20716W        W25016   0.748   1.166  24.182  0.0372 -0.1679 -0.0216
20717W        W25017  20.187   6.865   9.686 -0.1367  0.0112 -0.0760
20718W        W25018   5.890   4.349   2.753 -0.0470 -0.2432 -0.0951
20719W        W25019   1.722   4.052  24.373 -0.0482  0.0400  0.0321
20720W        W25020  11.538   1.741   0.535 -0.0364 -0.0581  0.1099
20721W        W25021  15.765   2.799  21.580  0.1032 -0.0122 -0.1180
20722W        W25022  13.080   4.707   5.589  0.1898  0.0134 -0.1173
20723W        W25023  28.168   0.869  20.189 -0.1435  0.1321 -0.0604
20724W        W25024  23.180   5.018   7.477  0.0579  0.0055  0.3629
20725W        W25025   5.081   4.355  24.072 -0.0067 -0.0230 -0.0943
20726W        W25026   8.809   7.461   6.342  0.1105  0.2124  0.0456
20727W        W25027  12.306   3.973   5.592 -0.1558  0.0856  0.1182
20728W        W25028  10.392   5.188  15.958 -0.2746  0.2321  0.1197
20729W        W25029   4.460   1.797  23.970  0.3412  0.0505  0.0937
20730W        W25030  18.054   3.759   0.655 -0.0403 -0.2340  0.0635
20731W        W25031  20.033   4.841   2.882 -0.0402 -0.5595  0.1743
20732W        W25032  26.650   6.509  25.848  0.0801  0.0367  0.3069
20733W        W25033  25.447   6.732  21.993 -0.0331 -0.2181  0.3406
20734W        W25034   4.980   6.642   9.610  0.2086 -0.3098 -0.2599
20735W        W25035  25.077   6.342   7.979  0.1241 -0.2483 -0.1017
20736W        W25036  10.480   6.890   4.764  0.0143 -0.0633 -0.0056
20737W        W25037  25.073   4.983   6.834 -0.0616  0.1274 -0.3455
20738W        W25038   4.447   0.501   9.711 -0.2576  0.1705 -0.0144
20739W        W25039  12.808   5.024  18.711 -0.3558 -0.0238 -0.2139
20740W        W25040  14.099   1.958  10.698 -0.0111 -0.1092 -0.0143
20741W        W25041  31.077   0.101   4.840 -0.0326 -0.0476  0.1116
20742W        W25042   6.863   0.773  20.775  0.0657 -0.1402  0.1311
20743W        W25043   5.525   0.833  26.210 -0.1383  0.2856 -0.0017
20744W        W25044  20.451   2.619  10.208 -0.0017  0.3077  0.1450
20745W        W25045  19.390   1.964  25.841 -0.1368 -0.0916 -0.0982
20746W        W25046  28.085   0.065  22.171  0.2532  0.0173  0.0206
20747W        W25047  22.950   7.028  10.201 -0.2839 -0.1512  0.1245
20748W        W25048  28.823   7.740   7.273 -0.2782  0.0716  0.1395
20749W        W25049  10.286   6.266  10.140  0.0667  0.0718  0.0025
20750W        W25050  25.493   2.035   5.541 -0.1593  0.0192 -0.0390
20751W        W25051  27.871   2.742  20.955  0.2008 -0.0436 -0.1617
20752W        W25052  23.201   0.037  16.542 -0.2133  0.3062  0.2538
20753W        W25053  27.799   6.349  24.405 -0.1640 -0.2578 -0.2854
20754W        W25054  10.274   0.540   5.752 -0.3185  0.1708  0.0002
20755W        W25055  30.846   4.782   7.454  0.0420 -0.1197 -0.1874
20756W        W25056  11.989   5.777   3.452 -0.0616 -0.0020  0.2621
20757W        W25057   7.243   0.889  10.547 -0.0796  0.1452 -0.1832
20758W        W25058  13.734   1.952  17.447 -0.2822 -0.1193 -0.2481
20759W        W25059  20.964   3.281  10.322  0.0970  0.1294  0.0942
20760W        W25060   3.955   5.366   7.947 -0.0885  0.1831  0.0311
20761W        W25061   9.010   2.435   6.137  0.2358  0.0082 -0.1422
20762W        W25062   4.477   7.308  22.571  0.2745  0.0833  0.1968
20763W        W25063  20.918   5.447  16.788 -0.2359  0.0742 -0.1773
20764W        W25064  10.925   6.238   1.842 -0.1816  0.2512 -0.0704
20765W        W25065  28.262   3.227  23.366 -0.1117  0.1490 -0.2802
20766W        W25066   2.802   6.851   4.065 -0.2203 -0.3160  0.0212
20767W        W25067   1.819   3.494   0.751 -0.2274 -0.1269  0.0270
20768W        W25068   5.355   4.732   0.372  0.0195  0.1870 -0.0570
20769W        W25069  28.671   2.992  20.152 -0.0913 -0.4271  0.1262
20770W        W25070  21.933   5.536   4.048  0.1857 -0.2987  0.3849
20771W        W25071  22.207   3.943  10.289  0.0756 -0.0784  0.1133
20772W        W25072  29.955   0.341  26.339 -0.0004  0.2654  0.0357
20773W        W25073  23.661   4.508   0.295 -0.1285  0.1656  0.0122
20774W        W25074  30.455   0.798   6.306 -0.1853 -0.2205  0.1145
20775W        W25075  24.498   6.869   6.997  0.1227 -0.0802  0.1851
20776W        W25076   3.073   2.418  21.116  0.1681  0.2505 -0.3218
20777W        W25077  18.422   4.880   2.836  0.0813 -0.0419 -0.1036
20778W        W25078   2.500   2.781  15.904  0.1345  0.3797  0.2956
20779W        W25079   0.929   5.439  16.194 -0.0546  0.3211  0.2193
20780W        W25080  12.332   5.124   2.955  0.2930 -0.1139  0.0241
20781W        W25081   4.075   5.177   6.024 -0.4665 -0.0195 -0.0514
20782W        W25082  11.290   5.145   2.741  0.1232  0.0404 -0.0407
20783W        W25083  11.028   4.048  22.001  0.3190  0.0473 -0.3671
20784W        W25084  12.707   4.107   4.772  0.3055  0.1427 -0.0885
20785W        W25085  23.712   4.102  22.966  0.1173 -0.1967  0.1531
20786W        W25086   3.028   0.931  22.855 -0.2408  0.1160  0.1923
20787W        W25087  28.122   5.937  17.405  0.0567  0.0572  0.2093
20788W        W25088  16.683   2.299  14.900 -0.1685  0.2696 -0.1653
20789W        W25089  26.545   6.958  25.480  0.1410 -0.0465 -0.2930
20790W        W25090  17.982   4.290   4.758  0.3079 -0.1820 -0.0645
20791W        W25091   8.850   6.799  20.119  0.1561  0.0984 -0.1975
20792W        W25092  29.520   3.482  23.809  0.1277  0.0034 -0.2216
20793W        W25093   8.103   2.818  24.297  0.1464 -0.0931  0.1081
20794W        W25094  29.070   0.017   6.819 -0.1861 -0.1400 -0.1099
20795W        W25095   6.142   2.864  21.678  0.3373 -0.0724  0.0012
20796W        W25096   6.280   1.913  20.376 -0.2589 -0.1844  0.1424
20797W        W25097   8.162   4.926  15.905  0.2234 -0.0642 -0.2419
20798W        W25098   9.587   5.011   1.558  0.1306  0.1520  0.0359
20799W        W25099  20.230   3.857  17.858  0.0382  0.0998  0.1488
20800W        W25100  15.764   2.901  24.774  0.1928 -0.2102  0.1956
20801W        W25101  19.267   3.214   6.220 -0.2393  0.0866  0.0787
20802W        W25102  30.544   4.847   2.780 -0.4031  0.0301  0.2942
20803W        W25103  27.400   3.856   6.187 -0.0357 -0.2020 -0.0697
20804W        W25104  12.435   3.511   0.701  0.0759  0.1985 -0.0059
20805W        W25105  25.655   7.074  25.012 -0.1405  0.0974  0.0617
20806W        W25106  11.990   2.360  23.613  0.2557 -0.0716 -0.1426
20807W        W25107   7.601   1.258  24.346  0.0162  0.0658 -0.0270
20808W        W25108  20.282   5.514  20.071 -0.3296  0.0625  0.3001
20809W        W25109   2.173   6.657  23.522  0.1225 -0.3189  0.0420
20810W        W25110  25.233   4.249  11.011  0.0601  0.0552  0.2863
20811W        W25111  29.483   5.303  19.740 -0.1979 -0.0242  0.1816
20812W        W25112   3.972   5.249  21.482 -0.1257 -0.3064 -0.1361
20813W        W25113   6.363   5.305   9.057  0.2240  0.4066  0.4182
20814W        W25114  10.854   1.205  20.235 -0.2402  0.0856  0.0598
20815W        W25115  11.306   6.217  25.475 -0.0941  0.0773 -0.0203
20816W        W25116   9.902   2.912   9.045  0.0279  0.1187  0.1729
20817W        W25117  21.997   1.760   8.117 -0.1817 -0.0640  0.0280
20818W        W25118  23.105   7.745   0.062  0.0927 -0.0291 -0.3161
20819W        W25119  12.499   0.546  18.509  0.2272  0.1531 -0.1820
20820W        W25120  28.990   5.023   6.291 -0.3430 -0.0878  0.0137
20821W        W25121  19.630   1.297   3.708 -0.1942  0.1357 -0.0724
20822W        W25122  22.829   2.607  18.997 -0.0233 -0.1037 -0.0327
20823W        W25123  31.081   3.904   1.402  0.1907  0.0770  0.2002
20824W        W25124   7.266   3.365   8.355  0.1843  0.1848  0.0078
20825W        W25125  30.811   3.241   9.745 -0.0009  0.0883  0.2146
20826W        W25126  21.976   7.321   8.785  0.1091 -0.1005 -0.2855
20827W        W25127   6.712   1.682   4.403 -0.0469 -0.2825  0.1372
20828W        W25128   3.173   6.606   6.765 -0.0886  0.0540  0.2030
20829W        W25129  21.801   2.313   8.520 -0.1073 -0.2015  0.2512
20830W        W25130  25.480   3.156   6.334  0.1996  0.0095  0.1937
20831W        W25131  21.143   0.582   7.665 -0.1062 -0.1128 -0.1676
20832W        W25132   7.499   7.568  22.883  0.1397  0.2089 -0.1147
20833W        W25133  12.940   6.507  17.360  0.3976  0.1128 -0.0688
20834W        W25134  29.686   0.565   8.599  0.1391  0.1872  0.0615
20835W        W25135  15.982   0.038   9.119  0.0213 -0.0556 -0.3370
20836W        W25136   3.728   5.246   5.632 -0.0222  0.0930  0.1566
20837W        W25137  15.964   6.224  17.603 -0.1227 -0.0758 -0.0764
20838W        W25138  30.326   4.358  26.248  0.3321 -0.0578 -0.3704
20839W        W25139  24.953   4.440  23.402  0.3513  0.0382  0.1474
20840W        W25140  19.907   1.989  22.173  0.0153  0.0643  0.1078
20841W        W25141  11.400   6.249  17.570 -0.3176  0.0103 -0.0671
20842W        W25142   3.473   3.072   3.642  0.2059 -0.0783 -0.0383
20843W        W25143  16.836   1.401  10.097 -0.0095  0.2410  0.1182
20844W        W25144   4.854   1.045  16.163 -0.0455  0.0327  0.1806
20845W        W25145   8.709   3.014  20.781 -0.0242  0.1451  0.1836
20846W        W25146  24.232   2.081  20.719 -0.0962  0.1409 -0.1393
20847W        W25147  29.035   6.705  23.397  0.1327  0.2354  0.1671
20848W        W25148   8.577   5.563   1.782  0.1289  0.0026  0.1093
20849W        W25149  10.729   0.372  18.618  0.0797  0.1238  0.1718
20850W        W25150   8.303   4.916  25.091 -0.0041  0.3216 -0.0605
20851W        W25151  16.447   4.339   0.867  0.3636  0.1153  0.1151
20852W        W25152  20.985   5.601   3.678  0.0351  0.1582 -0.1934
20853W        W25153   1.276   3.551  20.600 -0.2198  0.0478  0.2067
20854W        W25154  18.234   2.912   5.284  0.0640 -0.0690  0.0849
20855W        W25155   2.579   7.448   5.214  0.1716 -0.0090 -0.1549
20856W        W25156   0.599   2.355  21.924  0.3990 -0.0268  0.2747
20857W        W25157   6.020   3.617  10.913 -0.2497 -0.1647 -0.1237
20858W        W25158   9.653   1.354   8.980 -0.2064  0.0877  0.3725
20859W        W25159  26.877   4.856   1.521 -0.3430  0.1094 -0.1133
20860W        W25160  16.844   4.106   3.871  0.0280 -0.2699 -0.0260
20861W        W25161  29.604   5.913  23.544  0.1761 -0.0889  0.1713
20862W        W25162  11.769   3.516   7.412  0.2151 -0.1055  0.1845
20863W        W25163   8.661   3.719   8.389  0.2329  0.1909 -0.3532
20864W        W25164  12.020   0.045  22.832 -0.0262 -0.3613 -0.0810
20865W        W25165  13.574   7.648  18.448 -0.0211 -0.3015  0.0578
20866W        W25166  19.632   6.397  16.583  0.1850  0.1013 -0.1606
20867W        W25167   1.123   5.833  20.579 -0.2553 -0.0475  0.0355
20868W        W25168  14.338   0.324   0.962 -0.0184 -0.0853  0.0691
20869W        W25169  24.726   4.772  22.473 -0.1741 -0.0068 -0.4565
20870W        W25170  18.832   3.774  25.011  0.1020  0.0008 -0.2045
20871W        W25171  20.066   7.789  18.533  0.0487 -0.0048 -0.0880
20872W        W25172   0.141   3.964   7.453  0.0408 -0.0914  0.1476
20873W        W25173  11.405   4.209  17.825 -0.1508 -0.1089  0.2126
20874W        W25174   6.558   6.524  21.434  0.0212 -0.2048  0.3515
20875W        W25175  18.731   6.292   4.440  0.0898 -0.2403 -0.1769
20876W        W25176  16.211   5.467  20.710 -0.2572 -0.3227 -0.2299
20877W        W25177  27.538   6.709  22.600 -0.2290  0.1923  0.1163
20878W        W25178   7.907   5.097  17.910  0.0340  0.1331  0.1693
20879W        W25179  29.366   2.504   4.242 -0.0795 -0.1046 -0.0598
20880W        W25180  22.569   3.691   6.897 -0.1460 -0.2561  0.1392
20881W        W25181  15.256   2.274  15.393  0.0622 -0.4833  0.0750
20882W        W25182   4.330   1.946   3.372 -0.0501  0.0445 -0.0892
20883W        W25183  25.500   2.128  23.033 -0.2454  0.0361  0.0597
20884W        W25184  29.367   4.717  22.184 -0.1987 -0.2749  0.4376
20885W        W25185  22.729   5.809   6.743  0.2665  0.0203 -0.2453
20886W        W25186  30.146   7.218   4.518 -0.2968  0.2144 -0.1304
20887W        W25187  19.936   1.313   2.866 -0.0027 -0.0098 -0.3432
20888W        W25188  16.604   5.203  15.342 -0.0056 -0.2028  0.1334
20889W        W25189  19.302   2.841  19.263  0.0367 -0.0480 -0.2295
20890W        W25190  18.955   5.908  15.026  0.0246  0.0232  0.2007
20891W        W25191   8.013   1.885   6.584 -0.0518  0.0655 -0.0112
20892W        W25192  25.264   5.063  10.282  0.0419  0.0418 -0.1641
20893W        W25193   2.432   4.524   8.972 -0.0391  0.2337  0.2729
20894W        W25194  18.375   4.106  20.626 -0.3836 -0.1262  0.0690
20895W        W25195  27.396   3.554  23.921 -0.1027 -0.0539 -0.1929
20896W        W25196  22.891   7.056   3.292  0.1758 -0.0171 -0.2076
20897W        W25197  13.571   1.730  22.059  0.0192  0.1126 -0.1446
20898W        W25198  24.829   3.324   1.227  0.0496 -0.1454  0.0475
20899W        W25199   5.470   2.362  22.569  0.0744 -0.2973  0.0061
20900W        W25200   1.425   0.762   7.779 -0.2172  0.0077  0.0954
20901W        W25201  25.198   0.311   5.472  0.0399 -0.2440  0.4325
20902W        W25202  21.790   3.801   1.058  0.0250 -0.0341  0.0020
20903W        W25203  10.239   3.070   8.258  0.3406  0.2113 -0.0542
20904W        W25204   6.795   7.053   4.999  0.2150 -0.0476 -0.2093
20905W        W25205  30.583   5.465   1.558 -0.2317 -0.3428  0.4936
20906W        W25206  27.468   4.032   2.318 -0.0187  0.1763 -0.1901
20907W        W25207  16.787   2.850  24.725 -0.2756  0.1692  0.0613
20908W        W25208  14.864   6.397   8.893 -0.1293 -0.0513 -0.0248
20909W        W25209  30.807   1.030  22.721  0.0102  0.2812 -0.1943
20910W        W25210  28.644   2.658   0.205  0.2642  0.0618 -0.0275
20911W        W25211   3.889   6.057   1.832  0.1307 -0.2212  0.0724
20912W        W25212   9.184   6.589  15.698  0.0165  0.0502 -0.0711
20913W        W25213  18.365   7.626   5.788  0.0995 -0.3266  0.0219
20914W        W25214  17.494   3.227  23.121 -0.3313 -0.2806  0.1087
20915W        W25215  25.450   4.766  21.519  0.0505  0.0801 -0.1267
20916W        W25216  14.878   3.025  10.904 -0.1882  0.0524  0.1896
20917W        W25217  10.835   4.620  16.567 -0.0438 -0.1709 -0.1543
20918W        W25218  19.270   7.301  25.404  0.1016 -0.0004  0.0898
20919W        W25219  11.722   5.847   8.693  0.3597  0.1459 -0.1556
20920W        W25220  28.172   7.120  10.362 -0.0512 -0.2122  0.1261
20921W        W25221  11.214   3.644   7.424 -0.2547 -0.0476  0.0713
20922W        W25222   3.542   2.435   6.896  0.1262  0.0633 -0.1133
20923W        W25223  10.340   7.534   6.897  0.1773 -0.1634  0.0828
20924W        W25224  12.611   0.510  15.574 -0.0606 -0.2179 -0.3258
20925W        W25225   0.276   6.045   8.772 -0.0483 -0.0124  0.0733
20926W        W25226  17.667   2.996  25.068  0.0454 -0.0141 -0.0772
20927W        W25227  17.248   5.510  10.076 -0.0096 -0.2971 -0.2986
20928W        W25228   9.604   3.525   4.913 -0.1629  0.1282 -0.3078
20929W        W25229  21.449   6.323   3.431 -0.0071 -0.1168  0.0660
20930W        W25230  19.453   5.440  15.633  0.1767 -0.0791 -0.0257
20931W        W25231  30.414   0.163   2.799  0.1583  0.0080  0.0770
20932W        W25232   3.222   6.536   2.913 -0.0286 -0.2888  0.1362
20933W        W25233  10.020   4.375   0.549 -0.1344  0.0407 -0.5549
20934W        W25234   7.435   3.828   3.217  0.3196  0.2178  0.0722
20935W        W25235   0.312   4.464   3.631 -0.1713 -0.1572 -0.1620
20936W        W25236   6.406   3.681  20.110 -0.0943 -0.1188 -0.0445
20937W        W25237   3.317   3.768   9.588  0.3038 -0.2035 -0.2219
20938W        W25238  26.530   3.245   2.414  0.1546  0.2843 -0.0241
20939W        W25239  27.542   3.275  10.083  0.0296 -0.2857  0.1569
20940W        W25240  25.284   2.666  10.016  0.2001 -0.2241 -0.1263
20941W        W25241  26.726   4.622   5.046 -0.2675  0.0861  0.2364
20942W        W25242   8.634   3.003  22.692 -0.0954  0.3603  0.0821
20943W        W25243  24.600   2.143  19.921  0.1105 -0.0717  0.2391
20944W        W25244  28.471   0.029   1.264 -0.1755  0.1836 -0.0822
20945W        W25245   1.644   0.809  25.679  0.0261  0.0914 -0.0010
20946W        W25246   3.056   4.159  18.824  0.1974 -0.0958  0.3002
20947W        W25247  29.014   5.332  25.754 -0.0971  0.1322 -0.1355
20948W        W25248  28.507   7.195  16.596  0.1514 -0.0320 -0.0012
20949W        W25249  18.611   3.258  24.744  0.1482 -0.0026  0.1472
20950W        W25250  21.635   4.107  21.548  0.4014  0.1840  0.0897
20951W        W25251  20.859   2.238  18.283  0.3305  0.2404  0.1445
20952W        W25252  14.444   6.003  16.137 -0.0640 -0.0217  0.2451
20953W        W25253   4.229   3.383   0.631  0.0711 -0.2354  0.0741
20954W        W25254  29.755   2.295  19.361 -0.1201  0.2149 -0.2163
20955W        W25255  11.744   2.350   3.021  0.0392 -0.0120  0.0543
20956W        W25256   4.192   1.677   4.225  0.0897  0.0563  0.2542
20957W        W25257  24.028   6.626  16.877 -0.0568  0.3017  0.2786
20958W        W25258  24.820   6.280  25.947  0.0247  0.1096 -0.0472
20959W        W25259  10.161   2.049   0.397  0.2650 -0.1263 -0.0769
20960W        W25260  23.698   3.823   4.163  0.3682  0.1002 -0.0221
20961W        W25261  18.983   3.905  16.406  0.1750  0.1148  0.0086
20962W        W25262   4.244   3.403  20.787 -0.0632 -0.1660 -0.1174
20963W        W25263  18.405   7.287   2.609 -0.1092  0.2141 -0.0669
20964W        W25264   6.973   2.169   8.832  0.0350 -0.1166 -0.1258
20965W        W25265  30.901   3.404   4.910 -0.1852 -0.0233  0.0785
20966W        W25266  13.987   4.215  17.721 -0.0069 -0.0809  0.2288
20967W        W25267  13.429   0.975  23.711  0.1278 -0.2184  0.0548
20968W        W25268  28.907   2.453  18.712 -0.0940 -0.1115 -0.1317
20969W        W25269   2.572   3.941  23.279 -0.0633  0.1150  0.0497
20970W        W25270  26.167   3.028  23.050 -0.0844  0.2107  0.0045
20971W        W25271  17.860   5.716  11.271  0.1358  0.3314 -0.0224
20972W        W25272   3.084   6.059   9.453 -0.2042 -0.3265  0.4331
20973W        W25273  24.757   3.141  15.859  0.0123  0.2274 -0.0934
20974W        W25274  13.301   3.147   0.216  0.1143 -0.1611 -0.0249
20975W        W25275   2.543   3.054  14.961  0.1227  0.2802  0.0922
20976W        W25276   2.083   3.049  24.756  0.2152  0.0052 -0.2345
20977W        W25277  29.070   7.513  21.458 -0.1922 -0.2646 -0.0830
20978W        W25278   4.079   4.783  18.698 -0.0166 -0.0451  0.1153
20979W        W25279  24.793   2.360  10.438  0.4469 -0.1875 -0.1310
20980W        W25280  22.907   2.179  10.956 -0.0913 -0.1457 -0.1391
20981W        W25281  22.779   7.047  16.852  0.2913 -0.1606 -0.0751
20982W        W25282   4.244   2.633   4.135  0.1180  0.0270  0.0632
20983W        W25283  11.841   7.758   8.231 -0.0762 -0.1418  0.0032
20984W        W25284  23.382   5.414   1.149 -0.0032  0.0228  0.3011
20985W        W25285  28.458   7.434  15.703 -0.3639  0.2741  0.1513
20986W        W25286  22.211   4.837   0.197  0.1501  0.3508 -0.0300
20987W        W25287  29.697   4.246   2.120  0.0952 -0.0474  0.0853
20988W        W25288  18.762   6.973  17.596 -0.0098 -0.0094 -0.4465
20989W        W25289  28.024   0.226  18.930  0.0204  0.1688 -0.0208
20990W        W25290  28.010   6.102   9.729 -0.0526 -0.1196  0.0272
20991W        W25291  16.887   7.647  22.149  0.1032  0.1305  0.1196
20992W        W25292  25.247   7.301   8.123 -0.1061 -0.0223  0.1259
20993W        W25293   8.555   0.634   4.873  0.0281  0.0337 -0.1275
20994W        W25294  22.487   0.589  25.158 -0.0099  0.0398 -0.0315
20995W        W25295  15.601   5.976  17.845 -0.1982  0.0727 -0.0856
20996W        W25296  11.158   4.063  10.131  0.2120 -0.0962  0.3063
20997W        W25297  10.914   3.852  10.525 -0.4719  0.2982 -0.0815
20998W        W25298  29.383   2.059  26.359  0.2129  0.1369  0.0342
20999W        W25299  15.146   6.992   4.312 -0.2492  0.1542  0.1292
21000W        W25300   6.185   7.426   2.214  0.2950 -0.1274  0.0208
21001W        W25301  12.429   1.173   4.951 -0.0689  0.0617  0.0492
21002W        W25302   5.384   0.038   4.494  0.2327  0.0271 -0.0253
21003W        W25303  22.960   4.853   0.505  0.0673 -0.1020  0.0434
21004W        W25304  26.752   1.486  21.274  0.0824  0.0750 -0.0871
21005W        W25305  17.494   7.088   6.451 -0.2006 -0.0158 -0.0386
21006W        W25306  17.829   5.620   6.551  0.0388  0.1971  0.1910
21007W        W25307  20.561   2.693   7.517 -0.0564  0.1352 -0.1311
21008W        W25308   7.901   3.072   1.557 -0.1045  0.0414  0.0069
21009W        W25309  28.510   5.697  10.753 -0.0497 -0.2474 -0.1697
21010W        W25310  22.480   4.484  22.740  0.0242  0.3258 -0.1106
21011W        W25311   7.107   4.893  17.409 -0.0070  0.0050  0.2830
21012W        W25312  14.136   3.669   7.585 -0.2979 -0.1485  0.1194
21013W        W25313  16.972   7.480   0.296 -0.2912 -0.2947 -0.0299
21014W        W25314  17.256   5.640   2.912  0.0575 -0.3352 -0.0604
21015W        W25315  19.340   7.217  23.745 -0.0866  0.0089  0.0966
21016W        W25316  19.458   1.003  26.082 -0.0849 -0.2384 -0.3135
21017W        W25317   6.799   0.902  19.458 -0.0347 -0.0208 -0.0756
21018W        W25318  27.860   3.192  21.187 -0.1440 -0.0866  0.2010
21019W        W25319   3.514   3.871   8.417  0.1520  0.3193 -0.0731
21020W        W25320  10.243   6.385  11.141  0.0985 -0.0753 -0.3907
21021W        W25321  25.020   3.741   1.023 -0.0282 -0.1149 -0.2397
21022W        W25322  21.339   3.256   7.651  0.0804 -0.1142  0.0471
21023W        W25323  19.649   2.674  22.647  0.0998  0.2225  0.0296
21024W        W25324  28.132   1.465  23.387 -0.1228 -0.0822  0.1613
21025W        W25325   4.006   0.057  20.556  0.3172 -0.1218 -0.2433
21026W        W25326   4.282   1.607   2.642  0.1833  0.0002 -0.1831
21027W        W25327  11.042   4.867  17.526  0.0365  0.1090 -0.1800
21028W        W25328  28.583   5.772  17.074 -0.1377 -0.1372 -0.1089
21029W        W25329  24.494   4.636   7.092 -0.3708  0.1569 -0.2279
21030W        W25330  28.056   1.571  25.958  0.2279 -0.1693 -0.0133
21031W        W25331  11.794   6.996   9.381  0.2041 -0.4139 -0.1578
21032W        W25332  16.357   4.285  24.688  0.2474 -0.0407  0.3936
21033W        W25333  13.581   2.622   2.858  0.3121 -0.1138  0.0667
21034W        W25334  10.635   4.534  24.994  0.0938  0.3055 -0.0935
21035W        W25335  11.594   0.720   1.157  0.2759 -0.1292 -0.1516
21036W        W25336  18.219   0.876   2.332 -0.1608 -0.2055  0.3064
21037W        W25337  13.990   5.208   5.641 -0.2094  0.2592  0.2888
21038W        W25338  25.547   1.471  21.614 -0.2954  0.1091 -0.4532
21039W        W25339  16.497   4.414   0.395 -0.1625  0.1130 -0.0443
21040W        W25340  18.972   0.277   5.092  0.0520  0.2014  0.1322
21041W        W25341  10.136   7.542  26.403 -0.1490  0.1010  0.2443
21042W        W25342  12.063   0.192  23.783  0.1038  0.2052 -0.0140
21043W        W25343  16.725   3.523   4.503  0.0963 -0.1204 -0.2564
21044W        W25344  23.607   2.910  24.487 -0.5932  0.0608  0.2145
21045W        W25345   4.551   0.326   4.434  0.1664  0.1762  0.2461
21046W        W25346   3.583   3.096   5.207 -0.2207  0.2379  0.2436
21047W        W25347  16.404   5.739   0.565  0.2000 -0.0170  0.0387
21048W        W25348  30.550   4.085  16.915 -0.1219 -0.2444  0.1402
21049W        W25349  19.786   7.629   3.550  0.0887  0.1389 -0.0653
21050W        W25350  26.983   3.670  16.107 -0.4192  0.0961 -0.3145
21051W        W25351  20.566   4.370  20.889 -0.3150  0.1050 -0.0163
21052W        W25352  15.027   6.652   3.338  0.3988 -0.0899 -0.0329
21053W        W25353   1.140   0.029  25.382 -0.1314  0.1364 -0.1475
21054W        W25354  17.989   0.135   3.652  0.3320 -0.1664  0.0976
21055W        W25355  19.703   3.692   3.423 -0.0043  0.2438 -0.2224
21056W        W25356   1.668   0.275  21.813 -0.1584  0.0390 -0.0261
21057W        W25357  19.492   0.020  21.429  0.2713 -0.0522  0.0676
21058W        W25358   7.119   3.235  19.158 -0.0226 -0.2114 -0.2019
21059W        W25359  19.679   3.223  20.983 -0.0959  0.0160 -0.1536
21060W        W25360  10.662   7.366  16.306  0.1341 -0.1021 -0.0060
21061W        W25361  13.052   0.002  17.664 -0.1130  0.3130  0.0696
21062W        W25362  15.728   7.079  22.471  0.3309  0.1971 -0.0567
21063W        W25363  20.102   3.132   2.508  0.1037  0.0666  0.2524
21064W        W25364  11.962   4.894   1.156  0.4734  0.2975  0.0378
21065W        W25365  22.089   1.822   6.893 -0.1484  0.0322 -0.2759
21066W        W25366   7.169   5.549  25.797 -0.1220  0.0948  0.1588
21067W        W25367  15.055   5.148  18.866  0.3505  0.1969 -0.0053
21068W        W25368   2.524   6.537  14.903  0.0287 -0.0132  0.2887
21069W        W25369  12.276   3.580   7.503 -0.1052  0.1294 -0.2111
21070W        W25370  27.924   1.903   5.018 -0.2512 -0.0456 -0.0787
21071W        W25371   7.740   1.724  23.920  0.4803  0.1936  0.1748
21072W        W25372  22.929   5.350   8.024 -0.0969  0.0211  0.0857
21073W        W25373  30.154   4.971  21.451 -0.1837 -0.0156  0.0162
21074W        W25374  14.924   2.235  19.839 -0.3262  0.0462  0.1819
21075W        W25375   4.971   4.000   7.142 -0.0809  0.1874  0.0393
21076W        W25376  25.661   4.855   2.991  0.1769  0.1841  0.0097
21077W        W25377   7.514   2.699  23.559  0.0161 -0.1727 -0.0194
21078W        W25378   1.437   2.903  16.875  0.1977 -0.1288  0.1287
21079W        W25379   5.223   3.215   0.255  0.1556  0.2190 -0.2464
21080W        W25380   7.374   6.292   9.472 -0.0554 -0.0544 -0.0760
21081W        W25381   6.604   3.398  21.290 -0.2664  0.1889  0.0344
21082W        W25382  25.632   5.901  21.780  0.0851 -0.2011 -0.1682
21083W        W25383   5.416   7.034   2.833  0.1247  0.0123  0.0669
21084W        W25384   7.460   7.544  15.109  0.1266  0.1364  0.1043
21085W        W25385  30.378   4.995  20.771 -0.0376 -0.2463 -0.1287
21086W        W25386  31.108   4.762   6.165  0.1383 -0.2031 -0.0272
21087W        W25387  27.006   4.994   0.264 -0.2621  0.1498 -0.3434
21088W        W25388   6.150   3.479  19.227  0.0177  0.0937  0.0822
21089W        W25389  29.829   7.463  15.463 -0.2626  0.0891  0.0542
21090W        W25390  25.646   6.579   6.437  0.2332  0.3632 -0.1065
21091W        W25391  14.171   3.530  23.221 -0.0033  0.3857 -0.0731
21092W        W25392  27.398   1.101  25.956  0.1636  0.5153  0.2429
21093W        W25393  17.461   2.693  20.560 -0.1880 -0.0574 -0.0654
21094W        W25394  24.018   4.482   6.272 -0.0370 -0.1266 -0.2498
21095W        W25395  29.403   0.833   5.472 -0.0569  0.0999  0.1330
21096W        W25396  29.680   3.214   2.414 -0.0641  0.0942  0.0726
21097W        W25397   4.811   0.580   6.012  0.0771 -0.1121  0.0707
21098W        W25398  12.511   4.914  24.562  0.0034 -0.1443 -0.1825
21099W        W25399  13.172   2.874   8.541  0.3396  0.1278 -0.3332
21100W        W25400   0.124   1.192   8.809  0.1132 -0.0254 -0.4276
21101W        W25401   5.782   2.131  10.238  0.1961  0.3581  0.1579
21102W        W25402   4.859   3.188   0.617  0.1258  0.1546 -0.1371
21103W        W25403  30.608   7.230   9.256  0.3903 -0.4428 -0.1747
21104W        W25404   9.041   4.923   8.069 -0.0929  0.0018  0.0946
21105W        W25405  23.373   6.663   3.867 -0.2662  0.2808 -0.2534
21106W        W25406   0.803   4.229  17.611  0.1738  0.0311  0.2441
21107W        W25407   0.642   1.211  22.077  0.2260  0.1083 -0.0853
21108W        W25408   3.437   1.542  16.984 -0.2127  0.2454 -0.2464
21109W        W25409  28.800   5.635   5.721  0.1177 -0.0519 -0.1708
21110W        W25410  24.577   5.596   1.974  0.1007  0.1768  0.2562
21111W        W25411  15.324   2.032   2.814 -0.0412 -0.0519 -0.1911
21112W        W25412  20.198   4.261   9.872  0.1937 -0.0402  0.1903
21113W        W25413  26.965   1.333  25.232 -0.0916 -0.1775  0.2664
21114W        W25414  29.259   3.999  21.957  0.0632  0.0136  0.1704
21115W        W25415   0.616   5.643   2.643 -0.0895 -0.2230  0.0835
21116W        W25416  26.719   5.319  15.801  0.1432 -0.0031 -0.0618
21117W        W25417  12.061   1.075  22.146  0.1724 -0.1120 -0.1518
21118W        W25418  21.165   3.937   8.645  0.1864 -0.0370  0.2591
21119W        W25419  25.477   1.127  25.289 -0.2562 -0.0462 -0.0634
21120W        W25420  28.432   3.332   3.655  0.2204  0.0051  0.3942
21121W        W25421   3.100   1.402  16.595  0.0304  0.0882  0.0802
21122W        W25422   7.318   2.816   6.779  0.1167  0.1004 -0.0449
21123W        W25423  17.653   0.452  17.730 -0.0027 -0.2112 -0.0282
21124W        W25424   5.978   4.294   9.920 -0.0454 -0.0010 -0.0007
21125W        W25425   5.444   5.176  22.924  0.2695 -0.0196  0.0387
21126W        W25426  22.248   7.541  23.558  0.1352  0.3876 -0.5280
21127W        W25427  24.850   2.837  21.060  0.1711  0.0575 -0.0601
21128W        W25428  19.372   6.711   6.474  0.4662  0.2829  0.0312
21129W        W25429  30.379   1.312   4.690  0.0630 -0.0970  0.0804
21130W        W25430  29.122   1.518  17.140 -0.0496 -0.0036  0.4253
21131W        W25431  12.099   3.133   9.847 -0.0762  0.1060 -0.2717
21132W        W25432  25.741   6.234   8.661  0.2601 -0.0423  0.0054
21133W        W25433   5.108   5.981  22.711  0.2214 -0.1669 -0.0092
21134W        W25434  25.509   3.989  19.285 -0.0007 -0.0319 -0.1523
21135W        W25435  27.197   2.037   5.609 -0.1703  0.0537  0.0878
21136W        W25436   5.266   5.255  19.605  0.1793 -0.1619  0.1773
21137W        W25437  11.304   4.309  25.128 -0.2690 -0.3163  0.1039
21138W        W25438   4.097   4.323   4.964 -0.0271  0.4189 -0.2222
21139W        W25439  27.566   5.809  17.180  0.0271 -0.2273  0.0653
21140W        W25440  27.800   4.169   1.898 -0.2348 -0.0627 -0.0103
21141W        W25441  17.644   2.966   2.055  0.0522 -0.0679 -0.0087
21142W        W25442  18.655   0.867   8.599  0.2247  0.2765  0.3594
21143W        W25443  18.376   6.349  25.999 -0.3347  0.0516 -0.1185
21144W        W25444  20.911   7.019   5.755  0.1083 -0.0621 -0.1609
21145W        W25445  14.913   7.461   8.412 -0.2660  0.1930 -0.2835
21146W        W25446  20.151   2.898   8.382  0.0601  0.1018  0.0224
21147W        W25447  28.279   5.391   5.679 -0.1159 -0.0688  0.0086
21148W        W25448  28.222   4.895   1.097 -0.0372  0.0304 -0.2353
21149W        W25449   5.305   0.048  25.643  0.0589 -0.3497 -0.0361
21150W        W25450  30.486   1.058  10.148 -0.0915  0.3282 -0.2431
21151W        W25451  16.643   6.482  10.299  0.0958  0.2591  0.3413
21152W        W25452   7.904   5.209  20.786 -0.1364  0.1463 -0.1523
21153W        W25453  17.473   5.377   6.164 -0.3194  0.1435 -0.1118
21154W        W25454  21.517   2.350  24.788  0.1244  0.0099 -0.1755
21155W        W25455  24.109   2.822   2.204 -0.2288 -0.1466 -0.0313
21156W        W25456   9.089   6.238  20.670 -0.0170 -0.2186 -0.0813
21157W        W25457  24.934   4.883  20.036 -0.0566  0.0684  0.0891
21158W        W25458   5.922   7.141   5.266 -0.0239  0.1467  0.1145
21159W        W25459  19.659   4.536  20.028  0.0657 -0.0110  0.1105
21160W        W25460   8.220   1.900  15.283  0.1030  0.4734 -0.0315
21161W        W25461  18.979   0.279  17.885  0.2643 -0.0814 -0.1114
21162W        W25462  16.196   5.074   9.962  0.0675 -0.0001 -0.0654
21163W        W25463  14.279   5.029  16.311  0.0857 -0.0546  0.0292
21164W        W25464   9.310   0.305  22.604 -0.2181  0.1921 -0.1030
21165W        W25465   9.654   6.013  21.382  0.2951 -0.3015  0.0084
21166W        W25466  27.799   2.997  24.060 -0.2007  0.0269  0.0131
21167W        W25467  12.494   7.072   1.836  0.2515  0.0516  0.0049
21168W        W25468  29.441   1.596   6.685 -0.4444 -0.3797  0.1988
21169W        W25469  11.347   1.797   5.827 -0.1852  0.0398  0.0324
21170W        W25470  20.787   6.541   5.611 -0.1272 -0.2527  0.1522
21171W        W25471  22.491   6.301   9.589 -0.0949 -0.0910 -0.2694
21172W        W25472  14.542   3.057  14.740 -0.0081  0.6928 -0.1208
21173W        W25473  31.098   1.932  21.887 -0.2927  0.0777  0.0858
21174W        W25474   1.964   0.996   5.756  0.0000  0.0379 -0.3305
21175W        W25475   4.712   2.398  25.762  0.2238  0.0656 -0.0462
21176W        W25476  28.885   7.649  19.966 -0.1354  0.1498 -0.3376
21177W        W25477  21.317   7.685  18.078  0.1892 -0.1048 -0.0311
21178W        W25478  21.338   6.893  19.238 -0.2385 -0.1878 -0.2640
21179W        W25479  23.412   1.172  16.363 -0.3139 -0.0963  0.1797
21180W        W25480  20.337   1.686   6.420 -0.0223  0.0040  0.1074
21181W        W25481  25.554   0.789  19.964 -0.0703  0.0748  0.1247
21182W        W25482   1.909   0.110  10.140 -0.0784  0.2569 -0.2787
21183W        W25483  27.747   0.556  10.567 -0.2248  0.0371  0.2835
21184W        W25484  17.214   6.709   5.905 -0.0435 -0.2301 -0.0670
21185W        W25485  16.833   4.955   6.700  0.2710 -0.0630  0.0120
21186W        W25486  17.515   7.485   5.694 -0.0471 -0.0907  0.0247
21187W        W25487  28.358   0.899   1.392 -0.3573 -0.1399  0.0308
21188W        W25488  15.525   7.228   3.962 -0.1223  0.2958  0.1911
21189W        W25489  29.641   0.345  23.030 -0.1696  0.0110  0.1274
21190W        W25490   2.031   5.935   0.522 -0.0037 -0.0150 -0.2152
21191W        W25491  29.945   5.590   7.776  0.0490  0.0641  0.0279
21192W        W25492  10.733   1.379  19.684  0.1856  0.2675 -0.0186
21193W        W25493  17.754   7.584   7.750 -0.1914  0.1280  0.0918
21194W        W25494  26.022   0.156  24.784 -0.1250 -0.1503 -0.1596
21195W        W25495  25.382   6.032   8.298 -0.2416 -0.0283 -0.0140
21196W        W25496  17.064   1.096   0.248 -0.1905 -0.1477 -0.2941
21197W        W25497  13.922   1.273  17.865 -0.0685 -0.0411 -0.0036
21198W        W25498   8.597   4.217  21.265 -0.0730 -0.0192 -0.0515
21199W        W25499   6.164   1.338  10.613 -0.3544  0.0185  0.0396
21200W        W25500  11.210   3.475  19.247  0.1130 -0.2193  0.1898
21201W        W25501   4.884   0.512   9.514  0.2440 -0.3205 -0.0930
21202W        W25502  25.145   6.914  21.241 -0.5024  0.0126  0.2068
21203W        W25503  26.579   1.835   8.594  0.1004 -0.0949  0.1109
21204W        W25504  12.375   6.016  23.112 -0.1340 -0.1060  0.3589
21205W        W25505  17.764   7.566  23.296  0.4312  0.2450 -0.0171
21206W        W25506  19.366   1.674  23.025 -0.1573  0.0876 -0.1659
21207W        W25507   5.419   5.580  25.394 -0.2551  0.0218  0.0793
21208W        W25508  30.218   5.110   5.701  0.0529 -0.1080  0.0332
21209W        W25509  26.273   5.336  18.206  0.1924  0.0236 -0.1057
21210W        W25510  26.481   5.581  16.253  0.2813 -0.0343  0.2033
21211W        W25511  30.877   4.601   5.732  0.0285  0.2804  0.0730
21212W        W25512  30.399   4.921  18.390 -0.0926  0.0983  0.1135
21213W        W25513  30.742   7.378  17.106  0.1257 -0.0863  0.0859
21214W        W25514  17.694   0.638  20.305 -0.0799 -0.2028 -0.1682
21215W        W25515  29.628   2.755  17.120 -0.0906  0.1092 -0.0443
21216W        W25516  25.740   6.301  20.842  0.3808  0.1691  0.1570
21217W        W25517  28.230   4.093   9.508  0.0868 -0.2132  0.1469
21218W        W25518   6.514   3.628   7.129 -0.3350  0.0912 -0.2275
21219W        W25519   2.249   3.422   6.449 -0.1510 -0.0088  0.1244
21220W        W25520   8.276   2.313   8.454 -0.1091 -0.2992  0.0307
21221W        W25521  30.714   4.807   6.500 -0.2006  0.0800 -0.1368
21222W        W25522  23.489   5.721  16.204  0.2738 -0.0760  0.0607
21223W        W25523  21.630   3.008  22.445  0.1937 -0.1187  0.2644
21224W        W25524  19.257   2.952   0.568 -0.2022  0.1190 -0.0874
21225W        W25525  11.510   2.172   9.147  0.1599 -0.4020  0.1685
21226W        W25526  22.352   7.009   6.491  0.3848 -0.3283  0.0899
21227W        W25527  29.487   2.292  18.744  0.0327  0.1091  0.4519
21228W        W25528   3.755   4.821  19.043  0.0424 -0.3401  0.0242
21229W        W25529   0.071   6.262   1.331 -0.1491 -0.0322  0.0493
21230W        W25530  13.569   6.972   7.994  0.3762 -0.2330  0.1735
21231W        W25531  12.783   6.211  20.343 -0.2200 -0.1428 -0.2329
21232W        W25532  28.971   4.750   0.119  0.2900 -0.0697  0.2488
21233W        W25533  27.034   1.004   9.097  0.2064 -0.1236  0.0858
21234W        W25534   0.393   1.262  22.831  0.2112  0.0840  0.1935
21235W        W25535  22.103   7.257   1.735  0.0931  0.1777 -0.2438
21236W        W25536   0.513   4.636   4.817  0.0046 -0.0077  0.2426
21237W        W25537  14.749   3.000   1.918  0.0864  0.0597 -0.0472
21238W        W25538  19.178   0.937  20.932 -0.0283  0.0382 -0.1011
21239W        W25539  30.538   2.063   9.553 -0.3917 -0.3625  0.3787
21240W        W25540   0.073   5.651  16.121 -0.1734 -0.0850 -0.0669
21241W        W25541  17.235   5.552  17.856 -0.1354  0.0403  0.0440
21242W        W25542  12.650   1.543   2.539 -0.1443  0.0559 -0.1640
21243W        W25543   4.674   2.343  23.153 -0.2392 -0.2576 -0.0465
21244W        W25544  25.374   1.473   3.486 -0.0274 -0.0733  0.1731
21245W        W25545  18.356   6.342  15.120  0.0349  0.2541  0.1537
21246W        W25546  16.012   2.480  16.633 -0.2813  0.2897 -0.1149
21247W        W25547   3.465   5.725   4.349  0.3439 -0.1165 -0.0318
21248W        W25548   6.153   0.419   0.256 -0.1021 -0.1057  0.2081
21249W        W25549  14.823   1.125  20.992  0.0499  0.0390 -0.2183
21250W        W25550   9.483   7.671   1.075 -0.0648  0.1433 -0.1346
21251W        W25551  16.146   5.191   5.671 -0.1721  0.0850  0.2203
21252W        W25552   9.191   6.051   4.245  0.0042 -0.0239 -0.0643
21253W        W25553  29.945   3.401   6.026 -0.1477  0.0784  0.0225
21254W        W25554  30.575   2.270   6.469  0.0179 -0.0744 -0.0788
21255W        W25555  26.148   1.826  25.005  0.1341  0.3737 -0.0856
21256W        W25556  25.051   3.461  21.758  0.1268  0.0579 -0.0292
21257W        W25557  26.950   2.844  10.911 -0.2420 -0.3851 -0.2461
21258W        W25558  25.149   5.866  17.207  0.0213  0.0935 -0.1369
21259W        W25559  15.507   2.322   1.742 -0.1994  0.0887 -0.0271
21260W        W25560   6.357   0.977   5.596 -0.2391 -0.2261 -0.1329
21261W        W25561  17.114   4.247   3.457  0.2426  0.0113  0.1883
21262W        W25562   4.501   0.830  21.138 -0.0551  0.2141  0.2071
21263W        W25563  24.707   7.334   1.790  0.4666  0.1468  0.0458
21264W        W25564  28.967   6.259  21.071  0.0400  0.3054  0.0448
21265W        W25565  11.101   7.119   0.942  0.3124  0.3959  0.0143
21266W        W25566  30.676   1.374  16.781 -0.0300 -0.0088  0.2221
21267W        W25567   1.313   4.498   1.618 -0.0518 -0.1818  0.2259
21268W        W25568  18.445   4.169  23.615 -0.2945 -0.1653 -0.1165
21269W        W25569  18.042   7.531  21.454 -0.2340  0.2315  0.2028
21270W        W25570  21.634   6.147  10.145 -0.0128 -0.0786 -0.1249
21271W        W25571   0.983   3.349  24.368  0.3633 -0.1694 -0.0963
21272W        W25572  13.390   5.961   0.456  0.0797  0.0055  0.1786
21273W        W25573  16.819   7.092  24.187 -0.0076  0.2231 -0.1367
21274W        W25574   8.507   0.764   8.798 -0.3441 -0.0446 -0.1275
21275W        W25575  10.951   0.809   5.952 -0.3490  0.1273 -0.1024
21276W        W25576  28.804   0.007  25.962  0.1637  0.0252  0.1242
21277W        W25577  14.027   1.000  21.436  0.0800 -0.0426  0.0728
21278W        W25578  28.098   0.119   3.456  0.2106 -0.2039 -0.1905
21279W        W25579  25.484   6.836  24.547 -0.3066  0.2552  0.1626
21280W        W25580   6.240   7.528  25.474  0.0399  0.2101  0.0405
21281W        W25581   6.639   0.948   5.034 -0.3062 -0.1774  0.1699
21282W        W25582  24.327   5.999  20.411 -0.0194 -0.0268 -0.3861
21283W        W25583  19.188   6.583  23.269 -0.1125  0.1702 -0.1935
21284W        W25584  29.647   0.180  19.753  0.0962  0.2303 -0.1436
21285W        W25585  20.985   5.982   2.941  0.0179 -0.2706  0.3336
21286W        W25586  18.840   1.602   7.068 -0.0797 -0.2011 -0.2894
21287W        W25587  27.451   5.995   1.191  0.0784 -0.1853 -0.0046
21288W        W25588   5.195   3.534   8.790 -0.1574 -0.3097  0.0422
21289W        W25589   6.007   0.069   8.361  0.3631  0.1181  0.0858
21290W        W25590  11.348   1.242   2.564  0.2530 -0.1192  0.2990
21291W        W25591  29.842   5.526  19.324 -0.1873 -0.3469 -0.1574
21292W        W25592   2.729   0.429   9.522  0.0851  0.1230  0.1118
21293W        W25593  25.657   1.923   3.550 -0.0637 -0.1676  0.2894
21294W        W25594  22.105   1.641  10.543 -0.2197 -0.1311  0.0931
21295W        W25595  26.476   3.059   6.531  0.1326 -0.1617  0.0079
21296W        W25596  17.406   3.091   5.735 -0.3585  0.1244  0.1302
21297W        W25597  22.994   1.072  10.572  0.2572  0.0741  0.0706
21298W        W25598  11.030   6.599  25.393 -0.0105 -0.1278 -0.1416
21299W        W25599   3.231   2.873   0.361 -0.2136  0.0776 -0.3948
21300W        W25600  30.062   4.694   1.037 -0.0489  0.1511  0.3944
21301W        W25601  14.544   1.104  19.111  0.0228 -0.0498 -0.3030
21302W        W25602   0.261   2.503  20.743  0.0408  0.1732 -0.0640
21303W        W25603   8.702   4.211   8.529 -0.3343  0.0375  0.2856
21304W        W25604  29.743   4.971  16.816 -0.0284  0.1507  0.0189
21305W        W25605   3.532   0.139  19.727  0.1134  0.1443 -0.1407
21306W        W25606   6.892   5.144  26.067 -0.3506 -0.1048 -0.0105
21307W        W25607  22.480   5.504  10.788  0.3029 -0.1285  0.0050
21308W        W25608  21.769   6.967   6.865 -0.2547  0.1548 -0.0188
21309W        W25609  14.526   0.530  24.712  0.0486 -0.0537 -0.1475
21310W        W25610  21.071   4.544  21.078  0.2743 -0.1401  0.0149
21311W        W25611  26.717   3.325   2.918 -0.1026 -0.0256  0.0883
21312W        W25612  16.386   0.776  16.902 -0.1259  0.0566 -0.0113
21313W        W25613  20.551   3.220   4.060  0.1626  0.2620  0.1812
21314W        W25614  21.943   3.600   4.932 -0.1450  0.0608  0.2126
21315W        W25615   0.923   2.339   6.783  0.1208  0.0956  0.0056
21316W        W25616  26.735   3.493  25.276 -0.0213 -0.0553 -0.0497
21317W        W25617   7.558   7.794   3.438  0.0810 -0.0168 -0.3444
21318W        W25618  25.165   7.194   7.628  0.0816  0.3158 -0.0450
21319W        W25619  26.724   0.879  17.507  0.1232  0.2031  0.0610
21320W        W25620  15.338   7.013   2.594 -0.0273  0.4133 -0.4423
21321W        W25621  12.588   5.970  21.142 -0.2143 -0.0189  0.0522
21322W        W25622  28.787   1.688   5.148 -0.0525 -0.1561 -0.2804
21323W        W25623  25.221   6.909   9.207 -0.0634 -0.1141 -0.1870
21324W        W25624  27.837   4.179   9.954 -0.0579  0.0950 -0.0210
21325W        W25625  26.554   5.636  23.374  0.2921 -0.2268  0.0524
21326W        W25626  20.820   7.766  19.089  0.0446 -0.0561  0.1165
21327W        W25627   2.469   6.322  25.660 -0.0407 -0.1816  0.0724
21328W        W25628  20.215   6.087  25.651 -0.0772  0.0618 -0.0782
21329W        W25629  18.217   1.214   0.806 -0.2484 -0.3013  0.2296
21330W        W25630  22.586   1.211   9.371  0.0025 -0.0315  0.0560
21331W        W25631   3.824   7.756   6.494  0.2335 -0.0085  0.0982
21332W        W25632  22.535   2.466   1.286  0.4908  0.0171  0.0555
21333W        W25633  21.168   6.534  18.917 -0.1316  0.0812  0.0770
21334W        W25634   1.609   6.001  24.313  0.0760  0.0668  0.1645
21335W        W25635  18.312   1.024  15.415 -0.0046 -0.1590 -0.2603
21336W        W25636  16.197   1.014  20.823  0.0317  0.2070  0.0318
21337W        W25637   7.863   2.650   0.152 -0.2656 -0.0588  0.0074
21338W        W25638   6.468   2.288  26.340 -0.0541 -0.2551  0.0332
21339W        W25639  11.100   6.948   6.305  0.1817 -0.0048 -0.1238
21340W        W25640  20.262   7.743  25.019  0.3589  0.1271 -0.0296
21341W        W25641  26.379   2.620  10.149 -0.1509 -0.1610 -0.1457
21342W        W25642   1.878   2.159  25.856  0.1109 -0.1127 -0.0132
21343W        W25643  30.351   5.190   1.933  0.0351  0.2801  0.1960
21344W        W25644  18.111   3.243  24.942 -0.4142 -0.1185 -0.1281
21345W        W25645  15.143   4.354   6.820  0.0163 -0.1703  0.1715
21346W        W25646  29.227   1.642   4.813  0.0217  0.0954  0.2115
21347W        W25647  23.521   4.390  21.363 -0.1566 -0.2598 -0.2191
21348W        W25648   5.378   4.943  26.238  0.0604  0.3382  0.3393
21349W        W25649   8.860   0.318  10.324  0.2316 -0.1719 -0.1182
21350W        W25650  23.430   5.382  18.360  0.0071  0.1816 -0.0804
21351W        W25651  14.244   6.871  17.693 -0.1379  0.4824  0.4996
21352W        W25652   4.362   7.703   7.224  0.3059  0.2890  0.1654
21353W        W25653  16.882   0.839   3.464  0.2809 -0.1445  0.0725
21354W        W25654  26.353   6.120  11.000 -0.0266 -0.1189 -0.3558
21355W        W25655  30.333   2.862   7.046 -0.0021  0.0512 -0.2040
21356W        W25656  21.419   6.764   5.914 -0.0127  0.2183  0.0412
21357W        W25657   9.244   3.309  18.172  0.0594 -0.0459 -0.0130
21358W        W25658   9.229   3.350  10.318 -0.1338  0.0218  0.1847
21359W        W25659   7.962   6.478  21.538  0.3029  0.1899 -0.0744
21360W        W25660   3.711   5.716  18.298 -0.0624  0.0078  0.3298
21361W        W25661   4.014   5.083  25.153  0.2702 -0.2377 -0.1172
21362W        W25662  23.997   3.568  21.282  0.2134 -0.2314 -0.1547
21363W        W25663   6.441   1.002  23.295  0.1082  0.3389  0.3283
21364W        W25664   3.569   4.839   0.587 -0.3674 -0.1211 -0.0673
21365W        W25665  27.095   1.072  22.744 -0.5053 -0.1194  0.1993
21366W        W25666   3.151   1.451  22.122  0.0685  0.0571  0.0446
21367W        W25667  17.343   5.873   4.871  0.0430 -0.0375 -0.0323
21368W        W25668   9.111   2.915  17.846  0.1517  0.0454 -0.0363
21369W        W25669  28.542   5.563  19.903 -0.2662  0.0547 -0.0210
21370W        W25670  14.865   1.736   6.445 -0.0966 -0.1576  0.0421
21371W        W25671  18.877   5.305   0.934 -0.2116  0.1062  0.3650
21372W        W25672   5.317   4.718  21.370  0.1429  0.1253  0.0149
21373W        W25673  21.979   2.573  10.839  0.1321 -0.0183  0.2312
21374W        W25674  14.825   1.237   4.513 -0.0841  0.1077 -0.0655
21375W        W25675   1.623   5.291  22.961 -0.1794  0.2933  0.0065
21376W        W25676  19.459   1.975   5.597 -0.2023  0.2384 -0.1278
21377W        W25677   5.884   6.112   4.072 -0.2150  0.1385 -0.1223
21378W        W25678   4.186   7.053   9.756 -0.0158 -0.0870 -0.1437
21379W        W25679  24.983   5.004   4.748  0.0777  0.0213  0.0555
21380W        W25680  22.191   5.093   1.032  0.2012 -0.1169  0.2467
21381W        W25681  28.703   4.037  16.479 -0.0480  0.1743 -0.2215
21382W        W25682  27.304   6.185  16.363 -0.1022  0.1394 -0.0758
21383W        W25683  15.293   3.536  25.719 -0.0466  0.4150 -0.1213
21384W        W25684   5.891   1.133  18.081  0.1936 -0.0311 -0.1445
21385W        W25685   8.075   1.359   0.214 -0.2722  0.1785  0.2070
21386W        W25686  29.715   5.558  15.395 -0.0187  0.1863 -0.3646
21387W        W25687  22.724   5.679   4.558 -0.1886 -0.1415 -0.3575
21388W        W25688   9.218   7.007  15.459 -0.0292  0.0743  0.0990
21389W        W25689   7.002   7.432   0.291  0.0015 -0.0503  0.0051
21390W        W25690  20.247   0.918  23.588 -0.1416  0.1376  0.0401
21391W        W25691  18.309   3.906  18.845  0.1831 -0.1051 -0.2035
21392W        W25692   2.201   6.898   9.844  0.0531  0.1686 -0.1426
21393W        W25693   0.911   0.167   6.583  0.3599 -0.0926  0.1557
21394W        W25694  30.735   6.684   1.401  0.0749 -0.2142  0.0890
21395W        W25695  29.128   0.326   7.262 -0.2109  0.1079 -0.0532
21396W        W25696  16.060   1.651  17.255 -0.0276 -0.0131  0.0609
21397W        W25697   3.939   2.845  17.841 -0.3533 -0.0862 -0.0297
21398W        W25698  19.297   7.068  18.634  0.3109 -0.4645  0.0932
21399W        W25699   3.165   1.372  19.668 -0.1348  0.2325  0.1088
21400W        W25700  29.578   2.727  10.498 -0.2751  0.3002  0.4090
21401W        W25701  13.610   0.401   0.825  0.2496 -0.1559 -0.1710
21402W        W25702  14.145   0.110  17.118 -0.2191 -0.0246 -0.1192
21403W        W25703   4.246   5.383   4.704  0.0246  0.0300 -0.0232
21404W        W25704  18.712   6.014  21.666 -0.0040  0.3248  0.2327
21405W        W25705  21.710   2.348  26.425  0.1749  0.2428  0.3381
21406W        W25706  16.239   2.031   0.536 -0.2968 -0.1151 -0.0815
21407W        W25707  23.304   2.696   4.809  0.0323 -0.1385 -0.0697
21408W        W25708  22.972   4.076   1.599  0.0551  0.3523  0.0192
21409W        W25709   0.935   0.330  22.680  0.6276 -0.1668 -0.1424
21410W        W25710  12.581   0.537  24.537 -0.3438 -0.2266  0.2251
21411W        W25711  29.253   5.410  17.504  0.0693  0.1244 -0.1366
21412W        W25712  18.028   3.259   0.547 -0.0689  0.1902 -0.3566
21413W        W25713   2.991   0.156  10.892  0.0067 -0.0170  0.0958
21414W        W25714   5.621   4.447   8.559 -0.0786  0.1834  0.0709
21415W        W25715  25.780   4.012  10.157 -0.1722 -0.0332 -0.2350
21416W        W25716  13.171   4.891   0.419 -0.1844  0.3192 -0.0047
21417W        W25717  10.757   7.259  23.786  0.1304  0.0126 -0.2613
21418W        W25718  12.056   6.966  21.588  0.2353 -0.2589  0.3316
21419W        W25719   7.955   7.468   3.430 -0.1690  0.1000  0.4520
21420W        W25720   4.011   3.620  16.453  0.2738  0.1443 -0.2755
21421W        W25721   2.839   2.023   1.956 -0.0023 -0.1203 -0.0965
21422W        W25722  27.692   1.240  25.648 -0.0729 -0.0059 -0.1054
21423W        W25723   0.043   5.841  25.868 -0.3066 -0.2153  0.1992
21424W        W25724  27.413   0.975   8.816 -0.0225  0.4974  0.0257
21425W        W25725   1.725   3.294   1.217 -0.1901  0.2671 -0.3684
21426W        W25726  22.229   5.278   2.809 -0.0857 -0.0902 -0.1347
21427W        W25727  21.956   5.741   3.293  0.2683  0.1516  0.1533
21428W        W25728  11.162   6.946  24.953  0.1064 -0.0836 -0.0264
21429W        W25729  16.129   0.754  25.427  0.1252  0.0433  0.0512
21430W        W25730  23.890   3.284   0.215 -0.0467 -0.2483 -0.2162
21431W        W25731   8.455   4.211   5.453 -0.1672  0.0821 -0.2683
21432W        W25732  13.181   0.607   4.085 -0.0634 -0.2165  0.0403
21433W        W25733  24.241   4.940   1.912 -0.1427  0.0407  0.1803
21434W        W25734  14.016   2.792   5.996  0.2495  0.0722  0.0677
21435W        W25735   2.626   5.325   4.285  0.1082 -0.2272  0.0958
21436W        W25736  26.525   6.251  24.705  0.1017 -0.2088 -0.0541
21437W        W25737  22.843   7.493   1.293 -0.0873 -0.0433 -0.1528
21438W        W25738   8.460   0.207   3.097 -0.0316 -0.0037 -0.0766
21439W        W25739  11.257   4.384  25.686  0.4156 -0.0529  0.3275
21440W        W25740  29.136   5.137   2.462 -0.0129 -0.3026 -0.3620
21441W        W25741   4.624   0.994   9.590 -0.2257 -0.0485 -0.1041
21442W        W25742  12.171   7.753   8.692  0.2138  0.0680 -0.2202
21443W        W25743  16.180   1.036   4.481  0.0697 -0.2296 -0.1637
21444W        W25744  24.370   1.492   9.461 -0.0101 -0.0671 -0.1506
21445W        W25745  22.767   4.346   6.081  0.0859  0.0118  0.0561
21446W        W25746  18.310   1.822  24.171  0.2577  0.1079  0.1603
21447W        W25747  11.654   5.675  20.778 -0.2280 -0.0777  0.0622
21448W        W25748  16.584   4.966   2.034  0.0972  0.0914  0.1206
21449W        W25749  15.770   5.979  21.666 -0.3156  0.0288  0.1109
21450W        W25750  20.011   2.353   0.035 -0.1463 -0.2671  0.1770
21451W        W25751  13.065   3.557   8.187 -0.0006 -0.0129  0.0694
21452W        W25752  28.399   2.588   1.600  0.1072  0.0076 -0.0922
21453W        W25753  23.167   0.204   3.738 -0.2804 -0.1315 -0.1449
21454W        W25754  12.432   1.247  23.561 -0.0499 -0.0576 -0.2887
21455W        W25755  12.027   1.964   7.117 -0.1056  0.0225  0.4567
21456W        W25756  27.737   3.319  18.890 -0.0309  0.3122 -0.3343
21457W        W25757  19.273   1.429   6.798  0.0833 -0.2481 -0.0267
21458W        W25758  12.820   1.718  17.039 -0.0042 -0.2543 -0.0843
21459W        W25759   4.859   6.819  16.426  0.1851  0.1966 -0.3890
21460W        W25760   2.736   2.665   2.427 -0.1745  0.0326  0.0548
21461W        W25761   2.990   5.782  21.215  0.0290 -0.0711  0.0883
21462W        W25762   0.018   0.252  15.564  0.0842  0.1094 -0.1059
21463W        W25763  30.772   4.700  10.777 -0.0440  0.1631  0.1691
21464W        W25764   2.408   1.972  18.897 -0.2175  0.0119  0.0238
21465W        W25765  15.738   1.187   9.315  0.0696  0.2589 -0.2526
21466W        W25766  28.461   2.504  10.870 -0.1853 -0.1471 -0.1924
21467W        W25767  13.199   1.934  26.315 -0.1672 -0.2203  0.1370
21468W        W25768   8.349   2.866   7.103  0.3863  0.0404 -0.0083
21469W        W25769   5.931   4.036  20.917  0.1960  0.1428 -0.1443
21470W        W25770   9.110   5.316   9.104  0.0510 -0.2951 -0.0572
21471W        W25771   6.608   6.034  18.935 -0.0803  0.1576 -0.2704
21472W        W25772   6.038   6.187   9.948  0.2202 -0.0846  0.2129
21473W        W25773  31.165   1.443  22.753  0.3842  0.0780  0.2227
21474W        W25774  11.442   7.275   9.101  0.1904  0.1326  0.0086
21475W        W25775  26.418   0.019   2.892  0.0868 -0.3558  0.1103
21476W        W25776  17.599   7.031  14.799  0.2191 -0.2025 -0.2032
21477W        W25777   7.596   5.985  19.854  0.0024  0.0191 -0.1499
21478W        W25778   4.414   0.230  18.128 -0.2565  0.0814  0.0352
21479W        W25779   4.326   5.178  17.167  0.0694 -0.1933  0.2270
21480W        W25780   4.214   2.525  20.784 -0.1261  0.0556  0.5591
21481W        W25781   0.257   7.791   9.689  0.0050  0.3940 -0.1709
21482W        W25782  23.507   0.229   9.405  0.4877 -0.1152  0.3150
21483W        W25783   0.705   3.624   4.856 -0.2011  0.0496  0.0208
21484W        W25784  22.143   4.854   2.471  0.1262 -0.0499  0.3255
21485W        W25785   2.957   4.976  25.044  0.0518  0.0835 -0.1833
21486W        W25786  11.669   7.187  15.849 -0.4161 -0.2250 -0.1921
21487W        W25787   3.174   5.523   6.435 -0.3643  0.0031 -0.2089
21488W        W25788  20.484   5.773   9.558  0.1695 -0.0726  0.0490
21489W        W25789   6.714   0.650  22.123 -0.0876  0.1692  0.4378
21490W        W25790  30.723   5.043   2.341  0.0686 -0.0243 -0.0502
21491W        W25791   5.759   4.824   7.876 -0.1792 -0.1007 -0.0251
21492W        W25792   5.313   4.193   4.598 -0.2747  0.0054 -0.2245
21493W        W25793  13.246   6.302   3.821  0.2536 -0.1261  0.3275
21494W        W25794  24.186   5.973   1.780 -0.0972 -0.2367 -0.1873
21495W        W25795  18.726   4.119  26.222  0.0870  0.1266  0.0806
21496W        W25796   0.330   5.426   5.674 -0.0530  0.2830 -0.1507
21497W        W25797  24.736   2.258   2.737 -0.1898  0.2424 -0.0700
21498W        W25798  16.422   7.730   8.772  0.3903  0.1129  0.4157
21499W        W25799  28.994   1.744  18.034  0.1752 -0.2661 -0.2535
21500W        W25800  10.332   0.827   1.680 -0.2650 -0.0213  0.3055
21501W        W25801   2.978   5.470  25.904 -0.0561 -0.1976  0.1417
21502W        W25802  16.372   6.777   3.988 -0.0795 -0.0930  0.1430
21503W        W25803  18.741   0.030  20.882  0.0372  0.0224  0.2646
21504W        W25804  23.370   5.638   8.921 -0.1937 -0.0486  0.1003
21505W        W25805   1.420   0.182   5.732 -0.1447  0.1342 -0.4524
21506W        W25806  23.299   4.766  23.343  0.1039 -0.5523 -0.0481
21507W        W25807  21.789   4.464  25.824  0.1787  0.0715 -0.1255
21508W        W25808   9.556   2.972   5.835  0.0594 -0.0318  0.1498
21509W        W25809  28.409   6.250   6.746  0.1001  0.0512  0.0579
21510W        W25810  13.133   7.654  24.672  0.3609  0.2971  0.0168
21511W        W25811  25.597   5.650   5.164 -0.1940 -0.2822  0.0833
21512W        W25812  24.864   6.156  23.462 -0.3340 -0.1261 -0.0358
21513W        W25813  29.573   7.125  26.001 -0.3986 -0.0154  0.2451
21514W        W25814  28.162   0.346  25.392  0.3828 -0.0098 -0.1330
21515W        W25815  14.763   3.326   4.951  0.3066 -0.0313  0.1573
21516W        W25816  15.367   1.588  15.887 -0.3802  0.0036  0.0396
21517W        W25817  16.188   5.264  15.034  0.1874 -0.2081 -0.1105
21518W        W25818  23.041   6.995  21.189  0.0426  0.1908  0.4062
21519W        W25819  13.462   6.421  17.224  0.2306  0.1806  0.0238
21520W        W25820  30.612   1.875   4.918  0.0801  0.0711 -0.0503
21521W        W25821  21.812   2.006   2.635  0.0646  0.0912  0.0560
21522W        W25822  12.456   4.092   4.280  0.2233 -0.0791  0.1486
21523W        W25823  27.966   3.807   0.116 -0.1463  0.1908 -0.0495
21524W        W25824  23.048   5.346   3.284  0.1006  0.5873  0.0165
21525W        W25825   2.727   5.122  20.583 -0.1168 -0.0820  0.2959
21526W        W25826  22.153   3.609   2.662  0.1480 -0.0946 -0.1039
21527W        W25827  10.009   5.788  14.830  0.1066 -0.1799 -0.3708
21528W        W25828  20.546   0.764  20.493 -0.1200  0.4121  0.1700
21529W        W25829  17.766   6.729  25.288  0.0637  0.5309  0.0116
21530W        W25830   1.669   7.548   3.739  0.0232 -0.2776 -0.0221
21531W        W25831  10.434   5.384   7.313  0.0247  0.2606  0.2131
21532W        W25832   9.018   4.048  18.717 -0.1088  0.2916  0.0393
21533W        W25833  27.193   6.336  20.569  0.0329 -0.0176 -0.0975
21534W        W25834  24.386   3.532  19.914 -0.0299 -0.0046 -0.2575
21535W        W25835  20.322   4.632  24.277  0.0415  0.1093  0.2886
21536W        W25836   8.584   5.100   7.011  0.1267 -0.0948 -0.1715
21537W        W25837  21.961   5.596   5.019  0.0874 -0.0328 -0.2915
21538W        W25838   9.158   4.455   5.818 -0.4164 -0.1989 -0.1759
21539W        W25839   7.591   5.035  10.031  0.1132  0.1100 -0.2723
21540W        W25840  22.489   7.570   6.563 -0.0930 -0.1630  0.2421
21541W        W25841  12.518   7.678   9.070  0.0108  0.1219 -0.2249
21542W        W25842   9.407   4.559   9.049 -0.1021  0.2226 -0.1297
21543W        W25843   8.861   7.205  20.989  0.1725  0.0632 -0.0523
21544W        W25844   6.432   6.406  19.727  0.0589  0.2983 -0.3759
21545W        W25845  28.045   6.064  19.360  0.1002 -0.0043 -0.1056
21546W        W25846   0.254   3.352  22.894 -0.0274  0.0274  0.0014
21547W        W25847  24.395   5.317   5.732 -0.1140  0.0233  0.0515
21548W        W25848   6.922   6.237  24.677 -0.0069  0.3278 -0.1029
21549W        W25849  24.809   0.812  24.785  0.1493 -0.4448 -0.0784
21550W        W25850  20.341   6.536   6.417  0.0782  0.3126 -0.4442
21551W        W25851   7.032   2.665   3.606  0.0199  0.1646  0.0195
21552W        W25852  16.892   2.121  22.723  0.0355 -0.0428  0.1585
21553W        W25853   1.225   7.067   9.244 -0.0017  0.0921 -0.0705
21554W        W25854  19.852   5.853  18.296 -0.2696 -0.1532  0.2164
21555W        W25855  13.851   3.649  10.187  0.2503  0.0390  0.1870
21556W        W25856  31.114   7.035   6.385 -0.3702 -0.1666  0.0930
21557W        W25857   9.430   7.509  21.664 -0.0859  0.0436 -0.3656
21558W        W25858  24.105   0.258  25.528  0.1435  0.1836 -0.1565
21559W        W25859  23.273   3.098   5.269  0.0370 -0.0867 -0.0950
21560W        W25860  20.231   1.574   3.347 -0.2520 -0.2181 -0.2481
21561W        W25861  17.825   3.388  21.303 -0.1130 -0.1815 -0.0991
21562W        W25862  13.648   3.287  17.924 -0.1200  0.1640  0.0380
21563W        W25863  13.008   6.711  19.117  0.2472  0.0038  0.1110
21564W        W25864   4.088   6.108   3.208  0.1374 -0.4136 -0.2343
21565W        W25865  22.112   7.608  22.104 -0.0515 -0.0365  0.0103
21566W        W25866  16.193   3.008  10.440  0.2440 -0.3826 -0.2464
21567W        W25867   7.472   7.332  25.891 -0.0343  0.1260 -0.0270
21568W        W25868  13.973   1.076  18.843  0.2839  0.1316 -0.0247
21569W        W25869  27.830   0.136   3.040  0.0491  0.0172  0.1259
21570W        W25870  11.950   4.669   8.149 -0.0548  0.1091 -0.1580
21571W        W25871   6.051   0.315  25.798 -0.2783  0.0627 -0.4563
21572W        W25872   4.288   2.149   9.708 -0.0098 -0.0088  0.1196
21573W        W25873  11.351   5.336  16.306 -0.0571  0.1192  0.2142
21574W        W25874  15.464   1.163  15.490 -0.0538  0.0587  0.2337
21575W        W25875  17.322   4.822   9.442 -0.1093 -0.0562 -0.2291
21576W        W25876  30.426   7.016   4.072 -0.1502 -0.2654  0.1702
21577W        W25877  10.171   6.230  17.376  0.0054 -0.0013 -0.0306
21578W        W25878   8.164   5.411  15.011 -0.0459 -0.4354  0.0929
21579W        W25879  22.784   6.201  15.874 -0.2205  0.1144  0.0388
21580W        W25880  25.690   4.801  25.420  0.1905 -0.0172 -0.2517
21581W        W25881   3.694   7.223   3.659  0.1397 -0.0019  0.1372
21582W        W25882  29.788   4.592   1.801  0.1109 -0.1272 -0.1329
21583W        W25883   2.923   6.321  11.354 -0.1490 -0.1066 -0.2334
21584W        W25884  19.558   0.945  23.651 -0.1031 -0.0635  0.2950
21585W        W25885  27.521   0.258   0.625 -0.2582  0.0424 -0.0565
21586W        W25886  12.329   1.484  24.040  0.0662  0.2278  0.0874
21587W        W25887  14.663   5.904   2.346  0.1522 -0.2373  0.1579
21588W        W25888  13.181   2.288   5.999  0.0156 -0.2203  0.2306
21589W        W25889  18.425   0.883   4.528  0.0642 -0.1374 -0.0454
21590W        W25890  10.757   3.595  23.835  0.2038  0.0056  0.4066
21591W        W25891  30.279   4.055  24.972 -0.0244  0.2883  0.0488
21592W        W25892  17.768   6.298   0.912  0.0845  0.0853  0.0504
21593W        W25893  18.334   5.313   1.398  0.0321  0.0827 -0.0079
21594W        W25894  12.616   1.339  15.983  0.0617  0.1578 -0.0269
21595W        W25895  30.459   6.207  25.678 -0.0741 -0.0480  0.2370
21596W        W25896   9.037   4.143  17.723  0.1270 -0.0036  0.1230
21597W        W25897  25.150   4.302  25.985 -0.1032  0.1954  0.4624
21598W        W25898  16.904   3.374   8.134  0.1867 -0.2560  0.2542
21599W        W25899  16.795   6.303  21.908 -0.0845 -0.1419  0.3592
21600W        W25900  18.900   5.091  25.809  0.0870  0.2355 -0.0414
21601W        W25901   1.569   4.862  21.159 -0.1721  0.1893 -0.0001
21602W        W25902   4.296   7.546  25.121 -0.1031 -0.1322  0.2225
21603W        W25903  15.371   3.621  18.152  0.2592 -0.0655 -0.0986
21604W        W25904  10.349   1.035   3.894 -0.1393  0.0915  0.1053
21605W        W25905  20.998   6.301  11.547  0.2578 -0.1762  0.0226
21606W        W25906  28.891   0.085   1.009  0.4552  0.1277  0.2501
21607W        W25907  18.240   7.525   1.605  0.2659 -0.1264 -0.0887
21608W        W25908  24.971   7.454   1.051  0.1019  0.1991 -0.0596
21609W        W25909  10.289   2.300   1.863 -0.0792 -0.3483  0.1078
21610W        W25910  15.654   2.831  18.584 -0.0928  0.3684  0.1510
21611W        W25911  23.126   7.622   7.431 -0.1413  0.1443  0.1062
21612W        W25912  22.904   1.378   4.581  0.2720  0.0148 -0.2527
21613W        W25913  13.815   0.968   0.703  0.1111 -0.2180  0.1970
21614W        W25914  28.823   6.435  19.086 -0.2266  0.0446 -0.0521
21615W        W25915  28.459   2.412  15.767 -0.0057 -0.2738 -0.2497
21616W        W25916  22.411   3.391  25.051 -0.2281  0.2451 -0.0119
21617W        W25917  26.661   4.005  21.554 -0.1456  0.0156 -0.0512
21618W        W25918   8.465   6.597  10.541 -0.1931 -0.1335 -0.1400
21619W        W25919  16.657   1.275   8.665 -0.3090 -0.1978 -0.0096
21620W        W25920  27.778   5.419   0.071 -0.3808 -0.0666 -0.0842
21621W        W25921  14.507   4.603   7.189 -0.2837  0.1355  0.1817
21622W        W25922  19.627   3.156  11.087 -0.1289 -0.3117  0.0585
21623W        W25923   3.605   6.462   3.248  0.0308  0.1682 -0.1209
21624W        W25924   4.119   1.408  23.234  0.0269  0.2406 -0.2242
21625W        W25925  22.306   5.709  25.944 -0.0657  0.0157 -0.2065
21626W        W25926  12.960   7.063   3.297 -0.1242 -0.1018  0.1233
21627W        W25927  18.599   1.997   0.513  0.1098 -0.2005  0.0554
21628W        W25928  15.550   6.687  22.083 -0.0947  0.1451 -0.1188
21629W        W25929   8.042   2.106  15.962 -0.1721 -0.0239 -0.2695
21630W        W25930   0.550   6.659  10.622 -0.0526  0.1465 -0.1699
21631W        W25931   3.677   4.082  22.661 -0.4101 -0.1815 -0.2802
21632W        W25932  12.680   5.253  25.066  0.0520  0.0003 -0.0616
21633W        W25933  20.173   6.031  22.428  0.0174  0.0064 -0.0674
21634W        W25934   5.480   4.238   5.138  0.0379  0.2803  0.0836
21635W        W25935  19.723   0.142   1.034 -0.1056 -0.0372  0.0956
21636W        W25936   1.547   1.096   5.540 -0.2497  0.0881 -0.1309
21637W        W25937  27.752   5.109   1.550  0.0610 -0.0575  0.1210
21638W        W25938  21.761   2.556   3.917 -0.1544 -0.1974 -0.0663
21639W        W25939  17.788   4.696   8.728 -0.0181 -0.0440 -0.0537
21640W        W25940  22.084   1.764  17.171  0.2147  0.0244 -0.2057
21641W        W25941  11.937   7.307  11.058  0.0208  0.1364 -0.1869
21642W        W25942   3.370   5.524  16.734  0.3603 -0.1995 -0.1776
21643W        W25943   9.319   3.989  16.341  0.2990  0.0328  0.0927
21644W        W25944  20.356   4.747  11.134 -0.0492  0.2182 -0.2288
21645W        W25945   4.677   5.727  11.446 -0.1087  0.2429 -0.0374
21646W        W25946  16.030   6.748  10.769  0.3154  0.1358  0.0082
21647W        W25947  25.578   2.110  11.366 -0.1295 -0.0539  0.0512
21648W        W25948  10.855   7.417  18.383  0.1064 -0.0857  0.2570
21649W        W25949  12.598   3.126   1.016 -0.1203 -0.0593 -0.1933
21650W        W25950  18.890   2.777  15.536  0.1392  0.2612  0.2052
21651W        W25951  10.357   1.941  23.080  0.0054  0.3048 -0.2369
21652W        W25952  19.746   0.638   2.445 -0.0998  0.1408 -0.0371
21653W        W25953  20.136   6.861  17.323  0.0106  0.2429  0.0233
21654W        W25954   0.169   2.744  24.582 -0.0520  0.0136  0.0822
21655W        W25955  13.249   2.825  17.560 -0.0095 -0.0713  0.1096
21656W        W25956  17.225   0.821  24.971  0.2329 -0.0533 -0.1942
21657W        W25957  30.927   4.617  18.337  0.3670 -0.0450 -0.0470
21658W        W25958  20.056   1.959   7.979  0.1013  0.0430  0.1110
21659W        W25959   0.799   4.303   8.026 -0.2363  0.1429 -0.2310
21660W        W25960  28.018   7.240  17.594  0.0580 -0.0930  0.1892
21661W        W25961   1.988   5.710   6.684  0.0665  0.1071  0.2108
21662W        W25962   8.301   5.757   9.003 -0.0505 -0.2021  0.1021
21663W        W25963   6.936   0.225  22.993 -0.0824 -0.1581  0.1486
21664W        W25964   9.580   3.820  10.830 -0.2919  0.1469 -0.0701
21665W        W25965  20.580   1.846  10.950 -0.1574  0.0273 -0.3566
21666W        W25966  28.857   5.858  19.160  0.0423 -0.3757  0.0727
21667W        W25967  20.457   3.197  26.244 -0.2674 -0.0956  0.0087
21668W        W25968  14.973   2.058   2.470 -0.0765 -0.0874  0.0318
21669W        W25969  19.618   3.600   6.184 -0.0903  0.1054 -0.0884
21670W        W25970  28.080   3.726   6.747  0.1370  0.1254 -0.1584
21671W        W25971  15.713   6.611   5.412  0.1421 -0.2348 -0.0824
21672W        W25972   5.617   5.595   7.642  0.0800 -0.0137 -0.2001
21673W        W25973  19.084   0.948   6.596 -0.0604  0.0328  0.0256
21674W        W25974   6.246   2.097  22.172  0.0349  0.2101  0.0402
21675W        W25975  23.498   1.318   9.831 -0.3152  0.0433 -0.0994
21676W        W25976  14.566   5.366  22.139 -0.1910 -0.0600  0.0865
21677W        W25977  17.922   5.827   4.105 -0.1434  0.0948 -0.1744
21678W        W25978  23.537   5.582  20.191  0.1455 -0.0118 -0.0165
21679W        W25979  15.243   2.062   4.390  0.2054 -0.0491  0.0087
21680W        W25980   5.204   7.500  18.208  0.0036 -0.0653  0.1058
21681W        W25981   9.558   7.435  22.513 -0.0812 -0.2746  0.0140
21682W        W25982   5.799   4.398   4.777  0.0448  0.0802  0.2353
21683W        W25983   6.264   2.241  11.562 -0.0924  0.0896  0.1421
21684W        W25984   9.364   4.767   8.589  0.0884 -0.1033  0.0733
21685W        W25985  18.255   5.784  24.963  0.0815 -0.1375  0.0474
21686W        W25986   7.773   2.082  19.154 -0.1534  0.4318  0.2426
21687W        W25987  17.149   2.875   1.996  0.1548 -0.1119  0.2771
21688W        W25988  29.766   7.186  10.389 -0.1617  0.3984  0.0152
21689W        W25989   3.574   0.063  10.718 -0.1694  0.1465  0.1345
21690W        W25990  11.280   0.152  21.783  0.0770  0.0840  0.2668
21691W        W25991  20.409   2.215  15.972 -0.3330 -0.0293  0.0316
21692W        W25992  30.226   3.970   4.906  0.0324  0.1382  0.2360
21693W        W25993   5.233   7.081  22.937 -0.2842  0.1599 -0.2896
21694W        W25994  30.678   5.725  25.831 -0.1995  0.0093  0.0697
21695W        W25995   0.243   0.475   2.131  0.1790  0.0959  0.1786
21696W        W25996  25.073   3.999  11.856 -0.0001  0.0178 -0.1746
21697W        W25997  14.451   6.155  25.919 -0.5250 -0.0339 -0.3164
21698W        W25998   2.511   4.866  18.218  0.0193 -0.2474 -0.0571
21699W        W25999  19.924   3.414  17.970 -0.1996 -0.1464  0.0359
21700W        W26000  25.462   0.335  18.937 -0.1222 -0.0700 -0.0282
21701W        W26001  21.019   5.079   7.754 -0.0804  0.1027  0.0787
21702W        W26002  18.318   7.725  22.907  0.2549 -0.0843 -0.2266
21703W        W26003   7.620   6.726  22.621 -0.3436 -0.1920  0.0060
21704W        W26004  20.374   0.445  20.100  0.1750 -0.2260  0.0199
21705W        W26005   4.608   5.904  25.261 -0.0146 -0.3588 -0.1774
21706W        W26006   9.903   5.986   8.767  0.0666  0.1033  0.4163
21707W        W26007  20.899   2.566   7.208 -0.2687 -0.0434  0.1207
21708W        W26008  11.825   0.485  19.664  0.1310 -0.0107  0.0198
21709W        W26009  18.025   0.722  19.608  0.3804  0.1530 -0.0490
21710W        W26010  28.428   4.064   9.042 -0.2247 -0.1129  0.1904
21711W        W26011  14.996   6.930  16.610 -0.0626  0.3074 -0.2362
21712W        W26012  11.680   4.665   0.302 -0.0275 -0.3366 -0.3525
21713W        W26013   3.904   5.986  20.945 -0.1370 -0.1895 -0.2620
21714W        W26014   5.287   4.707  19.384  0.3541  0.1458 -0.0212
21715W        W26015  19.909   5.926   8.929  0.0021 -0.0110  0.1306
21716W        W26016  13.559   3.873   4.213  0.1331  0.1515 -0.1461
21717W        W26017  11.087   0.143  10.781 -0.0622  0.1539 -0.2133
21718W        W26018  25.914   6.723  17.984 -0.1418  0.2050 -0.2402
21719W        W26019  11.343   2.142  21.501  0.0301 -0.0162 -0.2265
21720W        W26020  14.088   5.085   6.202  0.0490  0.1669  0.0662
21721W        W26021  23.252   1.618  22.126 -0.2358 -0.1373 -0.0665
21722W        W26022  12.907   4.455   0.281 -0.2188 -0.1095 -0.0691
21723W        W26023  31.115   6.049  16.438  0.1181  0.2759  0.2678
21724W        W26024  23.826   2.386  17.908  0.0768 -0.1831  0.0474
21725W        W26025  29.759   3.321  15.300  0.1024  0.3178  0.3165
21726W        W26026  27.268   4.928  16.162  0.1970  0.1395  0.3491
21727W        W26027  16.543   6.821  21.773 -0.0075  0.0190  0.5078
21728W        W26028  29.669   7.094   8.359 -0.1865 -0.1014 -0.0452
21729W        W26029  20.241   2.515   1.048 -0.0968 -0.1092  0.0225
21730W        W26030   0.464   3.551   6.061  0.1887 -0.0538 -0.1907
21731W        W26031   8.005   5.274   8.152 -0.2147 -0.2336  0.0461
21732W        W26032   0.695   1.100  20.082  0.0688  0.2728 -0.1198
21733W        W26033   8.186   0.235   8.052  0.1200  0.1745 -0.0340
21734W        W26034  27.684   5.053   6.581 -0.2844 -0.2392 -0.1470
21735W        W26035  21.419   5.817  20.937  0.1640 -0.1149 -0.0489
21736W        W26036  17.771   7.527  25.222  0.3051 -0.0700  0.1141
21737W        W26037  15.131   1.406   3.048  0.2382  0.0548 -0.1966
21738W        W26038   9.394   3.818   1.536 -0.2273  0.0015 -0.1007
21739W        W26039  11.455   0.902   5.964 -0.0655  0.0804 -0.0187
21740W        W26040   1.982   6.925  19.931 -0.0227  0.3022 -0.0052
21741W        W26041  17.051   1.092   1.439  0.0148 -0.1510 -0.1760
21742W        W26042  19.816   7.259   5.745  0.0099  0.0607 -0.1780
21743W        W26043  11.008   0.209   9.072  0.1243 -0.1164 -0.0713
21744W        W26044  22.697   4.437   0.706 -0.1082 -0.0250 -0.2875
21745W        W26045   9.931   1.329  18.129 -0.1758  0.0726 -0.0800
21746W        W26046  20.711   0.758  21.397 -0.2606  0.0330  0.1511
21747W        W26047   9.902   7.667   7.145 -0.3513  0.1699 -0.0677
21748W        W26048  29.062   0.706  19.263 -0.1530  0.0345  0.1834
21749W        W26049   4.671   5.060  25.690  0.1774  0.2389  0.1763
21750W        W26050   2.916   4.976   4.446  0.0182 -0.0033 -0.1726
21751W        W26051   0.495   0.357  22.411 -0.0824  0.0140  0.0316
21752W        W26052   7.008   2.818  16.234 -0.2059  0.2061 -0.0903
21753W        W26053  13.798   0.332  25.659  0.1443 -0.1358  0.2161
21754W        W26054   7.773   7.634  24.691  0.1757  0.1426  0.1484
21755W        W26055  17.977   7.595  21.993  0.0713 -0.0001  0.0234
21756W        W26056  24.064   3.618  24.511  0.2231  0.1506  0.1921
21757W        W26057  18.828   3.764   3.125 -0.1058 -0.0199 -0.1057
21758W        W26058  28.821   3.352   8.183 -0.0962 -0.1987 -0.0382
21759W        W26059  21.062   3.428  19.053  0.0995  0.0510 -0.0821
21760W        W26060  23.851   7.363   3.218 -0.0781 -0.4328  0.0721
21761W        W26061  12.880   5.244   8.943  0.1767 -0.0761  0.2068
21762W        W26062   1.752   1.620  16.249  0.2341  0.0182  0.0926
21763W        W26063  30.768   1.090   6.026 -0.1899  0.1523  0.1937
21764W        W26064  22.681   7.026  24.665  0.2040 -0.0916  0.0422
21765W        W26065  10.419   1.644   3.799  0.0426  0.1655  0.1032
21766W        W26066  20.352   5.913  18.503 -0.1316  0.1557  0.1661
21767W        W26067  21.535   0.579  11.288 -0.1067 -0.1710  0.0242
21768W        W26068   8.506   5.202  20.744  0.2363  0.2917 -0.1092
21769W        W26069  27.789   0.693  23.252 -0.2785  0.1045 -0.2247
21770W        W26070  27.281   4.545   2.551 -0.2357  0.1025  0.1098
21771W        W26071   0.197   0.914  24.987 -0.1481  0.1697 -0.1156
21772W        W26072  15.923   5.993  25.469 -0.1769 -0.1892  0.1000
21773W        W26073  30.480   3.844   5.579  0.2484 -0.0009 -0.2385
21774W        W26074  10.818   2.456  26.398  0.1460  0.0929 -0.3180
21775W        W26075  30.931   5.954  14.952 -0.1893  0.0127  0.1547
21776W        W26076  16.787   0.060  22.651 -0.0025 -0.0018  0.1691
21777W        W26077  14.194   3.677  17.142 -0.0776  0.0687  0.2541
21778W        W26078  13.697   4.000   8.814  0.1528 -0.1651  0.0638
21779W        W26079  22.373   5.860   4.905 -0.1083  0.0660  0.2168
21780W        W26080  13.649   0.078  17.959 -0.0101  0.1054 -0.1132
21781W        W26081  22.853   7.764   6.849  0.1951  0.1670  0.2143
21782W        W26082  21.140   1.665   0.334 -0.1028 -0.0712  0.2578
21783W        W26083  13.138   0.254   4.420 -0.1265  0.0501 -0.1398
21784W        W26084  20.627   6.121   5.834  0.0370 -0.0999 -0.1376
21785W        W26085  14.551   1.703  21.760  0.1101 -0.2254 -0.1552
21786W        W26086  10.469   4.109   9.012 -0.0221 -0.1470 -0.2549
21787W        W26087  30.799   1.442  23.476  0.4052 -0.0150  0.0523
21788W        W26088   9.950   7.174  16.436 -0.0695  0.1316 -0.2726
21789W        W26089  10.480   2.215  21.265 -0.3935  0.1729  0.1070
21790W        W26090   8.013   6.595   1.265 -0.1182 -0.2621  0.1688
21791W        W26091  12.038   1.580  18.387  0.0121  0.2501  0.1751
21792W        W26092  28.028   7.486   6.941 -0.1489 -0.0082  0.0940
21793W        W26093   3.090   5.418   3.677 -0.0622  0.1659 -0.1534
21794W        W26094   3.672   3.984   6.584  0.1255 -0.4536 -0.1784
21795W        W26095  17.296   7.067  21.470  0.1361  0.0464  0.0737
21796W        W26096  31.192   7.711  16.180  0.0540  0.0781  0.1110
21797W        W26097  28.961   4.887  22.347  0.0093 -0.2943  0.0345
21798W        W26098   6.553   5.643   8.335 -0.0785  0.0458 -0.0565
21799W        W26099   3.417   1.140  16.139 -0.1440 -0.1063  0.0286
21800W        W26100  17.053   4.937  10.000  0.0951 -0.0142 -0.0289
21801W        W26101  18.618   4.700  23.786  0.3942 -0.1668  0.0497
21802W        W26102  11.312   1.488  10.203 -0.2708 -0.1609 -0.0205
21803W        W26103   7.986   3.452  18.415  0.1213  0.1174  0.1010
21804W        W26104  17.721   6.474  18.299 -0.0458  0.0915 -0.0291
21805W        W26105   8.583   4.661   3.589 -0.2785  0.1241  0.0908
21806W        W26106  26.613   2.275   1.382 -0.1068 -0.0543  0.3018
21807W        W26107   9.482   2.051  18.673 -0.1849 -0.0641 -0.1714
21808W        W26108  10.369   1.375   1.729 -0.2529  0.0202 -0.0892
21809W        W26109  17.141   2.852   3.255 -0.1246  0.1203  0.1821
21810W        W26110   2.024   6.956  19.044 -0.0414  0.2214  0.2653
21811W        W26111  10.762   6.085   9.137  0.0584  0.1756 -0.1337
21812W        W26112  14.171   4.760  18.263  0.4104 -0.2103  0.2382
21813W        W26113   4.421   5.328   1.603  0.2836 -0.0503 -0.0672
21814W        W26114  16.207   2.180   3.019  0.2445 -0.0282 -0.3127
21815W        W26115   1.606   1.025  26.113 -0.2657  0.0822  0.2800
21816W        W26116  14.721   3.581   7.818  0.3000 -0.0027 -0.0469
21817W        W26117  21.198   0.730  20.007 -0.1324  0.1910 -0.1076
21818W        W26118   8.630   4.037  19.027 -0.0065  0.1463  0.2146
21819W        W26119  27.203   1.260  22.266  0.0716  0.1746  0.2771
21820W        W26120   6.127   2.079  19.376 -0.0642 -0.0734 -0.0565
21821W        W26121  14.034   7.725   4.646  0.0448  0.1123  0.2358
21822W        W26122   0.651   1.670  20.226 -0.1232  0.2024  0.1606
21823W        W26123   7.400   6.023  15.795 -0.1520  0.0866  0.1749
21824W        W26124  29.879   6.043   5.527 -0.0066  0.4963  0.0248
21825W        W26125  18.165   7.695  16.523  0.1309  0.2166 -0.1056
21826W        W26126  10.457   4.634  10.563 -0.1823 -0.1962  0.0014
21827W        W26127  17.166   7.682  24.866 -0.1177 -0.1268  0.1277
21828W        W26128   1.855   2.203  20.447 -0.0317  0.0108 -0.0908
21829W        W26129  31.106   2.706  22.735 -0.1567 -0.5010 -0.0390
21830W        W26130   5.226   1.031   6.007 -0.0184 -0.0214 -0.1800
21831W        W26131  17.093   5.611  19.225  0.3026 -0.0102  0.0791
21832W        W26132   0.921   5.903  11.589  0.1113  0.2078  0.2845
21833W        W26133  22.291   3.542   3.647  0.0358  0.0660  0.2238
21834W        W26134   4.334   7.591  20.284 -0.0228 -0.0371 -0.2332
21835W        W26135  21.185   0.661  10.960  0.0698 -0.0417 -0.0959
21836W        W26136  12.019   7.652   4.692  0.1648 -0.1022 -0.0735
21837W        W26137   5.791   2.319  17.808 -0.1217  0.2975  0.1946
21838W        W26138  29.079   4.838   2.991 -0.1236  0.1601 -0.2061
21839W        W26139  29.952   2.952  21.907 -0.0472 -0.3322 -0.4490
21840W        W26140  30.392   3.254   4.673  0.0843  0.1801 -0.0034
21841W        W26141  13.507   1.704  25.412 -0.0746 -0.0019  0.3088
21842W        W26142   6.403   6.118  16.301 -0.1362 -0.2116  0.2896
21843W        W26143   1.604   5.988  24.868 -0.1008  0.0672  0.1072
21844W        W26144  12.790   1.928  19.524  0.1967 -0.4808  0.0030
21845W        W26145   0.660   0.237   1.153 -0.0505  0.0573  0.0574
21846W        W26146   4.370   5.268  26.023  0.0665 -0.1060 -0.1103
21847W        W26147  17.447   5.141   2.099 -0.1564  0.1214  0.0583
21848W        W26148   7.525   6.452   1.122 -0.1245  0.1084 -0.3407
21849W        W26149  10.314   0.193  21.670  0.1061  0.0513 -0.0981
21850W        W26150  30.176   2.000  20.240  0.1093  0.0465  0.4131
21851W        W26151  23.938   4.295  10.870 -0.2103  0.1085 -0.0257
21852W        W26152  25.903   3.184   9.179  0.2982  0.2185  0.3548
21853W        W26153   5.040   5.231   0.880  0.2620 -0.0144  0.1896
21854W        W26154  24.979   7.031  19.363 -0.2879 -0.1489 -0.1962
21855W        W26155  21.900   0.856  21.437  0.3148 -0.0602  0.3286
21856W        W26156   9.401   4.361  10.224  0.0851 -0.0062  0.0991
21857W        W26157  16.044   6.145  18.200 -0.0067 -0.1272 -0.1840
21858W        W26158  30.227   1.298   1.414 -0.1013 -0.0466  0.2571
21859W        W26159  30.456   1.853  23.789  0.1155 -0.2914 -0.0685
21860W        W26160  28.616   4.911   9.074 -0.0814  0.0321 -0.2583
21861W        W26161  27.623   4.429   4.865  0.2558 -0.0159  0.1169
21862W        W26162  30.902   4.938  21.437  0.0286  0.0686  0.0180
21863W        W26163  27.378   5.156  19.339  0.0682  0.0991  0.1167
21864W        W26164  22.915   6.138  16.762 -0.1824 -0.0912  0.2716
21865W        W26165  10.601   1.338  17.757  0.2162 -0.1625  0.1078
21866W        W26166   0.467   5.225   2.837  0.3794 -0.1624 -0.0580
21867W        W26167  23.743   7.201   8.941  0.0056 -0.0460 -0.1054
21868W        W26168   7.193   6.594   8.315  0.1231  0.5500  0.0480
21869W        W26169  13.551   7.248  18.860 -0.0962  0.2156  0.4911
21870W        W26170   4.660   3.774  20.806  0.4025  0.0120 -0.1809
21871W        W26171  23.703   6.109  20.659 -0.1390 -0.1605  0.2126
21872W        W26172  24.661   3.324   6.581  0.3672  0.1754 -0.0955
21873W        W26173  25.542   5.662   3.793  0.0025  0.2698 -0.0932
21874W        W26174   7.795   5.577  19.575  0.0210  0.0116 -0.1394
21875W        W26175   5.619   1.205   3.153 -0.0238  0.0260  0.0368
21876W        W26176  25.643   2.476   5.331  0.1815  0.2267 -0.2550
21877W        W26177   0.039   4.974  20.609  0.0014 -0.0684 -0.2097
21878W        W26178  14.183   0.498  21.610 -0.2441 -0.0340  0.2009
21879W        W26179  21.433   4.898   4.972 -0.1885 -0.0074 -0.2191
21880W        W26180  15.137   2.541   1.226  0.0203  0.0821 -0.0924
21881W        W26181   9.500   0.291  16.648  0.1337 -0.1065  0.3998
21882W        W26182  28.606   0.189  24.497 -0.0038  0.2675  0.2858
21883W        W26183  27.679   1.496   5.026 -0.2943 -0.0748  0.2543
21884W        W26184  14.920   7.546  18.424 -0.2705  0.3100 -0.2017
21885W        W26185   2.754   1.422  19.302 -0.0851 -0.2094 -0.0517
21886W        W26186  26.016   0.892   3.468 -0.1519  0.2656  0.2617
21887W        W26187  14.630   0.978   8.033  0.2661 -0.2404 -0.2180
21888W        W26188   8.288   5.208  16.310  0.1279  0.2437  0.1369
21889W        W26189   1.511   2.881  19.508 -0.2765  0.3373 -0.0045
21890W        W26190  18.055   5.510  22.690  0.0443 -0.0233 -0.1067
21891W        W26191  30.577   6.222   9.963  0.1917  0.2375  0.2125
21892W        W26192  18.251   0.416   2.669 -0.0766  0.0416 -0.1055
21893W        W26193  29.682   2.185   2.250  0.0052 -0.2136 -0.1012
21894W        W26194   9.846   6.311  19.208 -0.3205 -0.1252 -0.0222
21895W        W26195  11.129   4.474   2.197 -0.1389 -0.1852 -0.1173
21896W        W26196  20.505   5.482  16.511  0.1545 -0.0108  0.0645
21897W        W26197  19.205   7.510  23.373  0.0892 -0.2024 -0.3356
21898W        W26198   2.333   1.915  10.786  0.0515 -0.0177  0.0413
21899W        W26199  16.075   0.672   7.220  0.3831 -0.0912 -0.2237
21900W        W26200  20.857   5.359   6.338 -0.3108 -0.2922  0.0432
21901W        W26201  19.278   4.510  18.183 -0.0146 -0.1627  0.3818
21902W        W26202   6.385   4.135   3.304  0.1122 -0.1959  0.0445
21903W        W26203  14.628   7.739  20.320  0.0327 -0.0656  0.0155
21904W        W26204  10.619   3.550  22.927 -0.2219  0.1345  0.1406
21905W        W26205  16.858   5.632  21.288 -0.3041 -0.1626  0.0244
21906W        W26206  13.646   5.962   9.118 -0.0544  0.0335  0.1119
21907W        W26207  12.546   7.054   4.512  0.1722  0.1306  0.0160
21908W        W26208  29.948   3.338   9.323  0.1275  0.1446 -0.2653
21909W        W26209  26.141   7.691  10.827  0.1142  0.0969 -0.1214
21910W        W26210  28.283   3.510   7.148  0.0943 -0.0365  0.2877
21911W        W26211  28.382   7.675  19.148 -0.2951  0.0339  0.0149
21912W        W26212  19.755   5.510   8.089  0.1615 -0.0075  0.0342
21913W        W26213   7.090   1.801   1.413  0.0745  0.2078  0.0874
21914W        W26214  11.831   5.508  25.968  0.1889  0.1005 -0.2528
21915W        W26215  31.033   2.730  17.057 -0.1450  0.0769 -0.0144
21916W        W26216  20.970   3.022   8.576 -0.0697  0.0038 -0.1465
21917W        W26217  25.386   1.628  10.370  0.2525  0.0929  0.0877
21918W        W26218   1.978   7.414  10.175 -0.0853  0.2071  0.2750
21919W        W26219  11.700   7.205  22.741 -0.0823  0.0167  0.0396
21920W        W26220  19.534   3.349   0.328  0.2129 -0.1755 -0.1659
21921W        W26221   9.349   7.376   5.546  0.0042  0.1764  0.0123
21922W        W26222   8.442   1.422  22.809 -0.0787 -0.0401 -0.0887
21923W        W26223   3.016   7.610   3.017 -0.0195 -0.1503 -0.1461
21924W        W26224  10.722   6.507  10.093 -0.2479 -0.2478 -0.1288
21925W        W26225  19.463   4.000  21.580  0.1771  0.0254 -0.0685
21926W        W26226  25.680   1.312  19.254  0.1946  0.1095  0.0954
21927W        W26227  13.744   0.931  24.491  0.1779  0.1403 -0.0460
21928W        W26228   3.755   2.420  15.513  0.1272  0.1428  0.1205
21929W        W26229  15.793   3.272  16.342  0.0570 -0.1832 -0.0946
21930W        W26230   0.440   2.484   3.467 -0.1787 -0.1502  0.0524
21931W        W26231   3.348   1.357  22.763  0.0118 -0.0223 -0.0619
21932W        W26232  23.986   3.560   7.708 -0.1188  0.0347  0.2281
21933W        W26233  15.196   2.666   9.383 -0.3443 -0.2387 -0.2710
21934W        W26234  10.394   2.423  15.681 -0.0886 -0.0957  0.0573
21935W        W26235   7.715   6.676  24.467  0.2289 -0.0020 -0.1466
21936W        W26236  15.573   6.656   2.312 -0.1030  0.0755 -0.0134
21937W        W26237  12.299   2.427  16.741  0.2955 -0.0710 -0.3143
21938W        W26238  23.698   0.628   6.697 -0.1915  0.2867  0.1478
21939W        W26239  26.258   2.663   1.725 -0.2422 -0.1428  0.1420
21940W        W26240  12.907   0.526  25.840 -0.0662 -0.2697 -0.3305
21941W        W26241  26.151   4.904  10.274 -0.0597 -0.1071 -0.2408
21942W        W26242  18.110   7.101   8.929  0.2581 -0.1775  0.0034
21943W        W26243  28.304   2.866   2.435  0.3944  0.1725  0.1990
21944W        W26244   0.031   3.383  10.896  0.1526  0.1027  0.0587
21945W        W26245  10.825   6.473  24.960  0.0874 -0.1456 -0.2460
21946W        W26246  14.587   3.517  15.475  0.1066  0.1358  0.0568
21947W        W26247  12.690   4.614   4.736 -0.1379  0.1382 -0.3235
21948W        W26248   3.024   7.058   5.302  0.1066  0.0415 -0.0387
21949W        W26249  10.315   4.575  18.214  0.2526 -0.1621  0.1642
21950W        W26250  28.574   0.760  19.416 -0.2026  0.2633 -0.0970
21951W        W26251  10.183   2.017   8.773 -0.2484  0.0471 -0.2642
21952W        W26252  18.646   0.954  18.050  0.0801  0.3696  0.1978
21953W        W26253  14.229   4.039   6.544  0.2406  0.2383  0.0603
21954W        W26254   5.500   7.560   0.702  0.2513  0.1901 -0.0147
21955W        W26255  13.015   2.802   2.071  0.0206 -0.1402  0.0371
21956W        W26256  27.424   2.699  21.266  0.3829  0.2089  0.0070
21957W        W26257  20.826   4.893  10.930 -0.1672 -0.2407  0.1526
21958W        W26258   5.876   6.796  18.606 -0.0745  0.2148 -0.2555
21959W        W26259  30.046   3.533  25.664  0.3194  0.0064 -0.1734
21960W        W26260   8.012   7.718   7.333  0.0861  0.0600 -0.0458
21961W        W26261  23.327   4.684  12.319  0.0105  0.1135  0.1447
21962W        W26262  12.242   3.420  22.349 -0.1310 -0.0003  0.1504
21963W        W26263   0.997   1.579  24.293  0.0002 -0.3833  0.2551
21964W        W26264  19.011   1.476  22.523  0.0620  0.2020  0.1398
21965W        W26265  27.616   3.611   8.460 -0.0393  0.1425 -0.1293
21966W        W26266  17.382   7.399  19.026  0.0699  0.2005  0.0968
21967W        W26267   8.271   1.392  21.748  0.1140 -0.3135  0.1624
21968W        W26268  14.419   4.700  22.628  0.2396  0.0964  0.3968
21969W        W26269  10.680   5.729  18.365  0.2757  0.2654 -0.1716
21970W        W26270  19.821   4.760   7.751  0.0074  0.2945 -0.0431
21971W        W26271  22.857   6.801   7.878 -0.0574 -0.1595 -0.1067
21972W        W26272   0.353   7.406   0.567  0.0991  0.2485  0.1339
21973W        W26273   9.192   2.408  10.820 -0.1888  0.3308 -0.2123
21974W        W26274   9.989   1.214  16.744  0.2384 -0.0692  0.2898
21975W        W26275  29.650   5.744  25.287  0.2839  0.1397 -0.1207
21976W        W26276  26.083   5.025  25.145  0.0350 -0.1431  0.2755
21977W        W26277   4.112   7.657  10.016  0.0741 -0.0695  0.1590
21978W        W26278   6.204   2.130  16.055  0.2627 -0.0110  0.2801
21979W        W26279  21.986   0.507   7.058  0.0209 -0.1487  0.2453
21980W        W26280  24.404   7.116  25.571  0.1368 -0.2142 -0.0480
21981W        W26281   1.779   6.735  23.165 -0.0014 -0.1768  0.1753
21982W        W26282  27.343   7.243  26.006  0.1441 -0.0862  0.0474
21983W        W26283  28.107   6.456  23.825  0.2089 -0.1286 -0.0960
21984W        W26284  21.220   6.390  10.118  0.3376  0.4579  0.0128
21985W        W26285  17.858   4.133   2.879  0.2411 -0.3106 -0.3146
21986W        W26286   2.811   1.292   1.314  0.0830  0.4673  0.0413
21987W        W26287  30.666   1.161   6.533 -0.3738  0.3653  0.1396
21988W        W26288  10.831   5.152  20.908  0.0364  0.0373 -0.3068
21989W        W26289   4.644   4.433  22.588 -0.0542  0.2134 -0.2927
21990W        W26290   4.398   1.275   7.585  0.0415 -0.0332  0.0881
21991W        W26291  29.418   0.736   2.350 -0.2560 -0.0744 -0.0187
21992W        W26292  28.018   1.535  21.320  0.1566  0.2991 -0.2106
21993W        W26293  27.281   5.420   5.867  0.0792 -0.0963  0.0506
21994W        W26294  19.563   2.238   8.752  0.1425  0.2377 -0.2474
21995W        W26295   6.110   2.188   9.453  0.1665  0.1209  0.0337
21996W        W26296   2.401   6.460  24.696  0.2343  0.0072  0.0794
21997W        W26297   9.217   1.500   9.722 -0.1189 -0.0583  0.1468
21998W        W26298  22.794   6.810  22.464 -0.1409  0.1855 -0.0957
21999W        W26299   0.287   5.255   1.761 -0.0647 -0.3737 -0.3041
22000W        W26300  11.271   4.201   6.922  0.0182  0.0698 -0.1537
22001W        W26301   7.086   2.263  25.144 -0.0373 -0.3194 -0.3344
22002W        W26302  22.462   6.061   1.045 -0.1919  0.0573 -0.3198
22003W        W26303  24.685   0.215   2.949 -0.2792  0.0975  0.3856
22004W        W26304  28.175   5.715   9.103  0.0171 -0.2221 -0.2145
22005W        W26305  21.766   5.095  23.998  0.3519 -0.0342  0.1759
22006W        W26306  15.295   1.164  17.640  0.2167 -0.1430 -0.0872
22007W        W26307   6.436   1.011  18.129  0.1232 -0.0839 -0.1532
22008W        W26308   9.749   3.307  23.697 -0.0346  0.3709 -0.0481
22009W        W26309  27.257   3.839   8.978  0.2417  0.0534 -0.1193
22010W        W26310  17.365   6.316   1.225 -0.0631  0.1619  0.1647
22011W        W26311   2.775   5.080  19.065 -0.2909  0.0990 -0.3419
22012W        W26312  28.423   7.441  23.936 -0.0080 -0.0702 -0.2386
22013W        W26313  18.610   2.339  22.727 -0.2411 -0.2957 -0.1571
22014W        W26314  17.366   4.739   0.884  0.4550  0.0029  0.0465
22015W        W26315  16.930   5.679   4.590  0.0293 -0.1113 -0.1001
22016W        W26316  25.842   4.989   1.272 -0.0976 -0.0089 -0.2168
22017W        W26317  19.743   3.455  15.996  0.0578  0.4633  0.0320
22018W        W26318  13.538   0.911  20.813  0.2986  0.1182 -0.1617
22019W        W26319  31.099   0.672  16.817 -0.1316 -0.0006  0.1698
22020W        W26320  24.944   3.655  25.585 -0.1839 -0.2518  0.0907
22021W        W26321  13.056   4.646   6.848 -0.1779  0.3767 -0.1018
22022W        W26322   9.000   7.448  18.166  0.0532  0.0947 -0.0824
22023W        W26323  12.081   4.702  24.626 -0.1757 -0.0104 -0.0843
22024W        W26324  14.110   1.536   9.938  0.0629 -0.0568 -0.1657
22025W        W26325  28.186   6.834  17.921 -0.0075 -0.1513 -0.1553
22026W        W26326  11.092   0.237   2.298  0.2274  0.1803  0.0024
22027W        W26327  27.564   5.240  25.242  0.1316  0.2261  0.1540
22028W        W26328  27.053   0.570   3.788 -0.0402  0.1368  0.1546
22029W        W26329  12.469   0.218  24.133  0.4265 -0.1184 -0.2224
22030W        W26330   4.504   6.724  26.200 -0.2156 -0.0613 -0.0963
22031W        W26331  23.692   1.547   5.028 -0.2138  0.1602 -0.2176
22032W        W26332   4.692   3.693  22.272 -0.0601 -0.1801  0.1190
22033W        W26333  13.085   3.625   7.174 -0.0981 -0.1044 -0.0277
22034W        W26334  26.619   2.837  17.460 -0.0821 -0.1345  0.3834
22035W        W26335   1.056   0.317  17.131  0.0407 -0.1336  0.1789
22036W        W26336  22.304   2.195  10.522 -0.3637 -0.0024 -0.1801
22037W        W26337  14.716   0.419  17.737 -0.2220  0.2227 -0.1232
22038W        W26338   5.333   0.885   2.716  0.1804 -0.0033 -0.1653
22039W        W26339  22.467   6.294   0.388  0.1113 -0.1977  0.2489
22040W        W26340  25.237   3.670   3.862  0.0589 -0.0410 -0.1330
22041W        W26341   3.278   3.804  22.440  0.0595  0.0266 -0.1349
22042W        W26342  21.199   1.174  10.746 -0.0985  0.1159  0.2224
22043W        W26343   8.602   0.222  17.242  0.2341  0.0311  0.1576
22044W        W26344   8.530   1.034  18.669  0.1136  0.0900  0.1208
22045W        W26345  26.858   7.706  21.330 -0.1840 -0.1956  0.2563
22046W        W26346   6.615   7.754   0.651  0.0186  0.0519 -0.0909
22047W        W26347   4.096   0.383   9.994  0.2115  0.2155  0.2020
22048W        W26348  15.193   7.740   5.968  0.1791 -0.1520 -0.0255
22049W        W26349  30.184   2.508   9.577 -0.0604 -0.0246  0.2418
22050W        W26350  22.188   5.960  15.995  0.2589 -0.0032  0.1826
22051W        W26351  18.730   0.587   4.156 -0.1394 -0.2130  0.0708
22052W        W26352   9.914   6.325   9.673  0.0689  0.2099 -0.2225
22053W        W26353   4.281   5.654   9.418 -0.0584 -0.0154 -0.1834
22054W        W26354  14.115   3.648  22.623 -0.0837 -0.0185 -0.2015
22055W        W26355  22.824   0.513  21.354  0.3412  0.1242 -0.0397
22056W        W26356  23.309   5.955  23.663 -0.0112 -0.3942  0.1373
22057W        W26357   3.664   3.235   1.723 -0.0165  0.0786  0.1010
22058W        W26358   0.015   1.739   5.785 -0.1053  0.2464  0.0598
22059W        W26359   5.844   4.983   4.703 -0.2373 -0.1883 -0.1271
22060W        W26360  28.295   5.069  26.393 -0.1216  0.3054  0.0838
22061W        W26361  19.734   1.185  19.255  0.0766  0.3023  0.1138
22062W        W26362  19.602   1.570  19.546 -0.0765  0.1101  0.1858
22063W        W26363   2.778   4.659  20.370  0.2185 -0.2113 -0.1116
22064W        W26364  12.545   7.020  24.369  0.0671  0.0461 -0.2086
22065W        W26365  26.488   1.438  25.206 -0.0071  0.1209 -0.0376
22066W        W26366  27.356   7.109  20.933  0.0297 -0.0574  0.1382
22067W        W26367  10.003   4.724  22.331  0.2299 -0.1471  0.2119
22068W        W26368   1.728   3.113   8.170 -0.4813  0.0719 -0.2793
22069W        W26369   6.935   6.856   1.822 -0.1874  0.1127 -0.0803
22070W        W26370   8.536   3.402  16.230  0.1831 -0.2800 -0.2025
22071W        W26371  19.707   3.990   8.909  0.0092 -0.0546 -0.0635
22072W        W26372   7.708   1.943  19.659 -0.2288  0.0059  0.0121
22073W        W26373  29.068   6.661  10.778 -0.0384  0.1693 -0.0639
22074W        W26374   3.432   3.466  22.068 -0.1274  0.2754  0.0039
22075W        W26375  27.373   0.956  19.183  0.2020  0.1988  0.0744
22076W        W26376  21.802   2.606   7.435  0.0977  0.0362 -0.2058
22077W        W26377  19.873   6.827  20.745  0.0346  0.1120  0.1476
22078W        W26378   1.973   4.336  21.835  0.1863  0.1892 -0.2472
22079W        W26379  16.007   2.178   1.779  0.2132 -0.1355 -0.1338
22080W        W26380  24.846   2.318   9.237 -0.0135 -0.1923  0.2712
22081W        W26381  25.731   0.201  22.095  0.0623 -0.0344  0.0182
22082W        W26382   0.754   5.635  26.009  0.1576 -0.3050  0.2062
22083W        W26383  25.473   7.211   2.352  0.3514  0.0750  0.1377
22084W        W26384   9.588   0.735   5.159 -0.0760  0.0718  0.1274
22085W        W26385   5.391   6.966  25.229 -0.0289  0.0829  0.2306
22086W        W26386  10.355   6.045  23.546 -0.1413 -0.0813 -0.3067
22087W        W26387  27.497   4.167  21.846 -0.1384  0.1122 -0.0032
22088W        W26388  22.342   1.331  17.413  0.2486 -0.0687  0.3530
22089W        W26389  19.858   7.485  19.969 -0.1885  0.1393 -0.3394
22090W        W26390  18.507   1.387  23.910  0.0478  0.0913 -0.1405
22091W        W26391  31.055   2.316  16.154 -0.0943 -0.1258  0.1282
22092W        W26392   6.844   4.504   6.911  0.0984  0.0918  0.0674
22093W        W26393   8.709   0.085  16.013 -0.1272 -0.0052  0.0107
22094W        W26394   4.019   3.035  22.650 -0.2355 -0.1336 -0.0762
22095W        W26395   5.204   7.117   1.753 -0.1103  0.2966  0.0765
22096W        W26396  25.673   1.624   2.311  0.2314 -0.0024 -0.1660
22097W        W26397  25.406   3.943  23.362 -0.2682  0.0041  0.1545
22098W        W26398  14.290   5.561   2.178 -0.0404  0.1928  0.0327
22099W        W26399   9.873   5.850  19.015 -0.1377 -0.1063  0.0767
22100W        W26400  20.541   5.731   3.832 -0.0491  0.1229  0.2459
22101W        W26401  20.859   7.166  22.171 -0.0469  0.0252 -0.1033
22102W        W26402  17.098   0.757  17.420 -0.2366  0.1170  0.0053
22103W        W26403   1.359   7.614   6.569  0.2588 -0.2798 -0.2130
22104W        W26404  16.184   5.443   0.932 -0.1831 -0.0215  0.3264
22105W        W26405  28.096   4.193  21.437  0.2142 -0.0052 -0.1658
22106W        W26406  29.609   1.506   9.787 -0.1846 -0.0917  0.0037
22107W        W26407  25.942   4.510  21.284  0.1013  0.0562 -0.2284
22108W        W26408   0.673   1.957  24.737 -0.1655 -0.0316  0.3395
22109W        W26409  15.015   5.863   7.604 -0.0349 -0.2829 -0.1808
22110W        W26410   6.294   4.484  26.215 -0.1264  0.2117  0.1961
22111W        W26411  21.813   3.352   1.274 -0.0616 -0.1399 -0.0092
22112W        W26412   2.954   4.154  10.345 -0.1800  0.0163 -0.0343
22113W        W26413   2.153   4.041  17.324 -0.1844 -0.2032 -0.0286
22114W        W26414   1.447   0.133  20.396  0.2439 -0.0004 -0.0041
22115W        W26415  12.107   1.584  15.722  0.0695 -0.1461  0.0173
22116W        W26416   5.138   0.370  19.058  0.0303  0.1693 -0.0234
22117W        W26417   2.230   0.409  10.464  0.0272 -0.4118  0.0331
22118W        W26418  24.237   2.062   0.841 -0.3690 -0.0952  0.1242
22119W        W26419   1.921   6.883  16.064  0.1108  0.0832  0.2824
22120W        W26420   9.551   2.744  25.416 -0.0264 -0.0794 -0.1710
22121W        W26421   3.562   0.661  19.601 -0.0832 -0.0864  0.1371
22122W        W26422  15.366   5.807  24.844  0.2390 -0.1222 -0.1899
22123W        W26423  15.908   1.557   7.993  0.3039 -0.1786 -0.0180
22124W        W26424  17.181   0.338   5.796 -0.0208 -0.2083 -0.1130
22125W        W26425   8.669   6.736   9.206 -0.0626  0.0612 -0.2583
22126W        W26426  17.746   6.425  19.304  0.1734 -0.0456  0.0638
22127W        W26427  27.796   2.864  10.940 -0.3208  0.0596  0.0954
22128W        W26428  17.965   1.420   1.614 -0.0655 -0.0672  0.1894
22129W        W26429  24.558   6.768  10.429  0.0732 -0.0024  0.0436
22130W        W26430  22.014   6.897  24.041 -0.1607  0.2644 -0.3954
22131W        W26431  19.056   7.673  19.386 -0.2002  0.2051 -0.0787
22132W        W26432  16.763   4.436  21.398  0.1684  0.0163  0.2359
22133W        W26433  29.953   5.885   8.140 -0.4312  0.1819 -0.1830
22134W        W26434  27.629   5.575   3.298 -0.0817 -0.0442  0.2080
22135W        W26435  13.150   1.423  21.672 -0.1727 -0.0812 -0.2233
22136W        W26436   5.868   0.328  16.618 -0.3309 -0.1893  0.2090
22137W        W26437  28.753   0.426  15.011  0.0945  0.1200 -0.1546
22138W        W26438  19.985   3.195   4.093 -0.0113  0.1496  0.2752
22139W        W26439   6.666   5.535  24.036  0.1497  0.3405  0.3097
22140W        W26440  15.256   3.021   0.589 -0.0287 -0.0320  0.1341
22141W        W26441   5.764   6.234  20.493  0.1556  0.1104  0.1653
22142W        W26442  16.161   4.882  23.931  0.3777 -0.1399 -0.1179
22143W        W26443   8.261   5.892  26.020  0.2678 -0.1065  0.0904
22144W        W26444  25.110   6.400   0.959  0.2866  0.3596  0.4371
22145W        W26445  22.846   0.918   1.284  0.0691  0.1768  0.1354
22146W        W26446  28.461   5.430  24.691  0.0623 -0.1832  0.0128
22147W        W26447  14.998   6.033  25.812  0.0547  0.1326  0.0350
22148W        W26448   4.406   7.658   0.700 -0.0265 -0.1773 -0.2697
22149W        W26449  15.445   6.488   2.763 -0.1314  0.0971  0.0550
22150W        W26450   5.773   2.157  22.198  0.0107  0.1081 -0.0641
22151W        W26451   7.596   4.216   2.974 -0.2229 -0.0184  0.1449
22152W        W26452  28.604   5.218   1.082  0.0197 -0.0978 -0.0041
22153W        W26453  25.002   7.546   0.309 -0.1068  0.0135 -0.0943
22154W        W26454   7.044   7.617   2.833  0.0446 -0.0051 -0.0406
22155W        W26455  10.959   1.679   3.976 -0.0494 -0.2650 -0.0218
22156W        W26456   0.615   4.081   6.163 -0.2194  0.0648  0.0132
22157W        W26457  15.182   5.254  22.334  0.1403  0.2497  0.1268
22158W        W26458   0.551   7.645  25.387 -0.1871  0.0552  0.1540
22159W        W26459  14.390   7.057  15.353  0.1088  0.1711  0.0631
22160W        W26460  11.203   3.416   2.239 -0.0486 -0.2052 -0.2838
22161W        W26461   8.155   3.104  23.904 -0.2041 -0.1596 -0.1050
22162W        W26462  16.642   3.068  26.188  0.1407 -0.1109 -0.0170
22163W        W26463  18.929   1.734  21.669 -0.0252  0.1312 -0.1666
22164W        W26464  27.797   6.868  15.969 -0.1086  0.0486  0.1636
22165W        W26465  27.927   5.847  22.930 -0.0668  0.1648 -0.1026
22166W        W26466  21.578   3.185  10.355 -0.0574  0.1104  0.3019
22167W        W26467  18.136   3.749  21.011  0.1771 -0.1434  0.0760
22168W        W26468   2.265   7.066  20.723  0.3121  0.0774  0.1356
22169W        W26469   7.494   2.864  22.478 -0.1835  0.0689 -0.0457
22170W        W26470   1.614   1.078   9.899  0.1506  0.0926 -0.1434
22171W        W26471   5.279   0.463  21.014  0.1332  0.0910  0.2034
22172W        W26472  11.163   4.997  10.972  0.2275  0.3215  0.2238
22173W        W26473  17.553   6.663  24.820  0.1139  0.2841  0.1958
22174W        W26474  12.039   6.222   1.636  0.2465  0.4201  0.1000
22175W        W26475  14.555   3.071  20.612 -0.0154 -0.1213 -0.1576
22176W        W26476  19.287   7.587   7.616 -0.1898  0.1421  0.0131
22177W        W26477  13.471   6.411   7.791  0.4549 -0.1570  0.1484
22178W        W26478  16.244   1.081   1.881  0.0362  0.4311  0.2430
22179W        W26479  25.450   4.345   1.741 -0.0885 -0.1056 -0.0885
22180W        W26480  23.365   1.084   9.157  0.3085  0.0563 -0.1067
22181W        W26481  19.277   7.180   2.448  0.4937  0.3786 -0.1547
22182W        W26482  17.376   3.703  15.385 -0.1362  0.0357 -0.0769
22183W        W26483  20.489   6.620   6.963 -0.1700 -0.2178  0.1280
22184W        W26484  22.779   0.003  22.779 -0.2563 -0.0928  0.0700
22185W        W26485  10.088   4.654   3.379 -0.0828  0.0510 -0.2640
22186W        W26486   3.959   0.952  10.426 -0.0127 -0.0919 -0.0862
22187W        W26487  22.312   4.134   0.702  0.1065  0.0408 -0.1091
22188W        W26488   0.060   6.301   1.894  0.0662  0.0293 -0.0508
22189W        W26489  13.883   2.400   7.402 -0.0919  0.1037 -0.3440
22190W        W26490  11.708   7.682  23.702  0.2197 -0.0516 -0.0520
22191W        W26491  10.231   5.849   8.397  0.0929 -0.3938 -0.1945
22192W        W26492  17.403   4.118   3.028  0.0026 -0.0829 -0.0371
22193W        W26493  28.322   5.977   5.755 -0.2383 -0.0399 -0.0179
22194W        W26494  22.615   1.213  26.347 -0.4778 -0.0866  0.0826
22195W        W26495  24.501   2.411  19.450  0.0808  0.2247 -0.0413
22196W        W26496  21.240   0.705   2.049 -0.1621 -0.0259  0.0724
22197W        W26497  22.624   0.893   8.168  0.0789  0.1769 -0.2199
22198W        W26498   3.837   0.353  21.823  0.2488 -0.2646  0.0699
22199W        W26499  18.489   5.817  10.288  0.2389 -0.2138 -0.2429
22200W        W26500  17.842   7.510   0.395  0.1022 -0.1917 -0.4234
22201W        W26501   6.272   1.626  25.431  0.0845  0.0941 -0.2219
22202W        W26502  16.148   5.106  25.361  0.0098  0.3329 -0.1003
22203W        W26503  13.220   5.339   2.590 -0.0882  0.2645 -0.2135
22204W        W26504   3.344   5.713  22.467  0.0847 -0.1235 -0.0281
22205W        W26505  17.289   7.535   3.410  0.0524  0.2906  0.0187
22206W        W26506  16.883   7.639   0.798  0.1571  0.0590  0.2845
22207W        W26507  23.426   4.348  16.048  0.1001 -0.0675  0.0442
22208W        W26508  29.374   2.646   8.220  0.2197 -0.0200 -0.1567
22209W        W26509   5.741   7.162  17.363 -0.0091 -0.0741 -0.0241
22210W        W26510   3.381   2.672   9.653  0.3350  0.3007  0.0790
22211W        W26511  30.494   0.569  23.426 -0.2002 -0.0200  0.2109
22212W        W26512  24.345   4.011   3.681 -0.0253  0.0433  0.2139
22213W        W26513  11.697   0.483  21.095 -0.4113 -0.0046  0.0594
22214W        W26514   0.957   3.819  10.014  0.1536  0.1775 -0.0515
22215W        W26515  23.436   0.775  10.780 -0.0852 -0.1010  0.1709
22216W        W26516  24.234   3.979  11.208  0.0314 -0.0651  0.0614
22217W        W26517  16.340   4.367  19.133 -0.0494  0.1520  0.1495
22218W        W26518   6.026   1.385  16.617  0.1447 -0.0881  0.3314
22219W        W26519  29.489   0.195   3.065  0.0920 -0.0762  0.1330
22220W        W26520   8.126   4.084  18.805  0.0596  0.1035 -0.0320
22221W        W26521  22.687   5.514  18.327 -0.0144  0.0864  0.2429
22222W        W26522  25.917   1.685   1.569  0.2402  0.2126 -0.1387
22223W        W26523   7.252   3.227   9.848 -0.0063 -0.2957 -0.0600
22224W        W26524   5.340   7.421   7.005 -0.2598 -0.1786 -0.0917
22225W        W26525  26.887   3.725  24.814  0.0135 -0.1134 -0.2508
22226W        W26526  23.650   0.464   2.827  0.0664 -0.0867  0.0350
22227W        W26527  17.377   5.471   3.403 -0.0613  0.0394 -0.2114
22228W        W26528   3.919   5.765   4.510 -0.0431  0.1126 -0.1756
22229W        W26529  21.037   5.827  23.961 -0.2693  0.1776 -0.1715
22230W        W26530  26.587   7.495   3.671  0.0561 -0.0603  0.0659
22231W        W26531   9.982   5.688  21.736 -0.1827 -0.0224 -0.1642
22232W        W26532   1.466   5.701   6.629 -0.2233  0.0373 -0.1075
22233W        W26533  26.630   0.580  20.824 -0.4099  0.0900 -0.0425
22234W        W26534  21.383   2.662  21.162  0.1678 -0.2086  0.1752
22235W        W26535   9.747   0.768   1.537  0.1001 -0.0800 -0.0591
22236W        W26536  14.756   5.187   7.256  0.3217 -0.0833 -0.1368
22237W        W26537  28.670   2.825   0.657 -0.0937  0.0176  0.0076
22238W        W26538   8.754   4.901  25.991 -0.1025 -0.0696 -0.2009
22239W        W26539  15.240   5.681   7.203 -0.0556  0.2646 -0.0088
22240W        W26540   2.750   2.716  20.380 -0.0941 -0.1255  0.0672
22241W        W26541  15.170   5.902  18.441 -0.2909  0.0567 -0.1311
22242W        W26542   1.132   1.028  19.474  0.1332 -0.3183  0.1636
22243W        W26543  30.066   0.493   1.716  0.0781 -0.0592 -0.0430
22244W        W26544  17.614   2.442  19.948  0.0579  0.2916 -0.0546
22245W        W26545   4.111   0.810   6.391 -0.1781 -0.2282  0.1143
22246W        W26546  15.037   1.738   5.554 -0.0966 -0.0566 -0.1065
22247W        W26547  18.594   6.551   1.614 -0.0477 -0.0971 -0.2891
22248W        W26548   2.651   4.518   3.515 -0.2756 -0.1235  0.0091
22249W        W26549  21.499   1.525  19.634  0.0334 -0.1091  0.0546
22250W        W26550   6.605   3.342  17.928  0.2476  0.1210 -0.0196
22251W        W26551  13.920   0.964   1.474 -0.1952 -0.0128 -0.0180
22252W        W26552  11.797   5.171   2.985  0.1832 -0.1563  0.2480
22253W        W26553  27.973   1.086   8.992  0.0523 -0.0065  0.0770
22254W        W26554   2.948   1.769  10.289  0.0556 -0.1053 -0.2050
22255W        W26555   9.887   6.841  18.366 -0.0645 -0.0934 -0.1321
22256W        W26556  30.720   7.776  16.051 -0.1156  0.0227  0.1711
22257W        W26557  29.245   5.981  18.303  0.0786  0.1044 -0.0057
22258W        W26558  20.183   4.083   1.090  0.1586  0.1030 -0.1618
22259W        W26559  22.073   1.740   3.751  0.3909  0.1070  0.2447
22260W        W26560   7.229   5.110  10.373  0.2515  0.2012 -0.0835
22261W        W26561  25.436   1.684   9.885 -0.1333  0.1017  0.1412
22262W        W26562  19.125   3.856   9.880  0.0517 -0.0176 -0.1458
22263W        W26563   6.316   4.138  25.420  0.0565  0.2008 -0.0242
22264W        W26564  10.332   4.768   9.093 -0.0743  0.0861  0.1690
22265W        W26565  15.761   7.171   7.610  0.2673  0.0687  0.1364
22266W        W26566   9.968   7.182   6.976 -0.0845 -0.2534  0.1291
22267W        W26567  16.473   3.465  19.867 -0.2595  0.1902  0.1241
22268W        W26568  19.079   7.378  17.780  0.0318 -0.0921  0.0060
22269W        W26569  26.460   1.170  20.257 -0.1914 -0.2163 -0.2469
22270W        W26570   6.086   7.169   9.930  0.0376  0.1101  0.1218
22271W        W26571   0.688   7.502   1.328  0.0773  0.0700 -0.0504
22272W        W26572  21.739   7.324  25.889  0.0550  0.2515 -0.2350
22273W        W26573  12.145   5.831  24.810  0.0760 -0.0518 -0.2781
22274W        W26574   9.405   7.184  17.765  0.0154  0.2148 -0.2126
22275W        W26575  21.843   5.810   2.232 -0.0327 -0.0362 -0.1328
22276W        W26576  29.419   5.962  20.793  0.0719  0.2656  0.0199
22277W        W26577  28.241   6.280   6.229 -0.4554  0.2880  0.4524
22278W        W26578   3.773   4.456  17.971 -0.0995 -0.0015 -0.1133
22279W        W26579  28.608   7.029   5.560  0.0084  0.1013  0.1604
22280W        W26580  14.093   5.310   2.965  0.1312 -0.2079  0.2617
22281W        W26581  30.950   3.825  20.741 -0.2026  0.0649 -0.2045
22282W        W26582  26.967   0.845   4.293  0.1117 -0.0915 -0.1367
22283W        W26583   9.652   5.304  24.210  0.0692  0.0495  0.0531
22284W        W26584  28.512   6.045  17.774  0.2676 -0.3867  0.1060
22285W        W26585  30.366   0.125  24.171 -0.0226 -0.0382 -0.3453
22286W        W26586  23.799   5.351  17.160 -0.2498 -0.0227  0.1299
22287W        W26587   3.717   0.288  19.272 -0.0061  0.0752 -0.1230
22288W        W26588  11.527   1.744  22.500 -0.2716  0.2641 -0.2073
22289W        W26589  17.108   6.926   6.735  0.0085 -0.1171  0.0195
22290W        W26590   3.412   4.079   4.428  0.0424 -0.0152 -0.0641
22291W        W26591  18.555   6.483   6.613  0.3402 -0.1731  0.0645
22292W        W26592  30.005   1.016   6.228 -0.0338 -0.0776 -0.2057
22293W        W26593  14.293   4.110   7.092  0.1192 -0.2011 -0.2207
22294W        W26594   2.788   4.940  15.773  0.1247 -0.1296  0.1613
22295W        W26595  25.304   0.166  21.813 -0.0513 -0.0400  0.2656
22296W        W26596  26.931   5.163  24.060  0.1388 -0.3572 -0.0673
22297W        W26597  20.141   0.499  20.707  0.0158 -0.1112 -0.1192
22298W        W26598  28.576   3.910   2.074  0.0170  0.0859  0.2444
22299W        W26599  16.240   2.499  17.563 -0.1255 -0.0663 -0.0424
22300W        W26600  17.836   4.693  16.942 -0.0005 -0.2804 -0.2109
22301W        W26601  21.078   1.887  10.791 -0.0273  0.0644 -0.2242
22302W        W26602   9.131   0.803  10.242  0.0161 -0.1524  0.1044
22303W        W26603  17.106   5.894  21.764 -0.1091 -0.1648  0.2070
22304W        W26604  22.835   4.865  25.579  0.0552 -0.1792 -0.2118
22305W        W26605   2.599   4.147  21.497  0.1039 -0.3838  0.1014
22306W        W26606  18.124   0.408  18.714 -0.0595  0.3725 -0.3312
22307W        W26607  30.711   2.264  25.841  0.1052  0.1245  0.1144
22308W        W26608   4.055   6.958  26.337 -0.0105  0.4409  0.1410
22309W        W26609   8.485   6.890  19.587  0.2064  0.0665  0.1510
22310W        W26610   8.688   6.729   0.030  0.2986 -0.0271  0.0227
22311W        W26611   2.949   5.915   3.033  0.1079  0.0222 -0.2474
22312W        W26612   0.005   1.037   4.548 -0.0783  0.1546  0.2327
22313W        W26613  30.369   6.931  18.206 -0.1390  0.0223  0.1126
22314W        W26614  27.344   7.754   2.976  0.3042  0.3367 -0.0861
22315W        W26615   0.576   1.060  21.561 -0.1635  0.0191  0.3457
22316W        W26616  28.518   5.829  11.630 -0.3216  0.0692  0.0404
22317W        W26617   1.599   3.823   4.565 -0.1717  0.0456  0.1256
22318W        W26618  28.195   1.945  21.578 -0.3538 -0.1543  0.2271
22319W        W26619   7.197   1.152   3.921 -0.0853 -0.0496 -0.0196
22320W        W26620   8.517   1.521   7.256 -0.0342 -0.1326  0.2039
22321W        W26621   5.531   3.085  23.903  0.2178 -0.1249  0.0449
22322W        W26622   3.914   6.475  20.816  0.0001  0.1954  0.5014
22323W        W26623  19.343   6.329  24.625  0.5189  0.1613  0.3304
22324W        W26624  30.281   0.030   1.798  0.1323 -0.0220  0.1146
22325W        W26625  22.755   0.304   0.311 -0.1178  0.0458 -0.3096
22326W        W26626  22.972   3.274   1.567  0.1478  0.1868 -0.1630
22327W        W26627   5.006   0.294  17.343 -0.3439  0.1314  0.1806
22328W        W26628  23.685   2.944   1.922  0.1520  0.1543  0.1186
22329W        W26629   3.615   6.485  20.077  0.0954  0.3079 -0.1133
22330W        W26630   2.015   0.532  16.582 -0.0461  0.0261 -0.1375
22331W        W26631  29.057   5.646   5.011 -0.0371  0.2525  0.1563
22332W        W26632  23.176   4.660   5.451  0.2926  0.0246  0.3422
22333W        W26633  10.087   5.993  10.555  0.1214 -0.0703  0.1384
22334W        W26634  15.341   0.236  25.328  0.0418 -0.0059  0.0075
22335W        W26635   0.492   0.138   2.502  0.0159  0.0499 -0.2966
22336W        W26636  30.715   2.231   7.469 -0.1952  0.1208 -0.1000
22337W        W26637  23.415   6.361  21.926 -0.3450  0.1207  0.3097
22338W        W26638   8.868   4.547  19.930  0.0163  0.0125  0.1241
22339W        W26639  29.555   3.666   5.699 -0.3774  0.1883 -0.4333
22340W        W26640  24.503   1.903  15.805  0.0891  0.0911 -0.0673
22341W        W26641  12.901   0.189  26.273  0.1172 -0.1863  0.0249
22342W        W26642   7.162   1.585  25.934 -0.5137 -0.0035 -0.1869
22343W        W26643   8.748   6.048  22.877  0.2998 -0.1893  0.1246
22344W        W26644   3.410   2.686  17.799  0.2506  0.3687 -0.0212
22345W        W26645  20.950   3.733  20.872 -0.0387  0.2386  0.2468
22346W        W26646   3.926   0.059   4.705  0.0575 -0.1018  0.3773
22347W        W26647  30.049   0.377  22.711  0.0231 -0.1884 -0.1104
22348W        W26648  16.914   2.923   6.267 -0.0638  0.0513  0.0340
22349W        W26649   1.773   2.054   6.168  0.0144 -0.1019 -0.2001
22350W        W26650  11.609   1.294  23.059  0.2483 -0.1728  0.1437
22351W        W26651   2.529   5.954  19.342 -0.2497 -0.1762  0.2319
22352W        W26652  27.546   5.979  20.362  0.3191  0.1206 -0.0717
22353W        W26653  19.700   5.000  19.057 -0.0894 -0.1488 -0.0188
22354W        W26654   1.728   5.251   1.838  0.1857 -0.2528  0.1964
22355W        W26655   2.740   5.164  21.902  0.1473  0.0274 -0.1697
22356W        W26656  14.426   7.712  19.863 -0.0314 -0.2389  0.0409
22357W        W26657  10.892   2.816   4.290 -0.0120 -0.0278  0.1174
22358W        W26658  11.577   7.048   6.114  0.1076  0.0260 -0.3291
22359W        W26659   9.664   2.110  17.011 -0.0524 -0.0882 -0.0021
22360W        W26660  17.024   6.052  19.935  0.1443 -0.3192  0.0720
22361W        W26661  30.511   0.272  19.204  0.2121  0.3629 -0.2341
22362W        W26662   7.336   0.973  25.803 -0.1443  0.3109 -0.3370
22363W        W26663   4.851   5.287  18.681 -0.2938 -0.0710  0.0587
22364W        W26664  29.608   0.176  25.267 -0.1348 -0.1263 -0.1168
22365W        W26665  19.375   0.610  24.581  0.2407  0.0228 -0.1417
22366W        W26666  13.584   2.621  18.676  0.0672  0.0363 -0.2101
22367W        W26667  21.002   7.321   0.987 -0.2289  0.2004 -0.2747
22368W        W26668  30.747   0.625  25.942 -0.1121  0.0445 -0.2749
22369W        W26669  24.778   1.382  22.100 -0.0294  0.1290 -0.0095
22370W        W26670  26.784   7.350  21.689  0.0185 -0.1673  0.0301
22371W        W26671  25.305   2.978  24.559 -0.0117 -0.0087  0.2068
22372W        W26672  21.088   6.930   8.853 -0.1017 -0.1163 -0.1819
22373W        W26673  23.623   7.611   4.885 -0.1017  0.0895 -0.4081
22374W        W26674  25.697   7.199   4.067  0.1566  0.1421  0.1931
22375W        W26675   9.788   5.339  26.035 -0.1343  0.1520 -0.2053
22376W        W26676   0.301   7.409   9.039  0.4462 -0.3475  0.1522
22377W        W26677  12.224   4.137  22.823  0.0430  0.1123  0.1441
22378W        W26678  13.055   7.336   7.298  0.4618  0.1214 -0.0315
22379W        W26679  28.762   5.613  10.325 -0.1163 -0.1571 -0.2214
22380W        W26680  25.773   2.416   6.808 -0.0112  0.0967 -0.1365
22381W        W26681   1.579   0.602  20.670 -0.3452 -0.3217  0.0662
22382W        W26682  15.065   3.837   7.542 -0.1595  0.3518  0.1777
22383W        W26683  24.254   6.919  16.478 -0.1568  0.1772  0.1089
22384W        W26684  24.862   4.451   1.143  0.0577  0.0692 -0.0628
22385W        W26685  25.302   2.012   6.059  0.0880  0.2452  0.0099
22386W        W26686  23.829   2.119   7.584 -0.1318 -0.3124  0.1261
22387W        W26687   5.950   7.377   6.729 -0.0855  0.2456  0.2099
22388W        W26688  23.857   4.800   3.996 -0.1066 -0.2117  0.0082
22389W        W26689  21.618   1.764   7.761  0.1747  0.1509 -0.1326
22390W        W26690  19.223   0.226  24.166 -0.2155 -0.1155  0.0515
22391W        W26691  10.115   3.753  23.273 -0.1083 -0.1422 -0.2057
22392W        W26692  13.573   5.875  24.591  0.0972  0.2035 -0.0719
22393W        W26693  18.845   7.391   7.782  0.1760  0.0187 -0.3147
22394W        W26694  26.265   3.510   1.090  0.1397  0.0557  0.2068
22395W        W26695  25.225   6.912   6.851  0.3297  0.2548 -0.2083
22396W        W26696   4.412   6.642  24.335  0.0733  0.0143  0.1317
22397W        W26697  26.148   7.724   3.431 -0.1478  0.1638  0.3951
22398W        W26698   7.470   7.786   6.543 -0.0740  0.1516  0.0286
22399W        W26699  27.041   1.534   9.401 -0.4125 -0.0512  0.0600
22400W        W26700   4.007   4.307  23.797 -0.2157  0.2010  0.1095
22401W        W26701  17.205   7.255  16.367 -0.0237 -0.1097  0.5852
22402W        W26702  15.149   0.362   5.618 -0.0744  0.1371  0.4495
22403W        W26703  24.715   6.314  22.562  0.0226  0.3381 -0.1615
22404W        W26704  10.733   0.428  21.928  0.1360  0.2272  0.0094
22405W        W26705  19.135   3.430  24.728 -0.3043  0.2567 -0.1509
22406W        W26706   1.882   0.890   9.566 -0.0851 -0.1552  0.2272
22407W        W26707  16.485   4.731  23.547  0.0865 -0.1966  0.3609
22408W        W26708  30.241   7.613  18.269 -0.3239 -0.1395  0.0887
22409W        W26709  16.599   1.000  25.584 -0.1264 -0.1632 -0.1038
22410W        W26710  13.058   6.169   0.133  0.2255 -0.0189 -0.1061
22411W        W26711  10.831   6.162   7.843 -0.0700  0.1500 -0.0451
22412W        W26712  25.695   2.817  22.504 -0.1029 -0.3553  0.0186
22413W        W26713   8.756   1.263  22.307  0.2161  0.2834  0.1740
22414W        W26714   1.485   1.425   0.941  0.1168  0.3089  0.0136
22415W        W26715   7.516   6.519  22.235 -0.0085  0.1130  0.0250
22416W        W26716  16.774   5.809   5.620 -0.2092  0.0094  0.6095
22417W        W26717  25.154   6.073   2.134 -0.0699 -0.0984  0.0602
22418W        W26718   0.487   0.940   6.621  0.0672 -0.0473  0.3697
22419W        W26719  29.643   5.680   6.197 -0.0542  0.1866  0.0679
22420W        W26720   4.736   4.932  26.128 -0.2379  0.1720  0.0418
22421W        W26721  28.185   6.639  25.785 -0.0303 -0.1467  0.2158
22422W        W26722  23.628   6.298  17.848  0.2057  0.0724  0.2853
22423W        W26723  21.670   6.800  25.414 -0.0352  0.1323  0.0927
22424W        W26724   2.217   6.359   3.653  0.0473  0.1391  0.1251
22425W        W26725  10.437   7.689  18.460  0.1141 -0.0595 -0.2650
22426W        W26726  16.282   4.219  18.555  0.1318 -0.1202 -0.0389
22427W        W26727  18.927   0.732  19.134 -0.1016  0.3771 -0.2061
22428W        W26728  28.077   4.311   0.052 -0.0327  0.1651  0.1471
22429W        W26729  12.376   1.976  10.489  0.0292  0.0811 -0.2276
22430W        W26730   6.015   6.088  15.856 -0.3024 -0.0932  0.3485
22431W        W26731  11.672   6.324   1.324  0.0955 -0.1613  0.0714
22432W        W26732  12.028   3.726  21.950  0.0733 -0.1732 -0.0074
22433W        W26733  16.025   5.127   9.313 -0.1350  0.0585  0.0689
22434W        W26734  27.299   7.442   4.334 -0.0202 -0.2803 -0.3491
22435W        W26735  12.909   4.582   3.473  0.3356  0.0032 -0.0176
22436W        W26736   0.036   0.335   6.333  0.1441  0.1185 -0.3777
22437W        W26737  30.412   5.468  20.638 -0.2708  0.2270 -0.2216
22438W        W26738  21.503   5.204   1.249  0.1676  0.2062 -0.1235
22439W        W26739  14.648   5.416   0.704  0.1870  0.1329 -0.1922
22440W        W26740   2.880   0.892  16.704  0.0007 -0.0145  0.1067
22441W        W26741  15.336   3.956  15.828  0.0689 -0.1893  0.0859
22442W        W26742  17.905   1.526  20.256 -0.1322  0.1139 -0.0944
22443W        W26743  21.413   0.247  20.055 -0.0974 -0.1223  0.0497
22444W        W26744  23.014   0.590  24.967  0.1309  0.1466  0.3860
22445W        W26745   5.782   5.554   4.040 -0.1131  0.2078 -0.2412
22446W        W26746   9.177   2.334   3.438 -0.2138 -0.0014  0.4204
22447W        W26747   3.220   4.710  16.549  0.2069 -0.1020  0.0158
22448W        W26748  16.124   5.995   9.119  0.0185 -0.0590  0.0229
22449W        W26749   9.892   1.519  24.628  0.1973 -0.0421  0.2351
22450W        W26750  25.515   0.458   5.870  0.0896 -0.1614  0.2968
22451W        W26751   2.510   1.274   9.563  0.2199 -0.2278 -0.0118
22452W        W26752  22.107   3.795   5.803 -0.0006  0.1748  0.0315
22453W        W26753  17.910   5.186  10.047  0.3285  0.1758  0.0142
22454W        W26754  12.678   7.478   6.997 -0.1105 -0.1974  0.0787
22455W        W26755   1.829   3.540  17.988 -0.2595  0.1140 -0.2258
22456W        W26756  28.938   4.167  25.007 -0.1974 -0.2344 -0.0729
22457W        W26757  20.070   4.445  20.330  0.1097  0.1408  0.1450
22458W        W26758  13.118   5.156   6.033 -0.3220 -0.1299  0.0908
22459W        W26759  24.721   7.562   7.592  0.2681 -0.3703  0.2509
22460W        W26760  12.813   0.623   9.061  0.0931  0.1369  0.0129
22461W        W26761  12.037   1.533   0.589 -0.0868 -0.2857  0.1107
22462W        W26762   5.987   4.799   3.442 -0.1405  0.1376  0.1285
22463W        W26763  21.670   2.686  21.589  0.0123  0.2195  0.2777
22464W        W26764  28.933   3.656   3.728 -0.1583 -0.1050 -0.1849
22465W        W26765  14.972   5.085  24.126 -0.1862  0.0191 -0.1505
22466W        W26766  22.010   7.033   3.740  0.0107 -0.0560 -0.2786
22467W        W26767  13.480   4.392   6.632  0.0972 -0.0077  0.1735
22468W        W26768   4.622   7.530  24.077  0.0931 -0.0903 -0.1295
22469W        W26769   6.045   4.590  17.644 -0.0023 -0.2713  0.1387
22470W        W26770  11.381   2.571   8.929  0.1193 -0.1472  0.1035
22471W        W26771   9.246   0.872  16.501  0.0208 -0.2088  0.3177
22472W        W26772  26.816   0.363  18.156 -0.0675 -0.0581  0.2227
22473W        W26773   1.108   2.828  22.690 -0.1771 -0.2225  0.0464
22474W        W26774  12.688   3.515  24.891  0.1026  0.1141 -0.4465
22475W        W26775  25.770   2.442   8.687 -0.0216  0.1171 -0.0913
22476W        W26776   8.917   6.357   1.155 -0.1545 -0.1883 -0.0547
22477W        W26777  14.265   6.890   9.343  0.1380 -0.1451 -0.3551
22478W        W26778  29.874   4.305  17.641  0.1308 -0.0406 -0.1155
22479W        W26779  18.930   5.225   9.106  0.0367  0.1763  0.0135
22480W        W26780  28.927   0.748  16.142  0.0886  0.0688 -0.1424
22481W        W26781  12.160   6.033   2.617 -0.1437 -0.1540  0.3552
22482W        W26782   7.572   5.109   3.509 -0.1207 -0.0412  0.3895
22483W        W26783   7.837   2.316   8.942 -0.0865  0.0512 -0.0799
22484W        W26784  22.356   4.935  17.856  0.0207  0.3253 -0.1341
22485W        W26785  10.809   3.628   3.929  0.2830 -0.0867  0.2174
22486W        W26786   1.185   5.417   4.192  0.1583  0.1162 -0.0105
22487W        W26787   3.869   5.893  26.333 -0.2234 -0.3633  0.1775
22488W        W26788  28.189   2.012  19.337  0.0267  0.0507  0.0170
22489W        W26789  10.711   7.133   1.300 -0.2483 -0.0157 -0.1596
22490W        W26790   1.519   7.047  22.426  0.2756  0.2044 -0.0690
22491W        W26791  13.235   4.710  20.956 -0.2613  0.0669  0.1101
22492W        W26792  12.635   6.659   8.273 -0.0162  0.1243 -0.0236
22493W        W26793   1.153   4.143  22.255  0.0236 -0.4678  0.3675
22494W        W26794   0.027   5.278  15.783 -0.1762  0.2167 -0.1417
22495W        W26795   1.215   2.580  21.105  0.0672 -0.0830 -0.0894
22496W        W26796  27.582   6.287   5.962  0.0779  0.2130 -0.2883
22497W        W26797  16.683   2.834   1.421  0.0315  0.1404 -0.1402
22498W        W26798  14.118   6.775   5.695 -0.0936  0.2441 -0.1404
22499W        W26799   6.494   3.700   4.455  0.1510  0.1153 -0.1747
22500W        W26800   3.853   2.114   5.556  0.1592  0.0216 -0.1430
22501W        W26801  15.093   2.162  22.415 -0.2279 -0.0284 -0.1065
22502W        W26802  25.193   5.087   8.514  0.1726  0.0844  0.0297
22503W        W26803   0.091   0.876  17.303 -0.0779  0.1891  0.1196
22504W        W26804  15.197   6.627   8.112  0.0165  0.0184 -0.0961
22505W        W26805  21.394   4.394   7.294  0.0370 -0.1388  0.0990
22506W        W26806  11.519   2.843  15.878 -0.0878 -0.1610 -0.1473
22507W        W26807  16.064   7.105  24.678 -0.1378 -0.1172  0.0446
22508W        W26808   8.567   4.997  18.750 -0.0574  0.0738 -0.0551
22509W        W26809  19.058   4.349  22.981 -0.2365  0.2234 -0.1422
22510W        W26810  23.360   2.045  11.224 -0.0394 -0.2012 -0.2710
22511W        W26811   3.675   4.552  24.816  0.0758 -0.2783  0.1100
22512W        W26812  18.824   2.976   1.306 -0.2014  0.1816 -0.1987
22513W        W26813   6.454   4.091  21.017  0.1532  0.1715  0.1986
22514W        W26814   1.394   1.382  18.664 -0.3225 -0.1131 -0.1429
22515W        W26815  23.017   0.859  21.722  0.0380 -0.1912  0.2884
22516W        W26816   8.444   3.779  17.236  0.2311 -0.0542  0.4541
22517W        W26817  29.894   6.634  16.225 -0.3682 -0.1354  0.1087
22518W        W26818   0.515   4.755   0.439  0.0664  0.1331 -0.1725
22519W        W26819  28.637   4.491   8.789  0.1665  0.0325  0.2884
22520W        W26820  27.417   3.341   1.493 -0.3901  0.0483  0.0397
22521W        W26821  28.065   6.435   4.082 -0.0781  0.1038  0.0977
22522W        W26822  19.981   3.739   9.735 -0.1650  0.3211 -0.2612
22523W        W26823  17.859   6.481  20.788 -0.0800  0.3893  0.1683
22524W        W26824   9.817   7.762   7.865 -0.2267 -0.1732  0.0987
22525W        W26825  31.122   7.192   5.287  0.3508  0.0290 -0.0066
22526W        W26826   0.928   4.213  16.670  0.0073 -0.1117 -0.3049
22527W        W26827  11.768   7.164  23.589 -0.1043  0.3595  0.0605
22528W        W26828  26.413   0.604   3.368  0.1762 -0.0295  0.2851
22529W        W26829  20.313   5.523  25.678 -0.0200 -0.0500  0.0006
22530W        W26830   0.654   3.238  19.777 -0.0454 -0.1782  0.2630
22531W        W26831   8.356   0.268   5.135 -0.0430  0.0865  0.2292
22532W        W26832   9.315   1.670   2.545 -0.0729  0.0461  0.0020
22533W        W26833  15.958   0.501  23.853  0.0129  0.2567 -0.2171
22534W        W26834   5.608   5.690  21.539  0.0792  0.2057  0.4122
22535W        W26835   2.446   0.156  11.284 -0.1414  0.0150 -0.2290
22536W        W26836  16.769   7.010  25.166  0.1820 -0.2312 -0.1265
22537W        W26837  23.215   1.516  23.790 -0.1381  0.1756 -0.1274
22538W        W26838  10.356   5.613   3.043 -0.0857  0.0903 -0.0494
22539W        W26839   0.566   1.738  25.770 -0.0726 -0.1787  0.1058
22540W        W26840  17.548   3.089  17.273 -0.0599  0.1837  0.2330
22541W        W26841  23.897   2.098  12.339  0.0670  0.0843  0.1687
22542W        W26842   5.474   7.211  21.492 -0.1187 -0.1376 -0.0072
22543W        W26843   0.777   0.616   3.281 -0.2536  0.1984 -0.3564
22544W        W26844  12.422   5.932   3.195  0.0040 -0.1139  0.1026
22545W        W26845   9.127   0.275   2.882 -0.1698 -0.1384 -0.0083
22546W        W26846  27.133   6.806  24.783 -0.1601 -0.1328  0.0796
22547W        W26847  23.243   3.756   8.187 -0.2343  0.0262 -0.1167
22548W        W26848   5.728   2.061   5.460 -0.1047  0.2142 -0.0381
22549W        W26849  19.772   3.268  21.619 -0.2136  0.0859 -0.1947
22550W        W26850  27.820   1.534  24.716 -0.0044  0.1167 -0.0375
22551W        W26851  20.565   2.768  21.677  0.2364  0.1521 -0.2025
22552W        W26852  20.462   5.411  21.425 -0.1138  0.0947  0.0869
22553W        W26853  21.374   3.076   8.870 -0.0655 -0.0671  0.0346
22554W        W26854  15.289   1.203   8.819  0.2593 -0.1899 -0.2223
22555W        W26855  19.487   4.055  18.343  0.6152  0.1065  0.0183
22556W        W26856  25.709   7.399   6.722 -0.2795 -0.1466 -0.2325
22557W        W26857   5.545   1.570  18.174  0.3000 -0.0368 -0.1320
22558W        W26858   2.465   5.820   4.382  0.0125 -0.0860  0.1649
22559W        W26859   7.719   2.820  10.701  0.2929  0.2454  0.1765
22560W        W26860  22.020   7.664   4.901  0.2488 -0.0805 -0.1884
22561W        W26861   2.797   2.700  22.452  0.1514 -0.2163 -0.1329
22562W        W26862  26.460   1.848   0.341 -0.2371 -0.2658  0.0732
22563W        W26863   6.513   5.422   5.155  0.0095  0.2642  0.2549
22564W        W26864   0.759   5.581   0.556  0.2757  0.1240 -0.3047
22565W        W26865   2.270   0.208   0.088 -0.1543  0.0493  0.3334
22566W        W26866  10.394   7.479   9.299  0.1216  0.1771 -0.0493
22567W        W26867  10.436   0.979  24.784 -0.0966 -0.1444  0.0838
22568W        W26868  15.562   7.427   0.495  0.0764 -0.1460 -0.1625
22569W        W26869  23.971   1.030  21.673 -0.0248  0.1131 -0.0627
22570W        W26870  25.138   6.649  24.103  0.1217 -0.2666  0.0864
22571W        W26871  28.886   3.495  11.549 -0.0152  0.1848 -0.2312
22572W        W26872  18.423   3.498   6.690 -0.1864 -0.0889 -0.0121
22573W        W26873   1.513   3.785  20.977  0.1715 -0.2271 -0.0587
22574W        W26874  26.662   0.569  23.085  0.1680 -0.0186  0.2869
22575W        W26875  23.502   5.651  10.697  0.2258 -0.1010 -0.2519
22576W        W26876  29.418   1.159   4.568  0.2901 -0.2460  0.2923
22577W        W26877   2.797   2.060  17.613 -0.3255  0.1396 -0.0159
22578W        W26878   2.011   5.092  18.505  0.0244 -0.0492  0.1245
22579W        W26879   4.673   1.218  25.955  0.2053  0.0986 -0.3519
22580W        W26880  13.079   7.557   2.885 -0.1063 -0.0733  0.0085
22581W        W26881  14.004   0.175  18.336  0.0549 -0.0972 -0.1147
22582W        W26882  19.100   3.228  11.121  0.2439 -0.0362  0.3692
22583W        W26883  28.202   7.121  24.793  0.0623 -0.1842 -0.0784
22584W        W26884  27.912   6.737  17.324  0.1850  0.2445 -0.0310
22585W        W26885   0.001   2.291  20.165 -0.1852  0.1390  0.0321
22586W        W26886  29.368   3.372  23.332 -0.5711  0.1754  0.0113
22587W        W26887  22.050   6.203   6.160 -0.0192 -0.1203 -0.0895
22588W        W26888  21.017   7.368  17.748  0.0248  0.0440 -0.1885
22589W        W26889  11.959   6.472  21.570  0.0939 -0.0358 -0.3098
22590W        W26890  13.613   5.436  20.850 -0.0332 -0.0136 -0.0317
22591W        W26891   3.634   1.665  25.472  0.1368 -0.1242  0.0799
22592W        W26892   2.237   0.690  23.144  0.1012  0.3912  0.0757
22593W        W26893  30.642   2.848  22.737 -0.2188 -0.0706 -0.1628
22594W        W26894   2.605   4.528  10.322 -0.2834  0.1059  0.1255
22595W        W26895  18.689   5.485  10.673  0.0551  0.1105  0.1220
22596W        W26896   9.518   4.374  16.672  0.0568  0.0040  0.0188
22597W        W26897   2.449   6.349   5.648  0.3406  0.0007  0.5460
22598W        W26898  10.185   1.627   2.163  0.2710 -0.2871  0.2620
22599W        W26899  10.123   6.710   6.966  0.1691  0.2656  0.1315
22600W        W26900  25.022   1.267  25.009 -0.0885 -0.2434  0.0951
22601W        W26901  10.604   4.461   9.403  0.1005  0.2452 -0.3685
22602W        W26902  25.207   0.807   7.421  0.1857 -0.0029 -0.2779
22603W        W26903  27.628   5.580  20.020 -0.0614 -0.2922 -0.0643
22604W        W26904  23.645   6.652   0.005  0.0286 -0.0202 -0.0865
22605W        W26905  26.510   7.309  19.289 -0.3125  0.0004 -0.1710
22606W        W26906  30.248   1.138  16.526  0.0413 -0.1886 -0.1219
22607W        W26907  25.530   7.772   2.416 -0.0600 -0.3739 -0.0627
22608W        W26908  20.073   5.140  11.067  0.0111  0.0286  0.0214
22609W        W26909   6.157   1.259   8.640  0.2418  0.1179 -0.0804
22610W        W26910  29.183   2.052   2.369 -0.0749 -0.1670  0.2193
22611W        W26911  28.152   2.733   3.527  0.1565 -0.1447 -0.1075
22612W        W26912  22.707   6.058  20.851  0.1691  0.2571 -0.1326
22613W        W26913  25.436   6.647  17.837 -0.0188 -0.0830 -0.1035
22614W        W26914  18.664   5.121   3.930 -0.0573  0.1072  0.2008
22615W        W26915   6.778   3.104   0.414  0.0497  0.0661  0.3140
22616W        W26916   0.415   1.051   4.260 -0.0391 -0.1968  0.0756
22617W        W26917  31.035   5.177  23.197  0.3578  0.3634  0.0012
22618W        W26918   4.343   1.742   7.779  0.1789 -0.2303 -0.4352
22619W        W26919   8.858   1.304   1.785  0.0093  0.0288  0.2217
22620W        W26920  15.903   7.419   8.850 -0.1219  0.0547 -0.2027
22621W        W26921  13.493   2.066   1.995  0.2751  0.0346 -0.0796
22622W        W26922  24.717   7.232   6.745  0.1716  0.2284  0.0982
22623W        W26923   3.532   7.532  17.607  0.3032  0.1163 -0.2486
22624W        W26924  19.797   4.409  26.179 -0.1979 -0.0092 -0.1304
22625W        W26925  22.487   1.554   0.435 -0.0920 -0.1673 -0.0073
22626W        W26926  26.399   5.633  17.632 -0.0733  0.0912 -0.0772
22627W        W26927  29.802   1.114  24.953  0.0744 -0.1169 -0.1408
22628W        W26928   5.967   0.536   1.313 -0.1449 -0.1325  0.3436
22629W        W26929  23.279   6.368   6.063 -0.1187  0.1512 -0.3407
22630W        W26930  14.555   3.877  22.216 -0.0710 -0.0676  0.1922
22631W        W26931   4.550   7.181  21.627 -0.1072  0.1875  0.0240
22632W        W26932  13.567   5.365  21.902  0.1201 -0.1059 -0.1783
22633W        W26933   3.733   6.406  10.437 -0.2951  0.0959 -0.0853
22634W        W26934  23.457   7.204  25.279 -0.0221 -0.0885  0.0456
22635W        W26935  18.868   7.368  22.017 -0.2815  0.0488 -0.0401
22636W        W26936   8.424   1.801  25.475  0.1737 -0.2656 -0.1015
22637W        W26937  25.996   2.055  23.842  0.0906  0.0236  0.1248
22638W        W26938  28.222   1.612  19.104 -0.1548  0.2500  0.4398
22639W        W26939   4.716   4.584  21.727  0.3104  0.1141 -0.0321
22640W        W26940   8.904   7.251  17.656 -0.0803  0.3025 -0.0496
22641W        W26941  25.295   1.196  25.816 -0.0145 -0.2594 -0.3003
22642W        W26942   1.525   4.676   0.102 -0.1870  0.1737  0.2608
22643W        W26943  11.444   1.331  25.781  0.1074 -0.3159  0.2178
22644W        W26944  25.574   7.707  24.020  0.1900 -0.1542 -0.2835
22645W        W26945  30.510   6.418  16.992 -0.0260 -0.2381 -0.0524
22646W        W26946   3.098   3.486   0.271  0.0852 -0.0603  0.2590
22647W        W26947  29.309   2.761  18.787 -0.0716 -0.4177 -0.0620
22648W        W26948  15.562   6.725   6.702 -0.1191 -0.0551 -0.2481
22649W        W26949  19.832   5.357  26.095  0.1173  0.2945 -0.0747
22650W        W26950  21.869   6.555   5.063 -0.1182  0.0261 -0.3424
22651W        W26951  29.599   4.938   0.939 -0.2044 -0.0756 -0.1532
22652W        W26952  27.882   4.869  18.051 -0.2786 -0.1937 -0.1812
22653W        W26953  14.941   4.310  21.231 -0.0881 -0.1923  0.2135
22654W        W26954  12.097   2.486  22.853 -0.0373  0.2780  0.1183
22655W        W26955  13.800   7.353  19.258 -0.0235  0.0979  0.0158
22656W        W26956  24.059   5.339   9.785 -0.2866  0.0146 -0.1220
22657W        W26957  25.893   0.016  23.225 -0.2513 -0.1103 -0.1812
22658W        W26958   7.315   4.387  25.703 -0.0315  0.1185 -0.1334
22659W        W26959  12.823   3.373   1.407  0.0548  0.0345  0.2427
22660W        W26960   4.095   1.784  22.282  0.4271 -0.0728 -0.4511
22661W        W26961  14.995   4.560  18.918  0.2517 -0.1568 -0.1896
22662W        W26962  10.215   0.043   5.586  0.0624 -0.0262 -0.2065
22663W        W26963  23.764   0.449  19.571  0.2981  0.2694  0.0835
22664W        W26964  24.021   2.242  16.874 -0.0987  0.2086  0.0266
22665W        W26965   9.562   0.877  10.608 -0.3177  0.2159  0.0875
22666W        W26966   0.670   3.433   3.040 -0.0650 -0.0124 -0.0662
22667W        W26967  25.563   0.509   9.072 -0.2833  0.1079  0.0039
22668W        W26968  10.417   2.525  18.436 -0.0490  0.1119 -0.3891
22669W        W26969   4.421   2.829  22.396 -0.0494  0.2334  0.0121
22670W        W26970  10.616   2.704  18.963  0.2361 -0.0462 -0.2806
22671W        W26971  28.341   6.468   1.437  0.1115  0.1906 -0.1912
22672W        W26972   9.582   1.524   5.841  0.1721 -0.0871  0.0533
22673W        W26973  26.045   1.435   3.732  0.2267 -0.2436  0.3329
22674W        W26974   3.191   5.025  24.628  0.1338  0.2947 -0.0220
22675W        W26975   1.040   2.877  19.699 -0.1354  0.0191  0.1533
22676W        W26976  21.830   2.331  25.719 -0.2196 -0.2045 -0.0762
22677W        W26977  28.116   6.992   2.028  0.3929 -0.0195  0.0561
22678W        W26978  11.154   6.807  20.722  0.1555 -0.1231  0.2277
22679W        W26979  28.321   0.132  23.156 -0.0477  0.1751 -0.1356
22680W        W26980  25.665   7.328  19.303 -0.1827 -0.2307 -0.2284
22681W        W26981   5.806   3.076  21.302 -0.0182 -0.3397  0.1318
22682W        W26982  26.343   3.010  18.330  0.0987 -0.2113 -0.2152
22683W        W26983  14.925   2.158  16.664 -0.3354 -0.1177 -0.0510
22684W        W26984  15.328   0.571  17.720  0.0143  0.0366  0.0867
22685W        W26985   4.482   4.394  23.558 -0.1694  0.1856 -0.1524
22686W        W26986  13.767   3.446  14.609 -0.5341 -0.1275 -0.1940
22687W        W26987  23.377   1.655  20.248 -0.3399 -0.0547  0.1154
22688W        W26988  28.680   1.599   7.267  0.1614  0.1638  0.1253
22689W        W26989  11.505   4.098  10.524  0.0360  0.1088 -0.2351
22690W        W26990  29.268   0.027  18.739  0.0552 -0.0139 -0.2516
22691W        W26991  19.452   5.645  16.995 -0.1306  0.0308  0.2207
22692W        W26992   1.100   4.308  20.632 -0.0584 -0.0291  0.0517
22693W        W26993  25.668   7.609   1.489  0.0080 -0.2656 -0.2655
22694W        W26994   7.523   0.231  16.025 -0.1610 -0.0801  0.1726
22695W        W26995  22.998   3.977  20.348 -0.1880  0.0658 -0.1123
22696W        W26996  11.471   6.650  20.234  0.0730 -0.2931 -0.3134
22697W        W26997   7.493   3.499  18.797  0.3567 -0.2906  0.0145
22698W        W26998  10.542   6.921  25.226  0.1457  0.0931  0.0013
22699W        W26999  15.799   5.344   5.298  0.0145  0.4067  0.0632
22700W        W27000  29.358   3.539  20.193 -0.0312  0.0856 -0.2599
22701W        W27001  26.270   3.193   5.904 -0.0958  0.1409  0.2632
22702W        W27002   1.521   2.556  15.906  0.2740 -0.1657  0.1958
22703W        W27003   3.428   2.460   4.167  0.1036  0.1895  0.0265
22704W        W27004  30.342   7.699   7.501  0.0375  0.0906  0.1534
22705W        W27005   3.499   0.689  20.263 -0.3005  0.0331 -0.2193
22706W        W27006  20.299   3.281  21.777  0.1864  0.1306 -0.0407
22707W        W27007  29.512   1.693  18.144  0.1532  0.0592  0.1120
22708W        W27008   4.071   5.485  15.728 -0.2981  0.3513  0.0635
22709W        W27009  28.130   0.023  22.657  0.0127 -0.2899 -0.0654
22710W        W27010   4.879   0.132  24.481  0.2611  0.1260 -0.3651
22711W        W27011  21.992   1.736  21.468  0.1790  0.1565 -0.0235
22712W        W27012  23.834   6.095  11.420  0.3469 -0.1909 -0.0512
22713W        W27013  21.807   6.541  17.634 -0.1870  0.2137 -0.0525
22714W        W27014  27.893   7.466  11.158  0.1331 -0.0458  0.3210
22715W        W27015   0.162   0.407  20.985  0.1712 -0.3594  0.0562
22716W        W27016   1.716   1.100  10.894  0.2207 -0.1407 -0.1181
22717W        W27017  20.710   2.685  20.397 -0.1071  0.3658  0.0851
22718W        W27018   1.303   7.601  18.311  0.4685 -0.0183 -0.1630
22719W        W27019  31.048   1.757  26.298 -0.2091 -0.0188 -0.0640
22720W        W27020  16.170   1.434  23.020  0.2127  0.0087  0.1076
22721W        W27021  23.411   0.457  18.137  0.0154 -0.1928 -0.0202
22722W        W27022   4.740   6.692   8.233  0.2666  0.1052 -0.1182
22723W        W27023   3.888   1.959  20.541  0.0954  0.0527 -0.2814
22724W        W27024  26.538   3.622   5.801 -0.1116  0.1598 -0.0396
22725W        W27025  17.053   0.549  22.806  0.0640 -0.0508  0.2605
22726W        W27026   7.756   4.008   0.056  0.0283 -0.0617  0.0034
22727W        W27027   0.823   1.961  22.682  0.0666  0.2740  0.0033
22728W        W27028  28.275   6.235  24.628 -0.1872 -0.1188  0.0898
22729W        W27029  28.826   6.590  20.139 -0.0444 -0.1257  0.0901
22730W        W27030  13.976   6.292   7.556 -0.1764 -0.3112  0.1832
22731W        W27031  23.429   7.525  20.555  0.0290 -0.0637  0.0937
22732W        W27032   7.775   3.109  16.227  0.0075 -0.1345 -0.0711
22733W        W27033  14.348   5.721  14.902 -0.0608 -0.1964 -0.1389
22734W        W27034  24.595   5.252   9.951 -0.2760  0.0008 -0.1049
22735W        W27035  22.843   0.681  20.848 -0.0635  0.1962  0.0663
22736W        W27036  19.064   6.435  23.748  0.0837  0.0731  0.2202
22737W        W27037  14.678   7.730  21.253 -0.0553 -0.1250 -0.0600
22738W        W27038   7.728   7.640  19.457 -0.0342  0.3229 -0.0403
22739W        W27039  27.784   0.547  19.861 -0.0201  0.2032  0.0466
22740W        W27040  29.659   0.528  16.748 -0.0775 -0.0576  0.1066
22741W        W27041  19.127   0.046  10.941 -0.2974 -0.1023  0.3107
22742W        W27042  13.620   3.112   9.521 -0.1651 -0.2528 -0.4752
22743W        W27043  20.740   2.409   9.159  0.3267 -0.3072  0.0281
22744W        W27044  15.754   6.641  25.162  0.0394  0.1188  0.1041
22745W        W27045   4.292   4.237   0.036 -0.4117  0.1167 -0.2220
22746W        W27046  27.523   2.634   9.531  0.2144 -0.2541  0.1784
22747W        W27047  31.011   7.546   1.073 -0.1757  0.1050 -0.1933
22748W        W27048  11.611   4.745   8.547  0.3678  0.0726  0.0211
22749W        W27049  12.439   4.908  26.189 -0.2039 -0.1496 -0.2809
22750W        W27050  16.017   1.986   5.841 -0.1380 -0.0345 -0.2894
22751W        W27051   0.058   4.998   5.695  0.0449  0.1699 -0.0431
22752W        W27052  30.781   4.731   8.590  0.1606 -0.0123  0.1019
22753W        W27053  12.005   1.964  17.158  0.0123 -0.0195  0.2146
22754W        W27054  25.406   2.046  22.121  0.1933  0.2539 -0.0031
22755W        W27055   0.924   1.614   3.261  0.0215  0.0590  0.3215
22756W        W27056  22.281   1.728  19.354 -0.3313  0.0537  0.0093
22757W        W27057   4.593   3.912   7.589 -0.0720 -0.1832 -0.2188
22758W        W27058  16.337   3.946   5.713 -0.2338 -0.1634 -0.3610
22759W        W27059  13.038   1.770   0.881 -0.0205 -0.0534  0.0487
22760W        W27060   9.420   0.045  23.274  0.0785  0.2076  0.3990
22761W        W27061  20.772   3.746  19.890 -0.2901 -0.0693  0.0243
22762W        W27062  10.516   6.397  16.183 -0.0628  0.0347 -0.0596
22763W        W27063  27.732   5.296  19.634  0.0570  0.0611  0.1007
22764W        W27064   1.993   5.773   8.211  0.0483 -0.1152 -0.1938
22765W        W27065   3.273   3.254  25.441  0.0644  0.0514 -0.1455
22766W        W27066  15.528   4.157   0.424 -0.2370 -0.2499 -0.1040
22767W        W27067   6.849   1.942   9.826  0.0853 -0.2472  0.1387
22768W        W27068  19.374   1.074   4.692 -0.0883  0.1049 -0.1027
22769W        W27069  19.986   6.720  21.640 -0.2507 -0.1999 -0.0623
22770W        W27070   2.159   6.146   7.792  0.3269 -0.3513 -0.2208
22771W        W27071   5.545   4.247  24.983  0.2930 -0.0883 -0.0669
22772W        W27072  13.589   6.310  20.365  0.2537 -0.1396  0.1338
22773W        W27073  20.678   5.833  25.627 -0.0428 -0.0500  0.1768
22774W        W27074  19.394   7.341   6.149 -0.0855  0.1418  0.1253
22775W        W27075   8.536   0.655   7.102 -0.0238  0.1769  0.0037
22776W        W27076  25.861   7.303  21.593  0.3120 -0.0894 -0.1937
22777W        W27077   4.483   1.888   9.178 -0.0724  0.0954 -0.3591
22778W        W27078  12.890   2.825  17.029 -0.1639  0.2228 -0.2372
22779W        W27079  20.293   6.953  20.524 -0.3032  0.0048  0.0663
22780W        W27080   2.781   1.794  19.835 -0.1177  0.1489  0.2918
22781W        W27081   7.049   4.902  24.768 -0.0256 -0.0738  0.0482
22782W        W27082   7.452   6.529  19.055  0.0998  0.0068 -0.0337
22783W        W27083   2.684   6.315  10.920 -0.0031  0.3127 -0.0960
22784W        W27084   2.788   0.468  17.461  0.3614  0.3712  0.0813
22785W        W27085  15.305   3.968   3.792 -0.1730 -0.2474 -0.1071
22786W        W27086   1.435   7.226   7.949  0.5522  0.0089  0.4054
22787W        W27087  27.310   6.666  17.215  0.0033  0.2099  0.0333
22788W        W27088  29.671   5.158   8.380 -0.0916  0.1622  0.2388
22789W        W27089   0.179   5.334  20.259 -0.0304  0.0980 -0.1493
22790W        W27090   0.185   4.327   6.170  0.0673  0.2699 -0.4320
22791W        W27091  19.073   6.724   5.372 -0.1172  0.2265 -0.1362
22792W        W27092  22.024   0.365  19.456 -0.0169  0.0799  0.3289
22793W        W27093  15.057   6.710   2.314  0.0511 -0.1755 -0.3271
22794W        W27094  23.752   5.556  21.619 -0.4474  0.1005 -0.0082
22795W        W27095   7.268   0.858   1.635  0.4198 -0.2327  0.0254
22796W        W27096  17.238   3.743  25.650 -0.4041 -0.2043 -0.0247
22797W        W27097  29.852   3.309   0.110 -0.0730  0.0514 -0.2675
22798W        W27098  30.138   3.058  19.469 -0.2188 -0.2529 -0.1093
22799W        W27099   7.273   4.547  19.027 -0.0273  0.1697 -0.0174
22800W        W27100  19.914   1.306  19.977  0.1473  0.0037  0.0877
22801W        W27101  23.176   5.355  25.245  0.0424 -0.2301  0.1083
22802W        W27102  24.556   5.555   3.987  0.0724 -0.1104 -0.1701
22803W        W27103  24.848   5.933  10.934 -0.0508 -0.4160 -0.0767
22804W        W27104   3.911   2.529  26.176  0.2578 -0.2331  0.1110
22805W        W27105  11.411   3.804   2.609 -0.2886 -0.1097 -0.0736
22806W        W27106  21.454   3.533  18.776 -0.0104  0.0768  0.2202
22807W        W27107   7.449   5.308   1.727 -0.1835  0.0375 -0.2447
22808W        W27108   8.079   1.592  20.611  0.1752  0.2036  0.1693
22809W        W27109   9.985   5.708   2.693  0.0441  0.2130  0.2430
22810W        W27110  13.407   0.129  20.075 -0.0967  0.1391 -0.0197
22811W        W27111   1.279   3.422   9.821  0.2966  0.1634  0.2083
22812W        W27112  23.382   0.859   3.222 -0.0247 -0.0295  0.3228
22813W        W27113  28.660   5.163   2.696  0.2554 -0.1882 -0.1055
22814W        W27114  26.119   1.164   2.155 -0.6622 -0.1543  0.1888
22815W        W27115  22.620   5.642   8.275 -0.0282  0.0474  0.2836
22816W        W27116   7.310   2.494  24.094 -0.0493  0.0495 -0.1246
22817W        W27117  13.423   0.560   1.844 -0.1680  0.1016  0.1166
22818W        W27118   2.646   0.863   1.752  0.3642 -0.0021  0.0751
22819W        W27119  27.402   6.391  20.121 -0.1404  0.2453  0.0317
22820W        W27120  16.988   4.201   2.149 -0.3702  0.1927 -0.1496
22821W        W27121  13.999   5.872  23.461 -0.1441 -0.1814 -0.3480
22822W        W27122  19.049   3.385  16.425  0.0881  0.1755 -0.2522
22823W        W27123   6.322   0.244   5.907  0.1852  0.1949 -0.0806
22824W        W27124  28.453   7.598  18.335  0.0640 -0.0688  0.0739
22825W        W27125   4.171   4.040   5.384  0.0991 -0.2313  0.0344
22826W        W27126  29.765   4.680   7.597 -0.0947 -0.1481  0.1768
22827W        W27127   5.848   6.885  21.865 -0.0892 -0.2188 -0.0748
22828W        W27128  15.777   2.781   2.495  0.1950 -0.2068  0.3638
22829W        W27129  14.949   0.887   4.195 -0.0540  0.0424  0.0561
22830W        W27130  19.404   5.927  10.193  0.3204 -0.1585 -0.0381
22831W        W27131  26.124   5.547  11.830 -0.4105  0.0029  0.0551
22832W        W27132  21.013   7.182  22.667  0.0070  0.2317  0.3513
22833W        W27133   9.642   6.496  25.626 -0.2125  0.2097  0.0010
22834W        W27134  23.900   7.673  25.932 -0.1525 -0.0633 -0.1096
22835W        W27135   8.368   2.826  25.819  0.0467  0.0545  0.0322
22836W        W27136  25.418   3.606  16.418 -0.0738  0.0821 -0.2094
22837W        W27137  27.103   1.340   5.187 -0.1451 -0.3122 -0.0811
22838W        W27138  30.570   3.227  18.707 -0.2071 -0.2498  0.0745
22839W        W27139  16.042   4.242  25.125 -0.4142 -0.0430 -0.0567
22840W        W27140   9.578   2.440   8.342 -0.1560  0.1034 -0.2258
22841W        W27141  30.848   7.309  16.173 -0.0649  0.0142  0.1455
22842W        W27142  11.450   1.252   0.411 -0.1979 -0.0920  0.0691
22843W        W27143   3.128   7.542  22.127  0.0506  0.0452  0.0391
22844W        W27144  14.452   2.387  19.648 -0.0711 -0.4444  0.0738
22845W        W27145  12.490   2.058  20.579  0.1889  0.3357 -0.0970
22846W        W27146  11.586   1.815   9.909  0.2264  0.1604  0.2033
22847W        W27147  19.660   5.624  19.780  0.1902 -0.3678 -0.1637
22848W        W27148   4.252   7.356   9.166 -0.0946 -0.1059 -0.0351
22849W        W27149  17.584   7.570  21.555  0.1438  0.1947 -0.0922
22850W        W27150  10.825   4.153  25.269 -0.0682  0.0421  0.0332
22851W        W27151  12.107   6.229   0.009  0.0173 -0.0876  0.2475
22852W        W27152  28.739   2.643  25.252  0.1525  0.1043 -0.0837
22853W        W27153   9.027   3.825   2.131 -0.0270  0.0113  0.1624
22854W        W27154  27.007   4.853   2.168  0.0554 -0.1019  0.0353
22855W        W27155   8.199   1.884   4.235 -0.0261 -0.4584 -0.0743
22856W        W27156   7.045   3.575   2.970 -0.2531 -0.2195  0.0918
22857W        W27157   9.114   7.213  16.376  0.0578  0.1807  0.1935
22858W        W27158  27.506   5.226  20.876 -0.2820  0.1200  0.0941
22859W        W27159   8.966   6.594   7.424 -0.1975 -0.3848  0.0928
22860W        W27160  11.480   6.224  18.164 -0.1731 -0.1781  0.1130
22861W        W27161   1.049   3.712  16.997  0.0065 -0.1570 -0.1485
22862W        W27162  23.937   6.304  21.582  0.3280  0.1355 -0.1345
22863W        W27163  16.079   5.998   6.251  0.0627 -0.2640  0.3211
22864W        W27164  15.081   5.783   5.386 -0.2743  0.1255 -0.0809
22865W        W27165  19.823   0.743  21.926  0.2380 -0.0064 -0.0201
22866W        W27166   1.680   5.964  19.334  0.0182 -0.1102  0.1318
22867W        W27167  26.116   5.951   9.970 -0.1184  0.2610 -0.0260
22868W        W27168   0.982   2.248   0.300  0.1930 -0.2034 -0.0825
22869W        W27169  21.310   4.102  23.037 -0.0811 -0.2290 -0.0055
22870W        W27170   9.275   1.759  16.251  0.0287 -0.1191 -0.0999
22871W        W27171  27.247   0.647   9.908 -0.0641  0.0425  0.0957
22872W        W27172  13.010   3.936  16.009 -0.1138  0.1787  0.1418
22873W        W27173  14.101   3.052   5.519 -0.2454 -0.1565  0.0526
22874W        W27174   0.897   3.781   8.547  0.1384  0.0304 -0.2423
22875W        W27175  27.242   2.587  15.299 -0.0937 -0.1782  0.0186
22876W        W27176  27.550   1.835  25.110 -0.0681 -0.0902 -0.1688
22877W        W27177  11.308   4.696   6.802 -0.1597  0.1435  0.1359
22878W        W27178  29.686   7.077  16.279 -0.0531  0.0478  0.0811
22879W        W27179  19.068   5.647  24.105  0.2554 -0.1262  0.0125
22880W        W27180  25.080   3.038  22.869 -0.1149 -0.0327 -0.3476
22881W        W27181  28.053   4.181  25.479 -0.0287 -0.2898 -0.0946
22882W        W27182   4.809   2.841   0.238  0.2301  0.0926 -0.1186
22883W        W27183   6.675   5.705   9.252  0.0929  0.1435  0.1211
22884W        W27184   1.857   5.217  15.998  0.0736  0.0636  0.2253
22885W        W27185   1.586   6.256  18.955 -0.0895 -0.0248  0.2414
22886W        W27186   2.284   6.295   4.187 -0.1240  0.0041 -0.2130
22887W        W27187  17.782   3.621   8.886 -0.2370  0.2575  0.3531
22888W        W27188  27.004   2.641  17.814  0.2076  0.0087  0.2933
22889W        W27189   0.274   0.845   5.604 -0.0787  0.0939  0.1552
22890W        W27190  16.665   7.526   4.268 -0.1973  0.1102  0.0679
22891W        W27191   6.218   2.984  22.454 -0.0184 -0.0153 -0.1859
22892W        W27192  15.087   0.030  22.523 -0.1943  0.1974  0.0181
22893W        W27193  23.304   4.568  17.543 -0.0395  0.2682 -0.0099
22894W        W27194  30.702   1.051  17.199  0.0043 -0.1364  0.4643
22895W        W27195  23.607   6.490   3.004 -0.1709 -0.1835  0.0566
22896W        W27196  15.240   0.700  15.655  0.0864 -0.0003  0.1621
22897W        W27197  28.963   2.969   3.694  0.1351 -0.1995 -0.0750
22898W        W27198  11.201   6.569  10.382  0.0913  0.0039 -0.1149
22899W        W27199  25.012   6.323  22.949 -0.0465 -0.1130 -0.0205
22900W        W27200  28.451   3.317   2.978  0.4353 -0.2805 -0.1613
22901W        W27201   3.805   0.109  25.547 -0.1396 -0.0720 -0.2224
22902W        W27202  13.496   2.639  23.985 -0.0237 -0.0063 -0.0554
22903W        W27203   9.678   7.078  19.708  0.0353  0.2360  0.2074
22904W        W27204   2.166   1.690  10.327  0.0830 -0.0832 -0.1813
22905W        W27205  31.088   6.530  19.022 -0.1324 -0.1377  0.0053
22906W        W27206  30.851   3.544   6.006 -0.0554 -0.1981  0.1057
22907W        W27207  25.904   6.691   2.992 -0.5003  0.0969 -0.3231
22908W        W27208   5.642   1.356   2.294  0.0717 -0.3794 -0.0257
22909W        W27209   6.740   3.109  19.967 -0.0921  0.1170 -0.0340
22910W        W27210  20.750   2.048  18.791 -0.0486  0.2091 -0.0372
22911W        W27211   8.979   0.629  24.496  0.3374  0.0384  0.0991
22912W        W27212   3.393   4.390  20.581  0.0438 -0.0304 -0.0220
22913W        W27213   3.486   3.924  17.152 -0.0800 -0.2786  0.1143
22914W        W27214  25.642   1.921   8.634 -0.2566  0.0721 -0.2392
22915W        W27215   2.521   5.274   1.719 -0.1041 -0.0510  0.1920
22916W        W27216  27.666   7.591   0.772  0.0848 -0.1768 -0.0925
22917W        W27217  22.924   4.026  11.296  0.2003 -0.0998 -0.1855
22918W        W27218  14.815   1.609   5.962 -0.0506 -0.1471  0.0340
22919W        W27219  21.846   0.606   9.782  0.3321  0.3644 -0.0806
22920W        W27220   3.005   0.797  15.844  0.0857 -0.0483 -0.0480
22921W        W27221   9.272   6.439   6.983  0.1372 -0.2436 -0.0024
22922W        W27222  27.655   2.328   3.437 -0.1041 -0.1961  0.0985
22923W        W27223   0.691   1.593   5.308 -0.0635 -0.0986  0.0226
22924W        W27224  19.276   3.443  10.289 -0.0163  0.1457  0.0623
22925W        W27225  20.549   4.985   1.439  0.2349  0.2353  0.1062
22926W        W27226  10.330   6.576   9.232  0.1261  0.1626 -0.2913
22927W        W27227  11.410   6.183  15.222 -0.0171  0.1405  0.0753
22928W        W27228  24.432   6.670  20.781  0.1374 -0.0028 -0.1631
22929W        W27229   1.944   4.465  19.656  0.0624  0.2018 -0.2073
22930W        W27230  22.161   0.829  22.668  0.2796 -0.1435 -0.1023
22931W        W27231  27.061   0.061  18.699 -0.0074  0.3147  0.1980
22932W        W27232  29.899   0.219  20.149  0.0726  0.1425  0.3018
22933W        W27233  26.202   5.618   1.563 -0.0340 -0.1439  0.1430
22934W        W27234   7.401   7.653   0.109  0.3228  0.2191  0.1219
22935W        W27235  10.746   5.703   8.122  0.1728 -0.4290  0.0810
22936W        W27236  23.032   1.648   0.734 -0.0176  0.0722 -0.0493
22937W        W27237   0.475   6.535   7.764 -0.1821 -0.3147  0.4053
22938W        W27238   2.809   1.483  24.550  0.4582  0.0959  0.0742
22939W        W27239   9.130   0.379   8.922 -0.0308  0.1099 -0.0485
22940W        W27240  25.340   0.151   9.851 -0.0214 -0.0150  0.2126
22941W        W27241  10.254   0.172  18.882  0.0010  0.2293  0.0443
22942W        W27242  16.206   3.720   2.546 -0.0641 -0.1073 -0.1004
22943W        W27243   0.958   4.008   1.571 -0.0064 -0.0281  0.2573
22944W        W27244   1.469   3.922  24.759 -0.0907  0.1094  0.3312
22945W        W27245  18.848   3.261  25.763 -0.2518 -0.4288 -0.0875
22946W        W27246  12.600   0.805  26.335  0.1462  0.0654  0.0090
22947W        W27247   7.104   5.062   7.063  0.2806 -0.0877 -0.1221
22948W        W27248  29.890   1.572   6.419 -0.4350 -0.0890  0.0437
22949W        W27249  30.515   2.266  10.444 -0.0571  0.2528  0.4771
22950W        W27250   3.892   7.646   3.876 -0.2918 -0.0389  0.0718
22951W        W27251  19.964   4.038  16.913  0.1004 -0.4728 -0.0007
22952W        W27252  22.315   6.192  24.490  0.3518 -0.0260  0.1058
22953W        W27253  10.581   6.011  23.060 -0.0800  0.1144 -0.4185
22954W        W27254  17.231   3.237  16.885  0.0135  0.0929 -0.0769
22955W        W27255  11.861   7.107   5.680  0.0674  0.3091  0.2824
22956W        W27256   0.546   3.951  19.966 -0.0089 -0.0483 -0.2193
22957W        W27257  19.788   4.299  22.713 -0.0206 -0.0703  0.1880
22958W        W27258  13.745   3.056  16.746  0.1675 -0.1625 -0.1946
22959W        W27259  11.736   1.224  15.867  0.0382 -0.0139 -0.1226
22960W        W27260   5.351   6.256  10.654  0.2626 -0.2650 -0.2264
22961W        W27261  13.330   1.101  15.559 -0.1611  0.0305  0.0502
22962W        W27262  25.929   2.006  18.652  0.0818 -0.1270  0.0945
22963W        W27263  12.435   2.209  11.043 -0.1304 -0.2301 -0.1760
22964W        W27264  17.856   0.123  10.078  0.0585  0.0092  0.0658
22965W        W27265  10.805   5.394  10.280 -0.4368  0.0335  0.0965
22966W        W27266  13.099   6.040  23.720 -0.0580 -0.2916  0.2350
22967W        W27267   2.107   5.629  16.179 -0.0668 -0.1623  0.0444
22968W        W27268  25.240   2.104   7.543 -0.1309 -0.1494 -0.1108
22969W        W27269  28.827   5.600  26.163  0.2169  0.0759 -0.0459
22970W        W27270   4.840   1.157  20.303 -0.5296 -0.0199 -0.2239
22971W        W27271  10.154   6.516  24.212 -0.1504 -0.0363 -0.0071
22972W        W27272  25.805   0.272   9.951 -0.0144 -0.0091  0.0122
22973W        W27273  15.859   5.837  22.727 -0.1389 -0.1637  0.0330
22974W        W27274  18.117   0.857   9.680 -0.1273 -0.1777  0.1461
22975W        W27275  30.532   7.102  22.282  0.2730 -0.1790 -0.0454
22976W        W27276   8.269   0.210  20.408  0.2036  0.0401 -0.0424
22977W        W27277   2.157   2.709  21.801  0.4877 -0.1956  0.0278
22978W        W27278  10.877   7.717   4.902  0.0103 -0.0323 -0.2845
22979W        W27279  31.182   5.292   8.800  0.1265  0.2838  0.0292
22980W        W27280  17.215   3.044   8.871  0.2680 -0.2152  0.0358
22981W        W27281  30.933   6.993  21.953  0.1163 -0.1382  0.0397
22982W        W27282  22.993   3.358  23.808 -0.1109 -0.3515  0.0605
22983W        W27283  30.470   4.414  18.360 -0.0613  0.0489 -0.3377
22984W        W27284   3.120   5.095  17.208  0.0926  0.0928  0.0609
22985W        W27285  29.411   2.656  16.050 -0.0066  0.3931 -0.0007
22986W        W27286  24.015   3.457  23.505 -0.2815 -0.2311 -0.0502
22987W        W27287   4.831   4.929   2.561 -0.3652 -0.0340 -0.0699
22988W        W27288   3.706   6.887   2.775 -0.0699 -0.1171  0.3294
22989W        W27289  18.916   2.069  26.030 -0.1410  0.0932  0.0617
22990W        W27290   4.157   4.026   1.388  0.1556 -0.0100 -0.0346
22991W        W27291   7.836   0.896  15.519 -0.4667 -0.1077 -0.0440
22992W        W27292   0.847   4.036  15.755 -0.2090  0.0208 -0.0019
22993W        W27293   3.050   4.507   8.442  0.0693 -0.1939 -0.1246
22994W        W27294  24.381   2.412  17.616  0.0747 -0.1687 -0.0937
22995W        W27295   5.061   0.534  17.785 -0.0916  0.3489  0.0587
22996W        W27296   9.272   5.955  16.884  0.0563 -0.2042  0.1484
22997W        W27297  28.677   5.220  19.510  0.1971 -0.1186 -0.4604
22998W        W27298  26.658   7.273  17.195 -0.3003  0.0775 -0.0037
22999W        W27299  10.250   6.738  16.448 -0.0479 -0.4132 -0.0500
23000W        W27300   7.816   1.396   3.438 -0.0964 -0.2824  0.2655
23001W        W27301  30.251   1.380  22.747 -0.3099  0.0517  0.0039
23002W        W27302   5.806   4.405   8.086  0.0165  0.1462 -0.0008
23003W        W27303   2.987   7.014   2.022  0.1293 -0.1805  0.1142
23004W        W27304   5.101   7.008  24.781 -0.0837 -0.1853 -0.1279
23005W        W27305   6.296   4.244   0.858 -0.1931  0.1312  0.0273
23006W        W27306  19.087   0.068  15.778  0.1319 -0.2946 -0.2601
23007W        W27307  26.764   2.833   3.221  0.1731 -0.0869 -0.2512
23008W        W27308  26.419   1.742  19.156  0.3001  0.0357  0.0616
23009W        W27309   2.901   6.774  23.301  0.0134 -0.3084  0.2686
23010W        W27310  20.223   7.252   9.350 -0.0851 -0.1338  0.0407
23011W        W27311   9.988   4.892  24.012  0.2084 -0.0150  0.1340
23012W        W27312  13.675   4.030   5.353  0.0355  0.1975  0.0920
23013W        W27313  22.574   2.537  25.612  0.3040 -0.1011 -0.0744
23014W        W27314  15.893   0.178   9.610 -0.1086  0.0778 -0.0438
23015W        W27315   2.941   0.128   0.686 -0.1323 -0.0038  0.1595
23016W        W27316  27.078   2.522   1.227 -0.4229 -0.1485  0.0691
23017W        W27317  10.972   5.548  18.774 -0.1137  0.2559 -0.4491
23018W        W27318   7.833   0.932   3.105 -0.1936  0.0555  0.3673
23019W        W27319   2.795   2.994  19.539 -0.3136 -0.1333  0.2216
23020W        W27320  22.308   5.022   8.692  0.3565 -0.0804  0.1107
23021W        W27321  27.870   2.709   5.146 -0.3124 -0.1911 -0.0537
23022W        W27322  29.358   1.837  24.334 -0.1214 -0.2416  0.4297
23023W        W27323   8.584   6.814   1.108 -0.1124  0.2561 -0.1614
23024W        W27324  12.233   5.011   6.789  0.1535 -0.1220  0.1502
23025W        W27325   8.590   1.206  10.393  0.1505 -0.4208 -0.0186
23026W        W27326  11.359   0.502  15.233  0.5242 -0.1465 -0.0549
23027W        W27327   0.324   1.919  10.992 -0.0755 -0.3097  0.3072
23028W        W27328  15.667   7.145  24.267  0.2324 -0.3096  0.1156
23029W        W27329   9.429   6.223   0.233  0.1444  0.2072 -0.0841
23030W        W27330  27.132   5.227  20.510  0.0878  0.3896 -0.0708
23031W        W27331   0.581   1.203  25.271  0.3520 -0.0947 -0.0707
23032W        W27332  15.426   5.401  23.295 -0.0176 -0.2243  0.0835
23033W        W27333  24.715   6.189   5.464 -0.0656  0.0487  0.0798
23034W        W27334  13.511   1.445   1.993 -0.0056 -0.2129  0.3534
23035W        W27335  24.886   3.100   1.906  0.1757 -0.2777  0.0202
23036W        W27336   6.665   4.188   2.045 -0.1612 -0.2293 -0.0339
23037W        W27337   5.274   5.241  24.923 -0.0413  0.0872  0.1413
23038W        W27338  21.937   0.057  17.751 -0.0561 -0.0655  0.1350
23039W        W27339  30.757   2.407  20.294 -0.1596 -0.0624  0.0959
23040W        W27340   6.064   4.069   9.374  0.0454  0.4836 -0.0668
23041W        W27341  23.392   0.690  23.771  0.1298 -0.0573 -0.1056
23042W        W27342  20.599   5.961   5.036  0.1061 -0.0591 -0.1824
23043W        W27343  17.977   2.759   1.685 -0.2713 -0.0178  0.1162
23044W        W27344   4.566   6.179   5.208  0.1047  0.0110  0.1763
23045W        W27345  25.726   4.268  10.673  0.0633 -0.2075 -0.0182
23046W        W27346  22.652   6.898  25.371 -0.1188 -0.0241  0.0344
23047W        W27347   5.248   0.856   7.620  0.3083  0.1972  0.5220
23048W        W27348  18.948   7.470   6.352  0.2213 -0.1281  0.0010
23049W        W27349  30.568   2.515   5.072 -0.2996  0.1704  0.0314
23050W        W27350   9.337   3.304   7.068 -0.0754  0.2893  0.2005
23051W        W27351   9.977   5.196  22.077 -0.0498  0.1421  0.0130
23052W        W27352  15.281   3.087  22.264 -0.1231 -0.0047 -0.2450
23053W        W27353  14.851   3.325   9.899 -0.2206 -0.0915 -0.0885
23054W        W27354  26.790   6.634   2.169  0.0965  0.0769  0.1167
23055W        W27355   6.036   3.817   3.508 -0.1114  0.1278 -0.4390
23056W        W27356  24.335   2.445  22.249 -0.0057  0.0982 -0.0195
23057W        W27357  21.132   4.701  24.430 -0.2615 -0.0784 -0.3674
23058W        W27358  11.106   0.588  18.404 -0.0786  0.3192 -0.1241
23059W        W27359  10.816   0.970  22.684 -0.1455 -0.1777  0.0726
23060W        W27360  30.241   4.017   8.319  0.2673  0.2787 -0.2244
23061W        W27361   3.013   2.319  25.568  0.1253  0.0632 -0.0422
23062W        W27362  24.790   1.980   3.807 -0.3055  0.1268  0.0420
23063W        W27363  17.050   2.817  20.085 -0.0719  0.0816  0.1325
23064W        W27364  19.140   3.270  19.554 -0.0898 -0.0842 -0.1367
23065W        W27365  14.033   6.380  19.058 -0.1005  0.1470 -0.1446
23066W        W27366   2.701   3.555  11.064  0.0374  0.1144 -0.3098
23067W        W27367  26.962   7.661  16.974  0.2525  0.0230 -0.0425
23068W        W27368  18.513   3.450  25.244  0.2276  0.3207  0.0708
23069W        W27369   1.926   3.239   9.331 -0.3360 -0.3028 -0.1774
23070W        W27370  26.169   6.227   1.225 -0.0728  0.2602  0.2041
23071W        W27371  14.917   2.423  14.975  0.0750 -0.2298  0.3100
23072W        W27372   7.645   2.516   9.526  0.2411 -0.3136 -0.0477
23073W        W27373   4.662   5.236  15.994  0.2567 -0.1659  0.0897
23074W        W27374  15.502   4.258  25.188 -0.1848  0.0068  0.0501
23075W        W27375  25.366   0.631   2.286  0.2479 -0.0279 -0.0043
23076W        W27376   1.125   6.406  18.237 -0.0228  0.0675  0.0415
23077W        W27377   7.815   3.836   1.368 -0.2456  0.3033  0.3752
23078W        W27378   9.587   3.532   7.485 -0.2850 -0.0313  0.0798
23079W        W27379  15.052   3.066  19.257 -0.2981  0.0245  0.0762
23080W        W27380  19.592   2.359  10.849 -0.0311  0.2120  0.0643
23081W        W27381  22.495   0.612   0.754  0.3357  0.3601  0.1994
23082W        W27382   9.289   4.428  16.131  0.2463  0.1025  0.3520
23083W        W27383  24.371   4.729  18.884  0.1598  0.0847  0.4752
23084W        W27384  18.117   5.544   4.564  0.0820  0.1349  0.2700
23085W        W27385  22.504   7.506  24.824 -0.1373 -0.0316  0.0280
23086W        W27386   5.519   3.065   5.108  0.2193  0.1061 -0.1489
23087W        W27387   5.964   2.325   4.118 -0.0978 -0.0989 -0.1821
23088W        W27388  12.229   6.712  17.734  0.1490 -0.0769 -0.3659
23089W        W27389  10.831   4.868   9.145 -0.0528  0.2041 -0.0072
23090W        W27390   7.208   1.052  23.213  0.0100 -0.1978  0.3466
23091W        W27391  14.422   1.008   5.303 -0.0042 -0.7632 -0.0439
23092W        W27392   6.448   1.453   0.462  0.0516 -0.0545 -0.2322
23093W        W27393   4.764   1.294   0.923 -0.3628 -0.0512  0.1499
23094W        W27394   7.681   0.936  23.381  0.0254 -0.1961 -0.2809
23095W        W27395   4.487   2.710   5.046  0.2101  0.0844 -0.0587
23096W        W27396  14.073   3.065   8.838  0.3925  0.0077  0.3021
23097W        W27397   5.706   7.397   2.629  0.1408  0.2847  0.1822
23098W        W27398  27.715   7.110  18.040 -0.0267  0.0775 -0.1112
23099W        W27399  18.062   3.573  26.184  0.0528  0.1957 -0.0619
23100W        W27400  29.287   0.794  16.489  0.1079  0.0369 -0.1037
23101W        W27401  31.181   6.763  25.406  0.0267 -0.1043  0.1101
23102W        W27402  23.674   0.284   8.904 -0.1540  0.0857 -0.1303
23103W        W27403  26.743   2.004   6.185 -0.0461 -0.2749 -0.0264
23104W        W27404   7.997   7.734  22.839  0.1075 -0.2870  0.2015
23105W        W27405   1.311   0.204   9.467  0.1155 -0.0228 -0.0205
23106W        W27406   2.506   2.209  17.988 -0.0815  0.1528 -0.2450
23107W        W27407  29.570   1.180   6.397  0.0530 -0.0805 -0.2107
23108W        W27408  28.297   7.121  25.778  0.0396  0.1299  0.0510
23109W        W27409   8.386   0.869   9.243 -0.2583 -0.4489 -0.1526
23110W        W27410  25.269   0.713  25.658  0.2051 -0.2294 -0.2606
23111W        W27411  17.031   1.766  17.597 -0.0895  0.0903  0.0062
23112W        W27412   1.841   0.081   2.866  0.3498  0.0459  0.2084
23113W        W27413  23.619   5.219   4.794  0.1374 -0.1761  0.2412
23114W        W27414   1.514   0.698  17.388 -0.1111 -0.2868  0.1146
23115W        W27415  24.515   7.529   6.355 -0.0522 -0.3253 -0.2064
23116W        W27416  22.902   6.419  20.417 -0.0999  0.0101 -0.1777
23117W        W27417  23.039   5.154  16.605  0.0983 -0.0678  0.3072
23118W        W27418   0.573   5.966  22.723  0.0493  0.2367 -0.0191
23119W        W27419   7.578   7.786  25.661 -0.2866  0.2231 -0.1557
23120W        W27420  13.234   0.328   5.805 -0.3866 -0.2704  0.1469
23121W        W27421   2.275   4.198   6.145  0.1861  0.3412 -0.1227
23122W        W27422   0.910   7.243  25.296 -0.1125  0.2532  0.4431
23123W        W27423  16.538   1.530   9.440 -0.4853 -0.2027  0.0750
23124W        W27424   1.649   6.257  18.354 -0.0784 -0.1803 -0.0881
23125W        W27425   6.474   7.425   6.407  0.2529 -0.1661 -0.2848
23126W        W27426  25.814   7.183   0.626 -0.1066 -0.0913 -0.2259
23127W        W27427  29.068   2.872   4.299  0.1711 -0.0666 -0.0908
23128W        W27428  14.918   4.264   1.637 -0.2323 -0.1227  0.1820
23129W        W27429   0.045   6.772   8.004 -0.0867 -0.2034 -0.0828
23130W        W27430  11.558   1.295   9.725 -0.0499 -0.2059  0.1606
23131W        W27431   9.533   4.837  10.229 -0.0765  0.0126 -0.1549
23132W        W27432  19.745   3.175   1.216  0.1111 -0.0977 -0.0743
23133W        W27433  19.004   3.250   9.392  0.2147 -0.0693 -0.2594
23134W        W27434  29.184   3.408  20.754  0.1373 -0.1819 -0.0720
23135W        W27435  10.153   2.430  20.436  0.0216  0.1141 -0.1492
23136W        W27436   7.581   5.718   9.360 -0.1296  0.0368  0.0979
23137W        W27437   4.925   4.457   6.897 -0.0647 -0.0782  0.0879
23138W        W27438  26.746   7.337  17.943 -0.0503  0.1613 -0.4076
23139W        W27439  21.142   7.371  25.689  0.0605  0.0843 -0.0766
23140W        W27440  30.000   7.089  25.478 -0.1864 -0.1221 -0.1061
23141W        W27441  13.553   0.497  23.626  0.1027 -0.0002  0.0859
23142W        W27442   0.359   1.135   3.636 -0.0346  0.0351 -0.1002
23143W        W27443  13.578   7.011  24.999  0.0896 -0.1475  0.0494
23144W        W27444  13.018   1.013   0.112 -0.2169  0.1681  0.0798
23145W        W27445   9.720   4.917  17.697  0.0987 -0.1136  0.1258
23146W        W27446   8.742   3.807  18.259  0.0749 -0.1824 -0.2200
23147W        W27447  21.535   0.258  18.383 -0.1007  0.0751 -0.2540
23148W        W27448  19.101   4.246  25.415  0.0201 -0.0805  0.0296
23149W        W27449  21.401   1.015   3.970 -0.0712  0.2160  0.0873
23150W        W27450  25.050   4.151   1.520  0.1600  0.0146 -0.2281
23151W        W27451  27.575   0.849   0.049 -0.0873 -0.2653  0.2817
23152W        W27452  30.432   2.860  20.867 -0.1088 -0.3355 -0.4013
23153W        W27453  19.474   5.891  15.850  0.1510 -0.0077 -0.1261
23154W        W27454   9.614   5.111  18.145 -0.0931  0.1437  0.0836
23155W        W27455   4.256   4.065  16.563  0.0076 -0.0617 -0.0514
23156W        W27456  12.829   4.565   4.243  0.0301 -0.2718 -0.0938
23157W        W27457  20.171   0.147   5.394  0.0445 -0.3944 -0.0506
23158W        W27458   3.064   1.201  10.160  0.4633  0.0155 -0.0400
23159W        W27459  19.466   6.687  22.877  0.3677 -0.0035 -0.1914
23160W        W27460  27.374   1.813   5.196 -0.1844  0.1276  0.1978
23161W        W27461  11.750   0.143   2.197  0.1708 -0.1952 -0.0438
23162W        W27462  18.747   6.729  20.727 -0.0589 -0.0924 -0.0541
23163W        W27463  11.644   1.642   5.476  0.1748 -0.4519 -0.2779
23164W        W27464  28.958   3.496   0.369 -0.0304  0.0030 -0.0307
23165W        W27465  28.979   1.192  17.975  0.2876 -0.0949  0.1487
23166W        W27466  22.597   6.779   0.320 -0.1223  0.0369 -0.2232
23167W        W27467  27.189   0.987  25.547 -0.0608  0.0566  0.1728
23168W        W27468   2.250   6.714   9.373  0.0658 -0.3465  0.0524
23169W        W27469  14.459   3.417   2.265  0.0321  0.1877  0.2193
23170W        W27470  24.760   4.441   5.519  0.4228 -0.0924  0.0694
23171W        W27471   0.872   3.212   4.072  0.0249 -0.2234  0.1327
23172W        W27472   2.344   1.682   4.581  0.3271 -0.0169 -0.1198
23173W        W27473   8.862   5.339  26.315  0.0283  0.1023 -0.0943
23174W        W27474  20.954   7.749   5.330 -0.0155 -0.2703 -0.0338
23175W        W27475  23.678   2.343  10.857 -0.1089  0.4115  0.0421
23176W        W27476   6.909   7.212  19.848  0.2295 -0.1167 -0.0118
23177W        W27477   6.864   2.100  18.731 -0.3353 -0.0367  0.0985
23178W        W27478  20.442   6.397   3.195 -0.0093  0.1186  0.0629
23179W        W27479  14.007   1.379  25.558  0.1106 -0.1394  0.0983
23180W        W27480  10.238   0.648   0.218 -0.1841  0.1474 -0.0654
23181W        W27481  20.183   5.367  15.986  0.1919 -0.1279  0.1194
23182W        W27482  14.397   0.408  16.725  0.0393  0.1924  0.2583
23183W        W27483  19.266   6.636  18.147  0.1670  0.1266  0.0145
23184W        W27484  10.158   5.677   7.919  0.1866  0.1044  0.0031
23185W        W27485  16.532   7.611   7.776 -0.1024 -0.1817 -0.1089
23186W        W27486  30.896   0.833   7.612  0.0740 -0.2698 -0.1065
23187W        W27487  18.606   0.826  16.690  0.0228 -0.2587 -0.1878
23188W        W27488  15.683   7.505   9.313 -0.1059  0.1254 -0.2866
23189W        W27489  16.513   4.331   4.840 -0.1315 -0.2943  0.1405
23190W        W27490  24.533   6.670  16.838  0.0898 -0.2628 -0.0271
23191W        W27491   6.121   5.243  22.661  0.2385  0.0978 -0.1970
23192W        W27492   5.430   0.455   0.109 -0.1360  0.1536  0.1404
23193W        W27493  23.747   7.281   5.221 -0.0086 -0.2530  0.0916
23194W        W27494  16.189   5.013   7.825  0.1862 -0.0086 -0.1288
23195W        W27495   7.002   5.754   6.907  0.0802 -0.2466 -0.1126
23196W        W27496   4.301   0.919  18.848 -0.0843 -0.7892  0.1829
23197W        W27497  27.130   5.922  21.133 -0.0630 -0.1820 -0.1279
23198W        W27498  18.777   7.110   2.307 -0.0063  0.0913 -0.0428
23199W        W27499  12.058   2.749   1.814 -0.4486 -0.1656 -0.2166
23200W        W27500  20.062   5.371   0.189  0.0812  0.0432 -0.0641
23201W        W27501  28.475   3.346  18.271  0.0232  0.0917  0.2569
23202W        W27502   0.300   1.453  19.205 -0.1674  0.3265  0.2933
23203W        W27503   7.779   5.626   4.404  0.1001 -0.2940  0.2168
23204W        W27504  29.362   0.072  20.747 -0.0342  0.2087  0.2122
23205W        W27505  28.621   4.251  16.985  0.2393 -0.0646  0.3530
23206W        W27506   3.796   0.710   5.956 -0.0127 -0.0846 -0.1753
23207W        W27507  28.071   3.194   3.297 -0.1418  0.0831  0.0788
23208W        W27508  16.341   4.774   3.363  0.1527  0.2834  0.1033
23209W        W27509  21.790   4.103  17.349  0.0571 -0.0351 -0.1627
23210W        W27510  28.082   2.838  17.395 -0.0583 -0.0725  0.0401
23211W        W27511   1.295   0.771  18.433 -0.0825 -0.0717 -0.0258
23212W        W27512  18.346   7.170  11.153  0.2096  0.3338  0.0909
23213W        W27513  14.561   6.391   7.067  0.0007  0.0294 -0.0573
23214W        W27514   2.489   6.821  18.111 -0.1314  0.1522  0.1654
23215W        W27515   5.067   3.514   1.213  0.0873  0.2519  0.2954
23216W        W27516  17.755   1.035   5.292 -0.0296  0.1149  0.1699
23217W        W27517   1.813   0.005   7.420  0.1883  0.2539  0.2998
23218W        W27518  19.937   6.638   5.734 -0.2515  0.1482 -0.2081
23219W        W27519  10.719   0.971   7.394 -0.0781  0.0136 -0.3814
23220W        W27520  10.677   2.456   7.556 -0.0049  0.0021 -0.1952
23221W        W27521  30.280   5.118  17.917 -0.1255 -0.0424  0.0815
23222W        W27522  29.836   4.020  19.417 -0.0969 -0.1741  0.1787
23223W        W27523  21.921   2.675   8.179 -0.1783 -0.1697 -0.1761
23224W        W27524  15.302   2.102  17.603  0.0877  0.0950 -0.0069
23225W        W27525  16.211   4.673   2.029 -0.1007 -0.1029 -0.1045
23226W        W27526  12.368   3.040   6.301 -0.0888  0.0357  0.0717
23227W        W27527   7.419   0.868   4.316 -0.0625 -0.0826  0.1616
23228W        W27528   4.222   2.617  24.002 -0.1646 -0.2863  0.0163
23229W        W27529   4.034   2.004  24.655 -0.0621 -0.1301 -0.1366
23230W        W27530  30.039   7.715   2.536 -0.0104 -0.0348  0.2309
23231W        W27531  16.248   0.501   5.292  0.2114 -0.1247  0.1003
23232W        W27532  14.794   1.651   3.505  0.0615  0.2154  0.1861
23233W        W27533  24.069   5.756   0.260 -0.0721  0.0365  0.0463
23234W        W27534  19.046   5.006  17.339  0.0593  0.2376  0.1668
23235W        W27535  25.759   1.392  26.064 -0.0017  0.0662 -0.3012
23236W        W27536  24.512   2.083  22.558 -0.0601 -0.2830  0.1630
23237W        W27537   5.380   0.452  10.703  0.2120 -0.1657  0.1809
23238W        W27538  29.892   5.179  23.713  0.1223 -0.1361 -0.0717
23239W        W27539   8.961   1.865   1.115 -0.0787 -0.1995 -0.1741
23240W        W27540  23.201   5.164   5.685  0.1522  0.3724  0.0310
23241W        W27541   9.153   2.076  11.661 -0.2999 -0.0232  0.2683
23242W        W27542   0.741   0.586   5.586  0.0040 -0.0003 -0.3378
23243W        W27543  29.017   6.088  20.415  0.3330 -0.0831  0.3516
23244W        W27544  11.190   6.306  15.657  0.0299 -0.1492  0.0916
23245W        W27545   3.119   0.353  19.417 -0.1716 -0.1884  0.2877
23246W        W27546  24.492   4.676  17.835 -0.1093  0.1829 -0.1062
23247W        W27547   3.193   0.419   1.150  0.0968  0.2572  0.0134
23248W        W27548   9.263   6.276  17.278  0.4347  0.2502 -0.0831
23249W        W27549   5.824   4.913   9.763  0.0985 -0.3036 -0.0161
23250W        W27550   2.925   3.129  16.960 -0.0510 -0.0702 -0.1324
23251W        W27551  13.451   4.289   5.680  0.0787 -0.0005  0.2124
23252W        W27552  27.627   5.092   6.083  0.0329 -0.0840 -0.0664
23253W        W27553   8.637   6.555  20.549  0.0551 -0.1781  0.1615
23254W        W27554  13.840   2.903   9.990 -0.0685  0.1766  0.4659
23255W        W27555   2.845   7.566  10.632 -0.2368  0.0109  0.1283
23256W        W27556  17.393   5.807   6.347 -0.2187 -0.1647  0.0339
23257W        W27557   4.747   3.977  23.295  0.0135 -0.2370 -0.1775
23258W        W27558   4.434   0.666   4.104 -0.1432  0.1566  0.0062
23259W        W27559  29.418   6.637  19.559 -0.0337 -0.2198 -0.1587
23260W        W27560  17.139   1.504  24.431  0.0153 -0.0248 -0.0434
23261W        W27561  11.097   2.830  24.003  0.1529  0.1152  0.3452
23262W        W27562  23.121   2.752  21.371  0.0664  0.3293  0.2461
23263W        W27563  15.391   0.489  24.819 -0.0793  0.0653  0.1319
23264W        W27564  12.642   6.600   1.671 -0.1632  0.0247 -0.1934
23265W        W27565   1.843   3.600   7.921 -0.0226  0.0026  0.0208
23266W        W27566  13.034   3.170  20.143  0.0431 -0.2355 -0.0809
23267W        W27567  14.593   1.713   8.943 -0.0058  0.0494 -0.1217
23268W        W27568  16.811   4.182   3.018 -0.2885 -0.1123 -0.3970
23269W        W27569  15.617   1.854  16.251 -0.0827 -0.2684  0.0373
23270W        W27570   6.818   1.315  17.824  0.1195 -0.3322 -0.0146
23271W        W27571  26.134   4.630   2.621 -0.0350  0.1636  0.0786
23272W        W27572  10.174   2.075  20.817 -0.1801  0.0229 -0.2382
23273W        W27573   4.827   5.964   1.583 -0.4047  0.4274 -0.0671
23274W        W27574  21.515   0.760  10.652  0.0451 -0.1964 -0.2229
23275W        W27575  25.205   4.518   6.295  0.6124  0.0153  0.1036
23276W        W27576  13.024   6.403  16.853 -0.3529  0.0497  0.2579
23277W        W27577  30.748   6.765   8.926  0.1027  0.0490  0.0830
23278W        W27578  11.171   3.673  19.667 -0.1024  0.0467 -0.0294
23279W        W27579  24.603   1.951  25.669  0.0658 -0.2694 -0.2709
23280W        W27580  16.726   2.867   9.586 -0.0296 -0.2542 -0.3072
23281W        W27581  23.683   3.059  11.314 -0.2600 -0.0506 -0.1745
23282W        W27582  23.467   6.348  18.459 -0.0273 -0.0210 -0.1558
23283W        W27583   5.603   2.744   8.807 -0.0308 -0.0879  0.0968
23284W        W27584   0.225   1.734  20.466 -0.0445  0.0581  0.0630
23285W        W27585  29.727   0.469  10.021 -0.0605 -0.2720 -0.1508
23286W        W27586   2.806   3.757   1.024  0.0638 -0.0420 -0.1088
23287W        W27587  17.808   2.657   2.541  0.0456 -0.0839 -0.1397
23288W        W27588  17.545   7.394  17.248  0.0938  0.0854 -0.1144
23289W        W27589  22.742   4.576  11.228  0.1171  0.0653  0.0826
23290W        W27590   3.702   7.450  17.135 -0.3256 -0.0414 -0.1007
23291W        W27591  28.268   5.033   2.932 -0.2343 -0.0355 -0.1380
23292W        W27592  18.747   3.851   8.634 -0.2517  0.1026  0.1995
23293W        W27593  15.504   6.737  23.917 -0.0772  0.7128  0.3247
23294W        W27594   5.099   2.507   2.743  0.1535  0.0231  0.1302
23295W        W27595   5.528   3.033   1.823  0.2830 -0.1977 -0.0732
23296W        W27596  19.664   5.036  20.822  0.0850  0.0961  0.1705
23297W        W27597  30.610   2.836  17.385 -0.0434 -0.0182 -0.0516
23298W        W27598   0.853   7.797   8.455 -0.0245 -0.0831  0.1896
23299W        W27599  26.254   2.683   3.696  0.1149  0.0903 -0.3500
23300W        W27600  30.580   7.172   8.769 -0.1986  0.1258  0.0181
23301W        W27601  29.725   7.065  25.068  0.0883  0.0690 -0.2271
23302W        W27602   9.198   3.919  10.526  0.0730  0.3099 -0.1188
23303W        W27603  20.593   0.812  16.337  0.0520  0.0038 -0.0245
23304W        W27604  26.065   3.461  18.055 -0.0786  0.1286 -0.0364
23305W        W27605  29.409   6.629  15.867  0.1336 -0.1914 -0.3489
23306W        W27606   7.222   6.240   0.667  0.2339 -0.1570  0.1071
23307W        W27607   4.035   1.975   9.049 -0.0671  0.1895  0.0677
23308W        W27608  15.643   6.029  20.529  0.0104 -0.0203  0.3871
23309W        W27609  19.817   3.794   8.478  0.2582  0.1732 -0.0310
23310W        W27610   8.693   4.817  15.955  0.0115 -0.2316  0.1183
23311W        W27611   3.770   1.882   4.933 -0.0068  0.0152  0.0213
23312W        W27612   8.592   2.120   5.857 -0.0204 -0.2010 -0.1987
23313W        W27613  17.893   1.435  21.104 -0.2041 -0.2085  0.1510
23314W        W27614  22.034   7.561  24.598  0.2452  0.2753 -0.1512
23315W        W27615   3.756   5.467  24.865  0.0445 -0.1136 -0.1822
23316W        W27616   6.240   5.382  19.745  0.0995 -0.0240 -0.1149
23317W        W27617   5.508   1.035  24.106 -0.2630  0.1144  0.1407
23318W        W27618   8.526   0.837  19.188 -0.1294 -0.0672  0.0804
23319W        W27619  22.943   4.228  22.686  0.2380 -0.1930 -0.1193
23320W        W27620  24.629   0.844   5.971  0.2029  0.1668  0.2399
23321W        W27621   8.091   4.566  23.465  0.0684 -0.0829  0.1689
23322W        W27622  21.649   6.803  21.242 -0.0936  0.2219 -0.1270
23323W        W27623  10.913   5.308   7.935 -0.2539 -0.1032 -0.2198
23324W        W27624  19.103   5.056  22.188 -0.0785 -0.0016 -0.1911
23325W        W27625  24.176   7.185  26.019  0.3100 -0.1366 -0.1452
23326W        W27626  26.090   4.720   5.758 -0.0521  0.0658  0.1121
23327W        W27627  11.473   5.277  19.542  0.1774 -0.0414 -0.1649
23328W        W27628  11.758   2.633  10.750  0.0605 -0.1277 -0.0773
23329W        W27629  23.118   5.239   5.171  0.0623  0.2718  0.2221
23330W        W27630  23.790   3.678   9.846  0.0303  0.0334  0.0292
23331W        W27631  24.877   3.520   2.108 -0.1789 -0.2374 -0.0592
23332W        W27632   3.393   0.180  24.061  0.1535 -0.2869  0.1061
23333W        W27633  21.896   6.226   3.029 -0.1713 -0.1429  0.0093
23334W        W27634  30.456   1.434  17.653  0.0864 -0.0786 -0.3133
23335W        W27635   4.313   0.282  20.161 -0.0322 -0.0277 -0.3118
23336W        W27636  10.672   4.951   7.267 -0.2045 -0.0188  0.0449
23337W        W27637  30.097   7.729  22.997 -0.0908 -0.0814 -0.0809
23338W        W27638  21.742   1.121   0.788 -0.0246 -0.0715 -0.2129
23339W        W27639   3.486   7.794   8.719 -0.1101 -0.1132  0.0654
23340W        W27640  11.582   5.496   6.974 -0.0166  0.1061 -0.0063
23341W        W27641   5.943   0.203  11.175  0.0461  0.1314  0.0267
23342W        W27642  15.816   3.918  18.611 -0.2261 -0.0227  0.1486
23343W        W27643  11.625   2.397  18.115  0.0045 -0.0492 -0.3842
23344W        W27644  17.180   2.876  23.998  0.3354 -0.1311 -0.0314
23345W        W27645  27.564   1.907  16.530 -0.0629 -0.1920  0.2125
23346W        W27646  22.612   4.481  16.171 -0.0549 -0.1916 -0.3407
23347W        W27647  30.910   0.427   3.291 -0.0243 -0.3412  0.3846
23348W        W27648  11.660   3.418  18.920 -0.2121  0.0708  0.2437
23349W        W27649   4.651   6.188  26.262 -0.1746  0.1240 -0.2604
23350W        W27650  12.545   6.651   4.870 -0.2378 -0.0459 -0.1714
23351W        W27651  25.171   4.065   6.917 -0.2103 -0.0815 -0.2722
23352W        W27652   0.484   2.880   4.199 -0.1322  0.0396 -0.0631
23353W        W27653  27.350   1.699   6.925 -0.2020 -0.0181  0.0807
23354W        W27654  14.941   2.419   3.948  0.1933  0.0435  0.2528
23355W        W27655   9.835   5.733  24.560 -0.3848 -0.1096  0.2640
23356W        W27656  14.619   7.012   5.892  0.0298  0.0223 -0.0874
23357W        W27657  21.942   2.081   4.919 -0.1744 -0.0858  0.2197
23358W        W27658  17.159   5.814  10.446 -0.1636  0.0600 -0.0480
23359W        W27659  23.833   5.810   8.882 -0.1311  0.0265  0.2520
23360W        W27660   7.575   7.404   1.065  0.0263  0.0978 -0.0264
23361W        W27661  28.389   0.973  16.738 -0.2273  0.0310 -0.2223
23362W        W27662  23.607   4.004  10.214 -0.0085  0.2646 -0.4897
23363W        W27663  23.170   3.310   1.997  0.1248  0.0885 -0.1979
23364W        W27664  14.051   1.210  16.121 -0.2251  0.1192 -0.0905
23365W        W27665  28.274   0.731   6.943 -0.2221 -0.0259 -0.0367
23366W        W27666  25.545   2.162  25.890 -0.1523 -0.1860  0.0221
23367W        W27667  30.401   4.756  19.461  0.2038  0.3074  0.3263
23368W        W27668  30.805   2.877   0.056 -0.3559 -0.2622  0.0483
23369W        W27669  30.584   4.087  21.768 -0.0069  0.1578 -0.3973
23370W        W27670  14.856   2.133   7.253  0.1101 -0.2613  0.1556
23371W        W27671  24.395   4.361   9.753  0.0310  0.0831 -0.0846
23372W        W27672  30.213   1.256   4.212  0.1113 -0.0720  0.0286
23373W        W27673  28.068   5.951  18.117 -0.2322  0.0186  0.1149
23374W        W27674   8.767   5.871   5.302 -0.0732  0.2315  0.2553
23375W        W27675   3.913   6.407   8.915 -0.3729  0.0201  0.2053
23376W        W27676  21.582   0.631  17.173  0.2193  0.0246  0.2459
23377W        W27677   1.942   2.499   4.838  0.1449  0.1578 -0.1812
23378W        W27678  26.010   5.291  19.716 -0.1904 -0.2863 -0.3858
23379W        W27679  10.043   4.040   8.434 -0.2306  0.2511 -0.1334
23380W        W27680  15.093   0.216   4.078  0.0063  0.1042 -0.0729
23381W        W27681  15.639   3.061   3.982 -0.1066 -0.1879 -0.1587
23382W        W27682  15.275   2.937  21.795  0.0723  0.0046  0.0872
23383W        W27683   9.016   6.802  17.793 -0.0665 -0.1050  0.1286
23384W        W27684   6.325   5.924  20.337  0.2445 -0.0560 -0.1257
23385W        W27685  17.981   4.041  26.090  0.1612 -0.0969  0.2023
23386W        W27686  29.645   3.271  19.250 -0.2231 -0.1668  0.0333
23387W        W27687  20.572   0.737  25.192  0.2055  0.1527  0.0460
23388W        W27688  24.871   1.271  19.790  0.2043 -0.1113 -0.0765
23389W        W27689  28.359   6.956   1.520 -0.1604  0.0001 -0.1080
23390W        W27690  18.203   1.308  25.601 -0.1037 -0.1452 -0.1494
23391W        W27691  22.848   0.635  16.949 -0.1266  0.0335  0.0146
23392W        W27692   4.694   0.339   6.843 -0.2644 -0.1108  0.1191
23393W        W27693   6.044   7.721   9.230  0.1414  0.0084 -0.4717
23394W        W27694   9.562   3.295  25.551 -0.1223  0.0083 -0.0488
23395W        W27695  23.105   6.058  21.197  0.2596  0.3011  0.2656
23396W        W27696   0.144   1.309  23.277 -0.2770  0.2713  0.2657
23397W        W27697  29.596   3.105  26.075 -0.2275 -0.1004 -0.0196
23398W        W27698  28.951   0.402  16.539  0.2904 -0.0893 -0.1485
23399W        W27699   0.536   3.364  18.882 -0.3636  0.2198 -0.1736
23400W        W27700   2.711   0.061  26.289  0.0716 -0.0013 -0.1618
23401W        W27701  15.299   5.016   4.060  0.1294  0.1031 -0.0656
23402W        W27702  15.609   7.433  23.907  0.0462  0.0099  0.1903
23403W        W27703  13.806   3.256  16.138 -0.3808 -0.4401 -0.4148
23404W        W27704  30.564   3.335  17.375 -0.2106  0.2298 -0.1868
23405W        W27705   4.114   7.205  21.850  0.0748 -0.0384 -0.2426
23406W        W27706  28.679   7.231   9.138 -0.4174  0.0598  0.0416
23407W        W27707  13.644   4.896   8.740 -0.2580  0.7326 -0.0780
23408W        W27708  14.990   4.400   5.399 -0.0293  0.0066  0.3896
23409W        W27709  31.135   4.578  24.771 -0.1254 -0.1475 -0.1804
23410W        W27710   8.309   4.551   3.121  0.0287  0.0851  0.1327
23411W        W27711  25.909   4.675   7.702  0.0620 -0.0270  0.0920
23412W        W27712  26.481   7.461   3.164  0.0161  0.1242 -0.3378
23413W        W27713  13.094   4.874   5.042 -0.1908  0.0409  0.0722
23414W        W27714  17.534   2.340  16.890 -0.3636 -0.1986 -0.2709
23415W        W27715  18.858   7.635   7.256  0.1790  0.0401  0.3194
23416W        W27716   4.091   6.468   6.506 -0.1713 -0.1254 -0.0017
23417W        W27717  13.938   4.096   3.974  0.1558  0.0863 -0.1195
23418W        W27718  24.499   7.549  19.633 -0.1230 -0.2242  0.1742
23419W        W27719   7.401   0.684  26.223 -0.0476  0.2162 -0.1166
23420W        W27720  29.576   2.740   9.989 -0.1992 -0.1033 -0.2719
23421W        W27721  17.715   5.393   4.064 -0.1875 -0.1412  0.0362
23422W        W27722  24.390   3.919  10.105  0.3253 -0.1133  0.1093
23423W        W27723  25.227   7.714  15.324  0.2709  0.1143 -0.0047
23424W        W27724  25.678   0.587  26.423 -0.0810  0.2109 -0.1960
23425W        W27725   6.747   1.936   7.377 -0.0741 -0.0890  0.2577
23426W        W27726   4.431   3.780   2.692 -0.1214  0.0543 -0.2026
23427W        W27727  12.567   2.641   4.210  0.2066 -0.4558  0.0839
23428W        W27728   6.732   2.590   4.673  0.0348 -0.0011 -0.2303
23429W        W27729  18.529   5.082   8.229 -0.0422 -0.4557 -0.2020
23430W        W27730   1.308   1.446   4.663  0.0356  0.0889 -0.3898
23431W        W27731  27.657   7.388  24.137  0.2793 -0.0865 -0.4191
23432W        W27732  18.412   4.086   4.584 -0.2265 -0.1006  0.0584
23433W        W27733  16.327   6.311   1.831  0.1583  0.0520 -0.0448
23434W        W27734  30.721   7.412   0.326  0.2978  0.4050  0.1280
23435W        W27735  10.868   2.768  19.918 -0.0213  0.2454 -0.0225
23436W        W27736  14.956   4.155  22.150 -0.0065  0.2791  0.3392
23437W        W27737  21.238   3.905  16.755  0.1836  0.1968  0.0247
23438W        W27738   2.204   6.074  20.577  0.1117  0.1467  0.0732
23439W        W27739  24.381   0.613   7.322 -0.2265  0.0359 -0.1982
23440W        W27740  18.436   1.276   7.178  0.0313  0.0176  0.1403
23441W        W27741  17.355   0.097   3.077 -0.0627 -0.1906  0.1504
23442W        W27742  14.629   0.986   2.731 -0.1351 -0.3975  0.1163
23443W        W27743  24.260   6.714  22.592  0.1240  0.2190 -0.0060
23444W        W27744  27.215   7.123   9.445 -0.1192 -0.0177  0.2124
23445W        W27745  30.485   7.304  20.336 -0.3296 -0.1948 -0.0783
23446W        W27746  12.368   7.074   0.904  0.0942 -0.2659 -0.0408
23447W        W27747  26.972   2.017   9.360 -0.1465 -0.0842  0.1156
23448W        W27748  23.931   5.596  26.075 -0.0402 -0.2941 -0.0755
23449W        W27749   6.300   0.362  15.436  0.0353 -0.2263 -0.2808
23450W        W27750  26.649   1.292  10.876  0.1811  0.6268 -0.0134
23451W        W27751  10.239   1.948   8.230 -0.0631 -0.1309 -0.1268
23452W        W27752   8.876   5.321   2.144 -0.2374 -0.0602 -0.2824
23453W        W27753  11.773   3.903  18.369  0.0580  0.0120 -0.0942
23454W        W27754  14.678   0.203  21.676 -0.3171  0.0746 -0.2299
23455W        W27755  15.311   7.693  10.264  0.0712  0.3853  0.0104
23456W        W27756  28.958   4.009   0.529  0.0892 -0.1795  0.0213
23457W        W27757  26.984   6.906  25.826 -0.0316  0.1681  0.1630
23458W        W27758   7.559   6.292  19.476  0.0672  0.2144 -0.0288
23459W        W27759  26.317   0.894  10.553  0.0305  0.2876 -0.0691
23460W        W27760   7.053   6.204   1.122  0.2535  0.0545  0.1397
23461W        W27761  19.471   7.717  11.288  0.1293  0.2996 -0.1221
23462W        W27762   2.656   2.764   5.926  0.4443 -0.0592  0.2165
23463W        W27763  29.659   7.352   8.817 -0.3990 -0.0484  0.0547
23464W        W27764   4.445   1.367   9.178  0.1704  0.2158  0.1154
23465W        W27765  30.312   3.100   3.245 -0.0928  0.0886  0.3239
23466W        W27766  16.886   2.692   2.862  0.1522  0.0348 -0.1070
23467W        W27767  15.702   3.970  22.028  0.3375 -0.0170 -0.1666
23468W        W27768  22.404   5.902  19.928  0.3053  0.1463  0.0781
23469W        W27769   0.143   3.254  20.138  0.2090 -0.1744 -0.0421
23470W        W27770  19.189   0.940   2.227  0.0061  0.0244  0.4541
23471W        W27771  29.178   2.968   3.240 -0.0330  0.3620  0.1504
23472W        W27772  25.674   2.830   1.030 -0.1382  0.1833  0.3272
23473W        W27773  19.878   6.774  22.533  0.0963 -0.2564  0.0961
23474W        W27774   8.777   6.837  19.135 -0.0165  0.1808  0.1352
23475W        W27775  24.160   1.327   4.476 -0.0587  0.0722 -0.1697
23476W        W27776  27.845   7.567  22.998 -0.0521  0.1288 -0.0737
23477W        W27777  25.693   3.748   2.148  0.0144 -0.2372 -0.0292
23478W        W27778  19.972   2.064   7.156 -0.1961  0.1337  0.0720
23479W        W27779   8.761   0.612  25.355 -0.1951  0.1133 -0.1240
23480W        W27780  28.123   2.357  20.222  0.0757 -0.2449 -0.0083
23481W        W27781   9.048   2.734   5.204 -0.1661 -0.0019  0.1885
23482W        W27782   9.294   6.092  19.820 -0.2666  0.0678 -0.1882
23483W        W27783   1.894   7.624  22.108  0.2533 -0.2458 -0.3027
23484W        W27784   2.089   5.209  16.548  0.3519  0.1576  0.2002
23485W        W27785  29.511   2.416  25.024 -0.1133 -0.1693  0.1516
23486W        W27786  29.036   5.434  18.895  0.2146 -0.0221  0.2330
23487W        W27787   0.446   6.996   5.323 -0.0621  0.1614  0.3568
23488W        W27788  27.082   2.616   2.119  0.1588 -0.0088 -0.0587
23489W        W27789  12.514   2.266   5.128  0.0110 -0.1363 -0.0434
23490W        W27790  16.053   0.872  11.159 -0.2641 -0.0395  0.0644
23491W        W27791  25.763   4.342   0.053  0.1214 -0.1201 -0.1219
23492W        W27792   8.976   0.789   1.912 -0.0188 -0.0966 -0.0806
23493W        W27793  28.179   2.277   5.281  0.0598  0.0838  0.1420
23494W        W27794   6.287   6.453  20.660 -0.4484 -0.0557 -0.4008
23495W        W27795  24.322   4.250  17.626 -0.0490  0.2547  0.0107
23496W        W27796  21.430   3.739  17.727 -0.0199 -0.0435 -0.1109
23497W        W27797  26.747   4.768   9.875 -0.0554  0.0545 -0.2474
23498W        W27798   5.535   5.386  18.344  0.0166  0.1171  0.2952
23499W        W27799  16.043   5.669  20.286 -0.1272  0.1046 -0.2694
23500W        W27800  24.858   4.961  18.592  0.0152 -0.0279  0.3696
23501W        W27801  24.585   1.014   7.035 -0.0167 -0.1451  0.2754
23502W        W27802  18.408   0.461   3.685  0.0883 -0.0341 -0.1821
23503W        W27803  18.176   5.436  10.408  0.1896  0.0483  0.0401
23504W        W27804  25.327   6.425   7.591  0.2791  0.0088 -0.0360
23505W        W27805  30.951   4.187  22.685 -0.0907 -0.2425 -0.0870
23506W        W27806  26.997   3.610   3.883  0.1832  0.3458  0.2193
23507W        W27807  26.082   6.547  18.528 -0.0037 -0.2811 -0.3582
23508W        W27808  19.027   7.010  10.579  0.1031  0.2587 -0.1595
23509W        W27809   0.887   6.557  25.921  0.0350  0.0672  0.2240
23510W        W27810  15.842   7.132  16.483  0.1423 -0.0803  0.1290
23511W        W27811   4.841   0.328   0.820 -0.1332 -0.0125  0.1891
23512W        W27812  12.795   6.633   2.740 -0.0511  0.2769 -0.2591
23513W        W27813  14.850   5.839   8.148 -0.4651  0.1657  0.0903
23514W        W27814  22.181   5.227  17.261 -0.0483  0.0847 -0.2769
23515W        W27815  28.203   7.007  21.044 -0.0282 -0.0649  0.0096
23516W        W27816  24.265   2.109  24.188 -0.0415  0.0137  0.0304
23517W        W27817  13.862   5.033  17.901  0.0986  0.2542  0.1324
23518W        W27818   8.958   1.149   6.297 -0.0123 -0.1022 -0.1736
23519W        W27819  14.830   4.361   8.571 -0.0398  0.0201  0.0513
23520W        W27820   0.127   2.134   0.584 -0.2819 -0.0085 -0.0654
23521W        W27821   5.694   5.061   9.314  0.0388  0.0925  0.2014
23522W        W27822  17.782   1.809  22.883  0.0169  0.0768  0.3576
23523W        W27823   1.802   0.124  23.891 -0.2601 -0.0970 -0.0872
23524W        W27824  23.047   4.480  21.152 -0.0471 -0.1549  0.3602
23525W        W27825   4.802   5.255  23.220  0.0368  0.0309 -0.2288
23526W        W27826   7.682   3.011  24.046 -0.1231 -0.1919  0.1760
23527W        W27827  31.000   3.490  21.081 -0.0302 -0.1915  0.1996
23528W        W27828  28.428   6.196  25.710  0.1073 -0.1639  0.0733
23529W        W27829  12.539   6.135  26.057  0.0781 -0.0440 -0.1032
23530W        W27830  12.742   1.798  24.979  0.0601 -0.0685  0.0590
23531W        W27831  20.729   6.583  10.117  0.0222  0.0691 -0.0120
23532W        W27832   9.305   2.092   0.843 -0.0813  0.0065  0.2699
23533W        W27833  12.111   2.023   3.863  0.1562 -0.1206 -0.1888
23534W        W27834  23.830   1.412  17.238 -0.0359 -0.1214 -0.0976
23535W        W27835  16.189   5.007   1.685  0.1532  0.1184  0.2538
23536W        W27836  25.869   5.643   5.602  0.0981 -0.1643  0.1022
23537W        W27837  22.031   0.733  16.983  0.0816 -0.0237  0.2496
23538W        W27838   4.655   1.903  26.405  0.1002 -0.0083 -0.0324
23539W        W27839   4.110   4.371   1.729  0.3080  0.2613 -0.1463
23540W        W27840  10.285   5.910  24.093  0.2272 -0.0223 -0.0507
23541W        W27841  27.320   1.831  23.370  0.3264 -0.0328 -0.1842
23542W        W27842  19.558   6.349  26.279  0.3270  0.2324 -0.0746
23543W        W27843  14.473   1.606  20.780  0.1999  0.0805  0.3681
23544W        W27844   3.779   3.410   3.861  0.2200  0.3503 -0.0927
23545W        W27845   1.440   3.359  19.844 -0.2551  0.1167 -0.1709
23546W        W27846   8.746   5.294  21.849 -0.3064 -0.0859  0.0294
23547W        W27847  29.828   3.557   4.855 -0.1139 -0.1368  0.0182
23548W        W27848  29.324   3.372   3.494 -0.0691 -0.1687  0.0538
23549W        W27849   9.098   0.719   7.835 -0.1311  0.1930  0.0915
23550W        W27850  28.942   2.579  21.814 -0.0617 -0.0804 -0.1767
23551W        W27851  15.233   6.700   8.668  0.0505  0.0809 -0.1620
23552W        W27852  22.441   5.937   2.018  0.1397  0.0885  0.2697
23553W        W27853  13.128   1.556  19.156 -0.0228  0.0511 -0.1711
23554W        W27854  18.689   6.087  17.769 -0.0025  0.3055 -0.1472
23555W        W27855   4.750   3.147  16.676  0.0286  0.2706 -0.1909
23556W        W27856   8.328   5.382  26.189 -0.0385 -0.1864  0.0706
23557W        W27857  18.572   4.108  24.117 -0.0228 -0.0309  0.1454
23558W        W27858  30.617   2.694  15.182  0.2198  0.2911 -0.0235
23559W        W27859  31.070   4.720   5.308  0.0395 -0.1412  0.1678
23560W        W27860   1.861   2.018  19.898  0.1618  0.3848 -0.0086
23561W        W27861   3.091   3.092  20.371  0.2260  0.1477 -0.1022
23562W        W27862  13.363   4.464   5.221 -0.0055 -0.1006  0.1973
23563W        W27863  28.623   5.727   3.548 -0.0883  0.2673  0.4372
23564W        W27864  20.766   2.422   2.456 -0.0944 -0.3974 -0.1255
23565W        W27865  26.975   6.304   5.477  0.1530  0.0221  0.1483
23566W        W27866   7.532   5.930   6.314 -0.2051  0.0951  0.0885
23567W        W27867  31.001   6.403  18.185  0.0607  0.0251 -0.1873
23568W        W27868  16.843   2.500   7.803  0.2280 -0.2919  0.0390
23569W        W27869  30.259   6.293   8.210  0.1295  0.1720  0.0862
23570W        W27870  12.091   7.556   7.747  0.3269 -0.0888 -0.1840
23571W        W27871  17.380   0.142  10.429 -0.0337 -0.3463 -0.0512
23572W        W27872  28.006   1.709  18.108 -0.3782  0.1376 -0.0472
23573W        W27873   5.117   1.289   0.469  0.1056  0.1401  0.1305
23574W        W27874   6.604   6.394   0.828 -0.0793  0.2016 -0.1353
23575W        W27875   8.045   3.121   6.752  0.1282  0.1379 -0.0672
23576W        W27876   4.829   6.275   9.104  0.2112  0.1721 -0.2797
23577W        W27877  18.725   2.281  24.760 -0.1047 -0.2834  0.3229
23578W        W27878  26.416   6.189   3.645  0.0752  0.2793 -0.4059
23579W        W27879   7.960   6.755  25.357  0.0244  0.2044 -0.0358
23580W        W27880  15.232   0.652   7.030  0.1281  0.0613  0.2885
23581W        W27881   5.912   6.786   6.618  0.1655  0.0375  0.0146
23582W        W27882   5.175   1.859  19.314 -0.0509 -0.1505 -0.5435
23583W        W27883  28.242   5.572  22.583  0.0739  0.2319 -0.3800
23584W        W27884   2.504   0.121   6.779 -0.1750  0.0700 -0.1405
23585W        W27885   4.278   3.376  10.605  0.0638  0.0496  0.3151
23586W        W27886  13.254   1.848  18.684 -0.1875  0.0683 -0.1803
23587W        W27887  30.345   2.625   0.199  0.1963  0.3395  0.2598
23588W        W27888   0.832   1.047  16.587 -0.1746 -0.0554 -0.0618
23589W        W27889   4.172   6.147  16.287 -0.0592 -0.0607 -0.0974
23590W        W27890  30.130   5.950  18.473  0.1136 -0.1406 -0.0666
23591W        W27891   3.962   1.783  20.064 -0.0913  0.0320  0.1677
23592W        W27892   6.620   0.052   8.213  0.1306  0.2491  0.1246
23593W        W27893  10.548   6.829   3.005  0.1631 -0.0053 -0.0549
23594W        W27894  18.738   5.513   2.564 -0.1096 -0.0602 -0.2577
23595W        W27895  12.443   0.085   3.991  0.3642 -0.3096  0.3858
23596W        W27896   7.750   7.628   9.898  0.2118 -0.3471 -0.1313
23597W        W27897  18.461   2.618  16.666 -0.0008  0.2001  0.0734
23598W        W27898   8.490   5.891   6.467 -0.0325 -0.2735  0.0376
23599W        W27899   8.370   0.181   7.021 -0.2127 -0.0985  0.3303
23600W        W27900   1.118   0.860  17.028  0.1071  0.2607 -0.0677
23601W        W27901   8.852   6.204   1.837  0.0365 -0.1030 -0.0079
23602W        W27902  28.076   3.994  19.601  0.0260  0.1579  0.1747
23603W        W27903   3.313   2.644  20.686 -0.0176 -0.1052 -0.0712
23604W        W27904  10.688   5.473  24.176  0.0193  0.1989 -0.1627
23605W        W27905  10.993   2.189   5.055 -0.1742 -0.3116  0.2107
23606W        W27906  26.313   1.392   1.467  0.3022  0.0059  0.0868
23607W        W27907  12.492   4.740   1.022 -0.0992 -0.1695  0.4848
23608W        W27908  19.141   1.780  19.852  0.2320 -0.1201 -0.2279
23609W        W27909  18.522   4.132  25.297  0.3986 -0.1897  0.0047
23610W        W27910  26.456   4.154  17.302 -0.0675 -0.1143  0.0761
23611W        W27911  24.278   6.539  24.992 -0.0042 -0.0813  0.1185
23612W        W27912   0.928   2.214  20.905  0.1264 -0.1624 -0.2109
23613W        W27913  21.329   4.717   0.827  0.0738 -0.0166 -0.2087
23614W        W27914  22.159   3.835  22.304  0.3710 -0.3232 -0.1487
23615W        W27915   2.512   3.320   9.296 -0.0920 -0.0198 -0.1808
23616W        W27916  10.509   5.891   2.343 -0.1289  0.3545 -0.3525
23617W        W27917   1.420   3.260  24.169  0.1716  0.1485 -0.2066
23618W        W27918  15.936   3.075  19.004 -0.1878  0.0871  0.4943
23619W        W27919  19.828   5.349   7.103  0.0659 -0.0692 -0.0183
23620W        W27920  13.368   7.090  20.942  0.1143  0.1467 -0.1501
23621W        W27921   4.570   7.484  10.149  0.1964 -0.0362  0.0996
23622W        W27922  21.180   5.667   4.602 -0.2124 -0.1550  0.0247
23623W        W27923  15.871   4.991   3.089 -0.4434 -0.0766 -0.1119
23624W        W27924  21.704   4.025  22.315  0.2108  0.1540  0.0623
23625W        W27925  17.714   1.225   3.497 -0.0923 -0.0029 -0.3057
23626W        W27926  21.033   2.830   7.772  0.1194  0.0675  0.1868
23627W        W27927  19.492   3.406  18.184 -0.1684  0.0431  0.1649
23628W        W27928  30.991   7.018  26.208 -0.0550 -0.0375  0.0384
23629W        W27929  29.426   3.821   7.441 -0.4622  0.1046  0.1246
23630W        W27930  25.471   1.926  18.559 -0.0012 -0.0800  0.2650
23631W        W27931  22.702   6.298   2.294 -0.0881  0.1744 -0.0066
23632W        W27932   8.466   2.640  10.124  0.0216 -0.0230  0.1459
23633W        W27933  17.596   2.556  11.121  0.3912  0.1480  0.1839
23634W        W27934  20.194   7.414   5.315 -0.1157 -0.0843 -0.1733
23635W        W27935   2.695   6.508   9.491  0.0781  0.1599 -0.1932
23636W        W27936  21.366   4.185   4.376 -0.2043 -0.4823  0.1230
23637W        W27937  16.314   4.034   3.838  0.1703  0.1560 -0.4922
23638W        W27938  19.984   7.600  24.033  0.0794 -0.0719  0.4380
23639W        W27939   0.840   2.311  21.420  0.2270  0.4805  0.2868
23640W        W27940  13.230   4.233   9.015  0.1010 -0.0166  0.1317
23641W        W27941  30.271   2.392  20.617  0.0599 -0.1973  0.0958
23642W        W27942  13.992   5.951  16.747 -0.1719 -0.0485 -0.0715
23643W        W27943   8.572   6.305  16.540 -0.0994 -0.3317  0.3293
23644W        W27944  17.065   5.447   6.550  0.0437 -0.3631  0.0626
23645W        W27945  11.574   5.767   5.546 -0.2986  0.1250 -0.1669
23646W        W27946  10.077   0.724  23.408 -0.1390  0.1851  0.3777
23647W        W27947  21.182   5.415  11.489 -0.3285 -0.0343 -0.0358
23648W        W27948  13.057   6.834   9.206 -0.0565 -0.3377  0.1230
23649W        W27949   3.561   5.023  10.392 -0.1953 -0.0672  0.4614
23650W        W27950   5.877   3.418  11.370  0.0429 -0.0251 -0.2880
23651W        W27951  10.838   2.080   9.860 -0.2455 -0.0656 -0.1710
23652W        W27952  12.413   0.515   8.345 -0.0827 -0.1068  0.1372
23653W        W27953  22.223   5.458  19.738 -0.0354  0.1637 -0.3735
23654W        W27954  28.334   6.512  15.949  0.1027  0.1919 -0.1623
23655W        W27955  26.113   2.932   2.085  0.1427 -0.0917 -0.1545
23656W        W27956  30.350   3.872   7.299 -0.2273  0.0427  0.1971
23657W        W27957  13.538   5.793  16.469  0.0554 -0.1580  0.0336
23658W        W27958  22.240   3.295  16.137 -0.1513 -0.0525  0.1342
23659W        W27959  12.258   5.069   0.755 -0.3798  0.1258  0.0722
23660W        W27960  20.747   6.783   2.336 -0.0586 -0.1632  0.1621
23661W        W27961   9.650   4.514   4.488  0.0368  0.1212  0.0214
23662W        W27962  22.613   1.826  10.757 -0.0326 -0.3766  0.2625
23663W        W27963  29.425   6.268   4.770 -0.0664 -0.0811 -0.1320
23664W        W27964  11.876   4.419  14.968 -0.4339 -0.1171 -0.0005
23665W        W27965  11.860   0.318  23.283 -0.0676 -0.1587 -0.0212
23666W        W27966   3.633   1.907   0.311 -0.0961  0.0806  0.1006
23667W        W27967  12.627   3.357   4.321  0.1548 -0.0001  0.3707
23668W        W27968  21.957   0.747  25.358  0.2305  0.1123 -0.1212
23669W        W27969   0.012   2.423  23.807  0.0121  0.0512  0.0231
23670W        W27970   5.061   4.742   1.199  0.0703  0.1575  0.0981
23671W        W27971  17.614   0.722   4.897  0.2388  0.0501  0.0125
23672W        W27972  22.078   6.101  21.425  0.3148  0.0830  0.5138
23673W        W27973  19.354   6.155  22.879  0.0977 -0.0810  0.2124
23674W        W27974  24.053   0.770  20.841 -0.1326  0.0948  0.0553
23675W        W27975  11.487   5.006  10.532 -0.1793  0.1466  0.0747
23676W        W27976   7.558   3.059   6.002  0.0649 -0.1585 -0.1862
23677W        W27977  23.884   6.029  18.990 -0.1388 -0.1438 -0.1276
23678W        W27978  27.125   7.624   8.393 -0.0586 -0.0198  0.0088
23679W        W27979  29.458   7.209  22.974 -0.1302 -0.2887  0.1058
23680W        W27980  11.368   6.774   8.110 -0.1587  0.0704 -0.0399
23681W        W27981  10.423   5.436   6.317 -0.4825 -0.1551  0.3185
23682W        W27982   5.365   5.766  16.591  0.1040 -0.0365  0.1827
23683W        W27983   0.854   1.148  10.386  0.4281 -0.0330  0.2051
23684W        W27984  24.053   5.736   2.848 -0.2341  0.1419  0.3631
23685W        W27985  18.695   6.584  26.393 -0.0776  0.0830  0.2379
23686W        W27986  29.680   1.436   0.642  0.1546 -0.0086 -0.1316
23687W        W27987  12.769   3.676   5.686  0.0340  0.2418  0.1509
23688W        W27988   3.426   0.074   7.337  0.1162 -0.1109  0.1401
23689W        W27989  18.807   5.502  21.626 -0.0001 -0.0819  0.0508
23690W        W27990   2.677   6.662  17.129 -0.0681  0.2099 -0.1940
23691W        W27991   3.531   2.226  21.836  0.2193  0.1901 -0.1452
23692W        W27992  27.406   1.950   9.012 -0.0628  0.0434  0.0687
23693W        W27993  27.852   3.415  16.096 -0.0724  0.1353  0.1203
23694W        W27994   4.382   2.976   0.456  0.2448 -0.2767 -0.0758
23695W        W27995  24.007   3.756  20.641 -0.1904 -0.3248  0.0327
23696W        W27996  17.110   1.648  10.541 -0.0956  0.0166  0.2442
23697W        W27997  16.608   3.948  17.139  0.0074 -0.3255  0.1397
23698W        W27998  10.325   0.999  18.130 -0.0166 -0.0078  0.1628
23699W        W27999  30.808   2.684  23.725  0.1119  0.0198  0.0395
23700W        W28000  23.601   4.960  21.733 -0.1157 -0.0234  0.0812
23701W        W28001  21.306   3.652  16.341 -0.3905 -0.0798 -0.0402
23702W        W28002  24.191   3.140   6.664  0.1805 -0.2459  0.3732
23703W        W28003  24.121   1.204  19.670 -0.1137  0.1346 -0.0501
23704W        W28004  21.532   7.609   0.285 -0.1386  0.0319 -0.0434
23705W        W28005  17.898   3.204  21.810  0.0760  0.1751  0.0566
23706W        W28006   9.327   5.192   6.334  0.0570  0.1681  0.1351
23707W        W28007   8.578   1.739  19.801  0.3595 -0.3472  0.0031
23708W        W28008   7.856   6.007  24.742  0.2534  0.0554 -0.3174
23709W        W28009   0.773   0.676  24.383 -0.2234  0.0943  0.0895
23710W        W28010  29.939   2.195  23.947 -0.0711 -0.0487 -0.0047
23711W        W28011  17.994   0.598  23.217  0.0687 -0.2913  0.2010
23712W        W28012  10.371   3.005   7.376  0.1228  0.0555  0.0047
23713W        W28013  21.187   4.843  22.481 -0.1379 -0.0905  0.2983
23714W        W28014   4.504   6.611   0.243  0.1146  0.0173  0.0948
23715W        W28015  20.775   3.810   6.679  0.4232 -0.3345  0.0313
23716W        W28016  14.721   2.373  17.159  0.0545  0.0934  0.2134
23717W        W28017   9.376   5.052   6.792  0.0852  0.0835  0.2204
23718W        W28018  28.011   2.951  19.091  0.3505 -0.2078  0.0150
23719W        W28019  17.101   4.648  20.044  0.2160 -0.2204 -0.1001
23720W        W28020  28.201   5.434   9.567 -0.1602 -0.1861  0.0160
23721W        W28021  16.741   1.873  23.198  0.1439 -0.0591  0.2082
23722W        W28022  28.833   6.692   4.128 -0.1348 -0.1210  0.0212
23723W        W28023  12.049   2.950  19.477 -0.0694  0.0603  0.1072
23724W        W28024   1.910   4.067   4.291 -0.1740 -0.0800 -0.0988
23725W        W28025  10.712   1.128   1.465 -0.0760 -0.0542 -0.1682
23726W        W28026  30.356   7.794  25.044  0.0681 -0.1773  0.2155
23727W        W28027  23.450   4.505  22.135  0.1052 -0.1829 -0.3146
23728W        W28028  11.967   2.502  15.731 -0.0030  0.1303  0.0149
23729W        W28029   8.118   0.167   9.598 -0.0379 -0.1627  0.5422
23730W        W28030   4.781   6.880   1.197  0.2337 -0.0031 -0.3692
23731W        W28031   1.201   3.159   0.170 -0.0874 -0.1313  0.2112
23732W        W28032  29.942   0.502   9.072  0.2681  0.0229  0.1853
23733W        W28033  26.010   0.929  11.470  0.0485  0.0358 -0.0213
23734W        W28034  29.991   1.479  20.606 -0.1347  0.1433 -0.2325
23735W        W28035  21.099   2.711   5.286  0.0655  0.0200  0.0594
23736W        W28036   3.622   6.770  16.406 -0.1853 -0.2977  0.0613
23737W        W28037   0.180   0.704  21.523  0.2328 -0.1343 -0.0870
23738W        W28038  19.543   5.385  18.499 -0.0771 -0.3407  0.1773
23739W        W28039   1.443   4.818   6.947  0.1924  0.1798  0.1193
23740W        W28040   3.518   5.484  20.707  0.0398 -0.1205  0.0759
23741W        W28041  24.111   3.888   4.526  0.1425 -0.0497  0.0292
23742W        W28042  26.664   7.779  17.316 -0.1823  0.1290 -0.0826
23743W        W28043  27.249   3.481   0.488 -0.0115  0.1157  0.1594
23744W        W28044   2.349   4.887   8.062  0.0798  0.1599  0.2042
23745W        W28045  22.942   6.410   5.061 -0.0139 -0.1525 -0.2556
23746W        W28046  16.930   5.124  23.618  0.1042 -0.1005 -0.4511
23747W        W28047  16.602   5.191   3.385 -0.1717 -0.0190  0.3710
23748W        W28048  19.185   6.664   7.990  0.0173  0.1383 -0.2347
23749W        W28049   3.788   4.381  19.253 -0.2228  0.2865 -0.0559
23750W        W28050  30.945   0.481   7.920 -0.1125  0.0871 -0.3348
23751W        W28051  16.584   5.878   4.905 -0.0108  0.1574 -0.0833
23752W        W28052   0.298   0.452  16.653  0.4532  0.0870  0.3460
23753W        W28053  24.957   3.659   4.944  0.2836  0.0136 -0.0721
23754W        W28054   9.695   1.408  19.203 -0.1401 -0.0682 -0.1510
23755W        W28055  13.988   2.038  14.966 -0.2388  0.0298  0.1099
23756W        W28056   8.516   0.425  25.841  0.0248  0.2106 -0.1102
23757W        W28057  25.545   2.683  18.104  0.0192 -0.0704  0.3304
23758W        W28058  11.043   7.513   4.236  0.2307 -0.1391 -0.0498
23759W        W28059   0.210   6.993  17.147  0.3443  0.0110 -0.1996
23760W        W28060  27.452   6.414  10.296  0.2219 -0.0661  0.0515
23761W        W28061  13.081   2.947  11.065  0.1922  0.0146 -0.0887
23762W        W28062   5.914   5.938   3.585 -0.1090  0.0019 -0.0380
23763W        W28063   2.101   7.692   9.689  0.1782 -0.0479  0.2043
23764W        W28064  26.641   0.332  24.922  0.0737  0.3322  0.2143
23765W        W28065   9.697   2.693   1.183 -0.0449 -0.0070  0.0553
23766W        W28066  28.244   0.527  21.907 -0.0123 -0.0408 -0.0129
23767W        W28067   9.145   5.864   7.133 -0.0121 -0.2514 -0.2220
23768W        W28068  10.965   2.171   1.662  0.0482  0.1228 -0.0575
23769W        W28069  23.155   4.689   3.346 -0.4602 -0.1046  0.0515
23770W        W28070   8.957   5.002  20.121 -0.1310  0.1746  0.1065
23771W        W28071  13.144   7.445  15.885  0.0783  0.0082 -0.1863
23772W        W28072  29.405   5.530  20.576  0.0125  0.0633  0.1019
23773W        W28073   2.924   4.422  22.206  0.3652 -0.2766 -0.1850
23774W        W28074  23.950   4.764   8.157 -0.2290  0.0993 -0.3582
23775W        W28075   4.952   4.692   4.431 -0.0573 -0.1063  0.0427
23776W        W28076   0.057   5.884   0.977  0.1418 -0.1840  0.1063
23777W        W28077  12.055   2.789  10.227  0.2713 -0.1323 -0.1849
23778W        W28078  21.253   5.902   9.906  0.1536  0.0009  0.0133
23779W        W28079  12.022   2.608   0.486 -0.0090 -0.0050  0.1060
23780W        W28080   6.167   7.717   4.220 -0.1837 -0.0846  0.2775
23781W        W28081   6.906   0.452   6.350 -0.3368 -0.0548  0.1374
23782W        W28082  19.469   1.192   9.792 -0.1050 -0.0382 -0.0235
23783W        W28083   3.453   1.055  22.238 -0.0308  0.1100  0.2719
23784W        W28084   7.926   7.092   6.794 -0.0729  0.2486 -0.0517
23785W        W28085  19.676   3.456  18.723  0.1633  0.2203 -0.0407
23786W        W28086  12.659   4.732   3.000  0.1602  0.2624 -0.4345
23787W        W28087  17.416   4.797  20.952  0.2295 -0.2320  0.0492
23788W        W28088   9.625   7.543  18.102 -0.1194  0.0256 -0.0006
23789W        W28089  23.081   3.412  16.775 -0.2230 -0.1010  0.0974
23790W        W28090  10.312   0.619   7.730 -0.1144  0.1727  0.0763
23791W        W28091   6.465   7.671  17.406 -0.1283 -0.1957 -0.0905
23792W        W28092   9.568   2.414   7.387 -0.0590 -0.0584 -0.0446
23793W        W28093   3.186   4.522   1.301 -0.2000  0.1472  0.1475
23794W        W28094  11.716   5.694  23.823  0.0838 -0.3483 -0.2180
23795W        W28095  10.035   5.762  26.029  0.0834  0.0779  0.1308
23796W        W28096  28.167   7.369  20.692 -0.1332 -0.3376  0.1029
23797W        W28097  24.889   1.485   8.111 -0.4766 -0.1301  0.1419
23798W        W28098  19.607   2.941   4.952  0.1172 -0.2044  0.3598
23799W        W28099  10.906   2.464   2.599 -0.1637  0.1436 -0.1105
23800W        W28100   9.551   4.948   8.131  0.1324 -0.3861  0.3159
23801W        W28101  13.439   5.029  20.603 -0.0249  0.1250  0.1473
23802W        W28102  24.821   7.465   8.464  0.0708  0.1664  0.3199
23803W        W28103  17.704   0.281  23.400 -0.1527  0.0846 -0.2217
23804W        W28104   3.301   5.989  21.516  0.0778 -0.1544 -0.0559
23805W        W28105  13.606   0.027   8.396  0.1998 -0.1194 -0.1063
23806W        W28106  14.009   2.519   0.521  0.0100 -0.3686 -0.1912
23807W        W28107   9.740   3.161  10.364  0.0487 -0.1435  0.3885
23808W        W28108  24.994   7.684  24.823  0.2484 -0.1000 -0.1079
23809W        W28109   2.831   6.710   7.671  0.1832 -0.0191  0.0601
23810W        W28110  26.559   7.192  20.423  0.1252 -0.3636 -0.0358
23811W        W28111   5.954   3.261  22.872 -0.0209  0.3925 -0.1268
23812W        W28112  22.153   5.767   8.070  0.0807 -0.0499 -0.0237
23813W        W28113   1.613   5.638   5.041  0.0882 -0.2006  0.0012
23814W        W28114  28.655   5.134   1.580  0.3598 -0.1734 -0.0275
23815W        W28115   0.704   6.709   3.601 -0.2798  0.0910  0.0865
23816W        W28116  29.333   6.309  21.421  0.1599  0.0731 -0.1968
23817W        W28117   5.109   5.098  19.111  0.0226 -0.0535  0.0763
23818W        W28118  11.455   5.019  18.303 -0.2736  0.1176 -0.0158
23819W        W28119  15.914   5.138  25.794  0.0534  0.0660 -0.1076
23820W        W28120   3.197   7.139  23.063 -0.0885 -0.1436 -0.1291
23821W        W28121  22.224   1.787   2.573  0.1470 -0.1446  0.0780
23822W        W28122  16.614   7.218  25.623 -0.3093  0.3260 -0.0426
23823W        W28123  29.212   7.793   9.374 -0.0227  0.0817 -0.0080
23824W        W28124  27.163   5.592  25.698 -0.0676 -0.1648 -0.1924
23825ION     NA28125  23.651   2.700   3.358  0.0242  0.1350 -0.1144
23826ION     NA28126  13.810   3.009   5.181 -0.2093  0.1966  0.0946
23827ION     NA28127  14.757   2.810  15.925 -0.2343  0.1995 -0.1932
23828ION     NA28128   4.433   1.136   4.931  0.6195 -0.2052  0.0284
23829ION     NA28129   8.920   1.418   8.545  0.0469  0.1375  0.1823
23830ION     NA28130   2.733   3.423  25.104  0.1571  0.2267  0.1129
23831ION     NA28131  12.738   3.450  19.092  0.1817  0.3851  0.0033
23832ION     NA28132   2.040   5.747   6.077  0.3205 -0.2450 -0.0375
23833ION     NA28133  10.296   6.577   9.869  0.1990  0.0055 -0.0062
23834ION     NA28134   5.776   3.124   5.418 -0.1531 -0.0187 -0.2912
23835ION     NA28135  14.475   6.450  16.081  0.3256 -0.2059 -0.2154
23836ION     NA28136  24.273   3.688  22.623 -0.0628 -0.0200  0.0048
23837ION     NA28137  17.631   7.495  17.696  0.0848 -0.4748 -0.3339
23838ION     NA28138   9.812   1.819   1.967  0.3155 -0.1074 -0.2136
23839ION     NA28139  28.353   4.724  17.278 -0.0912 -0.0665 -0.2577
23840ION     NA28140   6.808   7.767  20.900  0.4551  0.3150 -0.0277
23841ION     NA28141   8.232   3.929  17.718 -0.0470  0.4847  0.0443
23842ION     NA28142  20.157   5.905  23.186  0.4166 -0.3178 -0.1387
23843ION     NA28143  15.124   1.328   4.163  0.5999  0.1194 -0.0332
23844ION     NA28144   9.233   2.814  19.095  0.1196  0.5493  0.1917
23845ION     NA28145  13.682   6.114  23.288  0.2361  0.1502 -0.2296
23846ION     NA28146  13.230   1.204  20.893  0.3669  0.0612  0.1034
23847ION     NA28147   2.149   2.272  18.186 -0.0954 -0.2324  0.0111
23848ION     NA28148   1.385   1.900   4.691  0.0899  0.4280  0.4552
23849ION     NA28149  30.677   1.040  21.944  0.1825 -0.0393 -0.1679
23850ION     NA28150  30.805   0.191  10.387  0.0838 -0.1687 -0.1640
23851ION     NA28151  26.028   0.697  19.846 -0.0526 -0.0500 -0.2746
23852ION     NA28152  24.978   3.471  22.811 -0.0453  0.0468  0.1010
23853ION     NA28153  22.735   7.536  18.969  0.7213  0.1231 -0.3555
23854ION     NA28154  25.200   6.865  22.329  0.2791 -0.1080  0.2198
23855ION     NA28155   1.255   0.668   7.329 -0.5868 -0.0916 -0.1459
23856ION     NA28156  16.669   4.966  25.029 -0.0145  0.1177  0.2497
23857ION     NA28157   1.805   6.248   0.309  0.1236  0.0065  0.1436
23858ION     NA28158  24.481   1.576   2.489 -0.0572  0.0637  0.0892
23859ION     NA28159  16.887   0.508   2.152 -0.1976  0.1655 -0.1095
23860ION     NA28160  20.390   4.709   9.056  0.2005  0.7793 -0.4765
23861ION     NA28161  26.399   7.075  24.588  0.3504  0.2130 -0.4240
23862ION     NA28162  25.572   4.509  11.227 -0.0866  0.1158 -0.2937
23863ION     NA28163  18.771   7.754   6.019  0.1009  0.2809  0.2115
23864ION     NA28164  29.487   2.459  26.308  0.0261 -0.0487 -0.1636
23865ION     NA28165  19.781   1.868  17.411 -0.1695  0.2579  0.1026
23866ION     NA28166  20.563   1.465  22.502  0.4321  0.2069  0.0778
23867ION     NA28167  20.959   3.461  16.200  0.0758  0.0266  0.5487
23868ION     NA28168   9.211   6.264   9.393  0.6789  0.0452  0.2188
23869ION     NA28169   8.213   2.769   0.347 -0.1694 -0.4224  0.3586
23870ION     NA28170   9.185   4.377   3.111 -0.0797 -0.1783 -0.1606
23871ION     NA28171  15.618   2.083   5.926 -0.1013  0.3100 -0.3240
23872ION     NA28172  26.075   1.931   0.182 -0.0770 -0.0337  0.1371
23873ION     NA28173   3.880   1.687   2.716 -0.2461  0.5909 -0.2170
23874ION     NA28174  12.578   3.153  25.058 -0.1897  0.2956  0.0888
23875ION     NA28175  17.670   7.437   6.633  0.1867  0.0585  0.2157
23876ION     NA28176  30.197   6.890  22.448  0.3257  0.2186 -0.1063
23877ION     NA28177  22.589   1.668  19.050 -0.2865 -0.1032 -0.1585
23878ION     NA28178  12.493   7.492  25.432 -0.3661  0.0410  0.0643
23879ION     NA28179  26.812   4.202  10.729 -0.2414  0.1415 -0.0161
23880ION     NA28180  21.879   2.590   0.441  0.1064 -0.4342 -0.0575
23881ION     NA28181  24.182   3.219   5.018  0.4395 -0.3503  0.0619
23882ION     NA28182   4.632   3.030  18.951  0.4810 -0.2640  0.4773
23883ION     NA28183   0.938   4.867  24.044  0.2559 -0.0163 -0.1505
23884ION     NA28184  27.878   1.921   1.777  0.0411  0.0410  0.0727
23885ION     NA28185  30.771   4.697  20.711 -0.0459  0.1735  0.3319
23886ION     NA28186   7.538   0.804   3.915  0.4609 -0.0597  0.1545
23887ION     NA28187   6.865   6.066   0.058 -0.2026 -0.1483 -0.2376
23888ION     NA28188  16.856   6.084  24.825  0.0600 -0.2562 -0.0272
23889ION     NA28189  12.532   7.466   8.634  0.3399 -0.0852 -0.5391
23890ION     NA28190  28.185   5.008  24.331  0.0940  0.1521  0.0423
23891ION     NA28191  29.334   2.431  22.073 -0.1947 -0.2645  0.7454
23892ION     NA28192   1.254   5.332  16.558  0.4509  0.3071  0.2231
23893ION     NA28193  14.222   7.169  16.890 -0.0524  0.4851 -0.1820
23894ION     NA28194   5.990   7.434  19.947  0.3231 -0.0443  0.3827
23895ION     NA28195  14.965   0.245   0.379  0.1158 -0.0488 -0.3094
23896ION     NA28196  16.489   7.772  23.804 -0.1055 -0.0380 -0.5168
23897ION     NA28197  19.327   3.353  25.103  0.0143 -0.1150  0.1235
23898ION     NA28198  20.069   1.105  21.853  0.0328  0.1221 -0.0742
23899ION     NA28199  30.874   0.132   0.332  0.2840 -0.1938 -0.1438
23900ION     NA28200  24.532   7.122   8.325  0.0107 -0.0723  0.1370
23901ION     NA28201  12.043   3.508  10.613 -0.0576 -0.3551  0.2361
23902ION     NA28202  16.977   0.730   9.833  0.1920  0.0687  0.4617
23903ION     NA28203  29.121   5.815   5.421 -0.0286  0.2571  0.2765
23904ION     NA28204  25.685   2.055  20.572 -0.2498 -0.0576 -0.2205
23905ION     NA28205  17.540   6.925  22.196 -0.2691  0.1957 -0.4694
23906ION     NA28206  11.329   3.928  26.411  0.2830  0.3324 -0.1473
23907ION     NA28207  14.839   5.691  22.267  0.1932  0.2109  0.1623
23908ION     NA28208  11.736   1.925   4.073  0.0058 -0.1736  0.1106
23909ION     NA28209  15.031   6.622  20.057 -0.1410 -0.2442  0.1911
23910ION     NA28210  29.898   1.455  18.817 -0.5633  0.0860  0.2760
23911ION     NA28211  20.248   2.456   5.431  0.1977  0.1038 -0.1492
23912ION     NA28212  22.517   7.207   0.355  0.3762  0.3397 -0.0604
23913ION     NA28213  22.467   0.021   2.904  0.1696  0.0298  0.1820
23914ION     NA28214  30.576   2.147  15.493 -0.1071  0.3420 -0.4682
23915ION     NA28215  13.795   3.553  15.006  0.1088  0.3079  0.2912
23916ION     NA28216  14.085   1.425   6.116  0.1802 -0.2919  0.3201
23917ION     NA28217   6.852   4.884  25.172  0.1151 -0.0009  0.0283
23918ION     NA28218  22.284   2.733  21.768  0.0346 -0.0367  0.1388
23919ION     NA28219  29.865   5.936  16.718 -0.2310 -0.1097 -0.4036
23920ION     NA28220   3.002   4.917   2.378  0.1078  0.0277 -0.2848
23921ION     NA28221  18.504   3.395  15.861 -0.0980 -0.0860  0.0835
23922ION     NA28222   2.638   4.872   1.767 -0.1853  0.0296  0.2644
23923ION     NA28223   7.933   7.346   7.156 -0.1156 -0.3199 -0.5372
23924ION     NA28224  12.351   4.986   1.353  0.0777 -0.2205 -0.3667
23925ION     NA28225  26.469   5.666  23.812 -0.0707  0.0678  0.0572
23926ION     NA28226  12.802   4.182   7.600 -0.4032  0.3340  0.1060
23927ION     NA28227   6.268   6.553   6.760 -0.0671  0.3026  0.1633
23928ION     NA28228  18.088   5.226  17.952  0.2640 -0.2676  0.2296
23929ION     NA28229   9.438   2.409   6.181  0.0845  0.2340  0.2677
23930ION     NA28230  14.850   2.800  10.532  0.1798 -0.4225 -0.1297
23931ION     NA28231   5.793   5.525   8.057  0.2806  0.0750 -0.0000
23932ION     NA28232  26.645   5.578  26.367 -0.2243 -0.1152  0.2770
23933ION     NA28233  13.229   0.315   1.111 -0.1821 -0.0724 -0.3193
23934ION     NA28234  11.481   5.156   6.709 -0.3033 -0.0681 -0.1585
23935ION     NA28235  11.365   5.875   9.242 -0.1037 -0.2635  0.2200
23936ION     NA28236  15.103   0.492   1.961 -0.2338 -0.0735  0.3394
23937ION     NA28237  24.145   2.602  26.106  0.4863 -0.0852  0.2056
23938ION     NA28238  18.578   2.237  20.127 -0.1383 -0.3912 -0.0113
23939ION     NA28239  24.528   7.555  15.966  0.0655  0.2020 -0.4177
23940ION     NA28240   6.810   7.050  26.063 -0.5465  0.3230 -0.0530
23941ION     NA28241  20.392   0.599  17.502  0.1566 -0.5369 -0.0079
23942ION     NA28242  16.738   5.222   9.214 -0.4844 -0.0012 -0.0280
23943ION     NA28243   0.556   6.891  24.901 -0.0259 -0.3253 -0.1407
23944ION     NA28244  29.426   1.684   1.814 -0.0391  0.5512 -0.3574
23945ION     NA28245  22.800   3.135  22.595 -0.0358  0.0132  0.0815
23946ION     NA28246  31.182   7.444   9.884  0.4828  0.0804 -0.1058
23947ION     NA28247   7.463   4.116  23.268 -0.0890  0.4112 -0.1345
23948ION     NA28248  13.367   7.512  18.045  0.0511  0.1783  0.1564
23949ION     NA28249  14.030   4.491  22.246  0.0682 -0.2397  0.7052
23950ION     NA28250  28.579   2.876  20.748  0.0596 -0.2683 -0.2534
23951ION     NA28251  15.610   5.801  14.753 -0.0150  0.2997  0.5130
23952ION     NA28252  17.312   6.775  26.025 -0.2141 -0.2523  0.4166
23953ION     NA28253   9.440   2.830   5.474 -0.2452  0.1452 -0.3403
23954ION     NA28254   6.746   2.936  24.252 -0.1737  0.0861  0.2834
23955ION     NA28255  22.007   5.928   7.684  0.3648 -0.0601  0.5499
23956ION     NA28256   5.453   4.602  16.029  0.3257 -0.7012  0.2842
23957ION     NA28257  27.593   3.583   0.658 -0.3445 -0.1800 -0.1948
23958ION     NA28258  26.777   3.495   7.801  0.0452 -0.0361  0.0287
23959ION     NA28259   2.664   3.234  21.874 -0.4586  0.4091  0.3981
23960ION     NA28260  13.655   2.804   2.466  0.4723  0.2314 -0.0201
23961ION     NA28261  30.985   4.269  20.164  0.2554  0.1921 -0.0245
23962ION     NA28262  28.087   4.720  26.230 -0.2204 -0.0281  0.4472
23963ION     NA28263  10.208   7.059  25.022 -0.0959 -0.0523 -0.0232
23964ION     NA28264  10.939   2.909  11.193 -0.3381 -0.1346  0.0508
23965ION     NA28265  20.909   1.474   1.533 -0.2302  0.0718  0.3450
23966ION     NA28266  19.492   0.591  19.915 -0.1768 -0.1069 -0.0706
23967ION     NA28267  24.156   3.865  16.842  0.2008  0.0192  0.2334
23968ION     NA28268  14.779   0.344   2.629 -0.5902 -0.1960  0.2593
23969ION     NA28269  30.645   6.911  20.104  0.3097  0.0852  0.2772
23970ION     NA28270   2.814   7.384   4.601 -0.0978 -0.1935 -0.1311
23971ION     NA28271   2.078   5.408   7.025  0.0567  0.0837  0.0241
23972ION     NA28272   4.283   2.214  20.470  0.4530 -0.0146 -0.5647
23973ION     NA28273  20.255   3.720  16.896 -0.0518  0.1842 -0.2955
23974ION     NA28274  17.224   6.756   6.389 -0.0013  0.0210  0.4494
23975ION     NA28275  30.729   4.604  15.832  0.1879  0.1914  0.0515
23976ION     NA28276  26.923   3.652   2.761 -0.3625  0.0706 -0.0791
23977ION     NA28277   3.228   3.170   5.435  0.1158  0.0206  0.0859
23978ION     NA28278   0.454   3.153   0.542  0.2138 -0.4953  0.4211
23979ION     NA28279   0.039   4.762  10.568 -0.0988  0.0173  0.0602
23980ION     NA28280  24.181   4.596   1.677 -0.1111  0.2650  0.3352
23981ION     NA28281   7.433   3.251  22.136  0.1389 -0.2043  0.1714
23982ION     NA28282   9.985   4.128   0.882  0.0454 -0.0597 -0.0727
23983ION     NA28283   5.562   0.620  24.205  0.2608  0.0792  0.2471
23984ION     NA28284  30.673   4.170  23.491  0.2701  0.2827 -0.3685
23985ION     NA28285  14.662   1.955   8.515 -0.2521 -0.0854 -0.1219
23986ION     NA28286   3.780   3.652  18.578 -0.1823  0.0965  0.0313
23987ION     NA28287  15.406   4.950   5.687 -0.0677  0.3609  0.4471
23988ION     NA28288   8.793   2.331   8.188  0.3283  0.5770 -0.2421
23989ION     NA28289  30.266   6.651  19.190 -0.2415  0.2233 -0.2248
23990ION     NA28290  22.194   3.291   9.826  0.0432 -0.2365 -0.1982
23991ION     NA28291  15.647   6.769   7.657  0.0865  0.3281 -0.5951
23992ION     NA28292   6.355   4.493  25.767 -0.1861  0.0619 -0.4127
23993ION     NA28293  12.844   0.168  22.407 -0.0170  0.1519  0.2881
23994ION     NA28294  24.966   0.598  21.271 -0.3198  0.2517  0.4531
23995ION     NA28295  12.931   3.251   4.613 -0.1714 -0.1979 -0.0791
23996ION     NA28296  29.687   3.002  19.583 -0.4032 -0.7782  0.2999
23997ION     NA28297   1.453   2.039  10.827 -0.3347 -0.0245 -0.0695
23998ION     NA28298  14.035   1.364   3.230 -0.0338  0.0329  0.4106
23999ION     NA28299  22.791   0.309   0.774  0.0318  0.1730  0.0651
24000ION     NA28300   9.140   2.901  26.210  0.1700  0.2374 -0.1450
24001ION     NA28301   0.097   5.329   0.525 -0.1772  0.1460 -0.1087
24002ION     NA28302  29.836   1.353   9.211  0.1172  0.0933  0.0791
24003ION     NA28303   8.597   5.635  20.718 -0.0140 -0.0526 -0.1236
24004ION     NA28304  19.033   4.497   3.397  0.1361 -0.3457 -0.0888
24005ION     NA28305  29.064   1.209  23.593 -0.4700 -0.0480  0.3319
24006ION     NA28306  12.403   6.680   2.042 -0.0258  0.1352  0.0791
24007ION     NA28307   4.809   3.629   6.921 -0.0969  0.6552  0.3507
24008ION     NA28308  20.946   4.606  18.431 -0.1175  0.2233 -0.5429
24009ION     NA28309  18.118   1.814  24.906 -0.0607  0.2330 -0.0190
24010ION     NA28310   6.599   1.839   3.145 -0.1338 -0.0962  0.3623
24011ION     NA28311  14.569   3.460  20.791  0.2141  0.4342  0.2838
24012ION     NA28312  15.529   6.022   6.191  0.2714 -0.3753 -0.2256
24013ION     NA28313  17.312   5.082   7.478 -0.0087  0.0659 -0.2081
24014ION     NA28314  19.338   1.958  21.604  0.0732 -0.1376 -0.1173
24015ION     NA28315  24.278   0.997  11.289 -0.0427 -0.4010 -0.3428
24016ION     NA28316   3.906   6.878  24.591  0.1255 -0.1282 -0.2421
24017ION     NA28317   8.157   1.224  17.319 -0.1431 -0.0186 -0.1922
24018ION     NA28318  13.743   5.001  15.734 -0.0655  0.1593 -0.0151
24019ION     NA28319   9.066   5.415  24.735  0.0225  0.1945  0.3260
24020ION     CL28320  15.417   0.089  16.186 -0.2748  0.0618 -0.0795
24021ION     CL28321  26.938   2.254   9.734  0.2276  0.2128 -0.2464
24022ION     CL28322   7.129   4.678   0.566 -0.3260  0.3362 -0.3563
24023ION     CL28323  26.351   2.843  19.619 -0.0707  0.3829  0.0229
24024ION     CL28324  15.363   4.306  22.057  0.0306 -0.3363  0.1279
24025ION     CL28325   2.999   1.841  19.167 -0.0419 -0.1401 -0.4732
24026ION     CL28326  28.010   6.640   1.197  0.1328  0.1480 -0.0476
24027ION     CL28327  12.392   7.016  22.529  0.0514 -0.3334  0.0547
24028ION     CL28328   8.595   2.453  25.757  0.1477 -0.1464  0.3354
24029ION     CL28329  19.825   7.646   5.525 -0.0914 -0.3494  0.4451
24030ION     CL28330  24.533   2.631  25.693  0.3087  0.3091  0.2100
24031ION     CL28331  30.002   6.904   0.395  0.5489  0.1829  0.3154
24032ION     CL28332  27.520   3.768   0.301 -0.3288 -0.0216  0.1721
24033ION     CL28333  18.983   5.488  21.259  0.2585  0.0194 -0.3050
24034ION     CL28334  21.024   5.639  20.029 -0.3453 -0.0316 -0.1056
24035ION     CL28335  10.126   6.924  24.136  0.0991  0.1393  0.2366
24036ION     CL28336   0.191   4.398  23.478 -0.3382  0.0957  0.1417
24037ION     CL28337  17.249   2.174  21.679  0.3060 -0.1008  0.0812
24038ION     CL28338  13.804   6.884   9.242 -0.6846 -0.0104 -0.0090
24039ION     CL28339  23.579   0.337  10.691  0.2504  0.2124  0.5319
24040ION     CL28340   3.721   1.030  26.396  0.2650 -0.2100 -0.6796
24041ION     CL28341  30.454   4.031   8.730 -0.2769  0.1132  0.1370
24042ION     CL28342  24.765   1.107  16.372  0.1993  0.2140 -0.6402
24043ION     CL28343  29.607   1.224  22.560  0.0625 -0.1033 -0.2119
24044ION     CL28344  29.196   0.516   1.267  0.5706 -0.1772  0.1353
24045ION     CL28345   1.221   6.714   1.953  0.0077  0.0248 -0.0623
24046ION     CL28346  15.625   7.136   6.856 -0.3279 -0.2387  0.2816
24047ION     CL28347  11.665   0.459   1.675  0.3143  0.7246  0.4743
24048ION     CL28348   1.114   3.933  24.011 -0.1490  0.0446  0.1392
24049ION     CL28349  26.165   7.227  19.551  0.3013 -0.0272 -0.2224
24050ION     CL28350  27.070   4.584   1.790  0.0562  0.4051  0.1579
24051ION     CL28351  29.847   1.337   3.606 -0.3724  0.3771  0.2277
24052ION     CL28352  29.878   1.111  18.436 -0.0525  0.2863  0.4949
24053ION     CL28353   8.346   6.983  16.655  0.2223 -0.2230 -0.1834
24054ION     CL28354   6.144   2.182   3.248 -0.0944 -0.3315  0.0844
24055ION     CL28355  20.283   1.094   7.650 -0.2370 -0.1542 -0.1879
24056ION     CL28356  28.656   5.856   9.939  0.0349  0.2610 -0.0064
24057ION     CL28357  10.054   5.660  20.684  0.2318  0.0322 -0.3666
24058ION     CL28358   2.960   5.526  16.505  0.4125  0.0488 -0.1524
24059ION     CL28359  10.180   3.008   0.366  0.3097  0.4880  0.1433
24060ION     CL28360  30.013   0.801   9.318  0.1013 -0.3494 -0.3036
24061ION     CL28361   4.486   4.866  20.873 -0.0987  0.9065  0.0559
24062ION     CL28362   4.637   5.533  16.331  0.1786 -0.3351  0.2131
24063ION     CL28363  25.458   3.189   8.499 -0.0050  0.0707 -0.3085
24064ION     CL28364  22.135   2.689   3.776  0.3915 -0.1407  0.1323
24065ION     CL28365  23.582   3.359  25.836 -0.3463 -0.5564 -0.0262
24066ION     CL28366  30.985   2.522   9.094 -0.2056  0.1203 -0.0798
24067ION     CL28367  17.076   7.354  23.951 -0.6134 -0.2712 -0.0775
24068ION     CL28368  30.663   0.278  10.028 -0.0645  0.0039 -0.2080
24069ION     CL28369   7.562   5.169  25.413 -0.1523 -0.1825 -0.0757
24070ION     CL28370  21.668   2.675   0.743  0.0516 -0.2834 -0.1241
24071ION     CL28371  22.640   1.036  23.439  0.1016  0.1113 -0.5470
24072ION     CL28372  16.337   0.574  19.053 -0.1268 -0.0608  0.2697
24073ION     CL28373   6.169   0.515  18.485  0.1030  0.0138 -0.0355
24074ION     CL28374  28.093   2.402   7.424  0.3018 -0.2911 -0.2549
24075ION     CL28375  27.476   7.030  10.425 -0.1719  0.1405 -0.1057
24076ION     CL28376  26.547   2.765   8.775 -0.0470  0.0449 -0.0254
24077ION     CL28377   3.706   6.065  16.180 -0.2558  0.1304 -0.1866
24078ION     CL28378  20.948   0.076   6.556  0.4267 -0.1003  0.1537
24079ION     CL28379   4.837   3.542   2.662  0.0895  0.0557  0.0441
24080ION     CL28380  25.654   3.549   5.071  0.2938  0.1703  0.0494
24081ION     CL28381   4.123   0.942   4.373 -0.4649  0.0384  0.0423
24082ION     CL28382  20.334   1.434  22.755  0.7867  0.3237  0.4239
24083ION     CL28383  15.834   7.009   8.044  0.2902 -0.0422  0.2341
24084ION     CL28384  25.476   2.856  23.737 -0.6487 -0.2153  0.2866
24085ION     CL28385  22.731   1.127   5.557 -0.3925 -0.3138  0.1119
24086ION     CL28386  20.231   6.064  16.002 -0.1040 -0.0423 -0.0189
24087ION     CL28387  11.473   0.457   9.695 -0.0828 -0.5611  0.3569
24088ION     CL28388  20.967   4.683  21.483  0.1049 -0.3550  0.1053
24089ION     CL28389  12.803   4.552   1.218  0.2323 -0.3156  0.0440
24090ION     CL28390  16.262   0.259  23.673 -0.1073 -0.0249 -0.4900
24091ION     CL28391   9.712   4.076   0.659 -0.0383 -0.0618  0.4680
24092ION     CL28392  14.448   2.850  16.120  0.0251 -0.2037 -0.1264
24093ION     CL28393   2.839   4.669   1.052  0.1758  0.1924 -0.1272
24094ION     CL28394   4.958   0.513  24.258  0.0282 -0.0348 -0.2850
24095ION     CL28395   6.789   6.707  26.066  0.1832  0.2692  0.0723
24096ION     CL28396  11.419   4.655  24.848 -0.3356 -0.1747 -0.2823
24097ION     CL28397  19.803   2.518   3.184 -0.1302 -0.1726  0.0404
24098ION     CL28398  13.600   2.577   0.421  0.0400  0.1101  0.0373
24099ION     CL28399  30.880   3.477  21.530 -0.1282  0.2026 -0.2177
24100ION     CL28400  10.652   4.465   8.983  0.0848  0.6755 -0.3741
24101ION     CL28401  15.978   6.852   5.604  0.3102  0.2676 -0.0657
24102ION     CL28402  30.570   5.116  19.463 -0.0910  0.1395  0.2614
24103ION     CL28403  12.751   7.670  22.178 -0.1316 -0.0430  0.1114
24104ION     CL28404   9.021   3.341  19.519 -0.1571  0.1311  0.0558
24105ION     CL28405  16.497   6.278   1.442  0.1125  0.1199  0.3386
24106ION     CL28406  10.365   6.667  10.293 -0.0005  0.1352  0.0601
24107ION     CL28407   1.016   5.957   5.165  0.4586  0.4781  0.4001
24108ION     CL28408  25.766   7.040  25.571  0.2492 -0.0374 -0.2558
24109ION     CL28409  20.814   1.017   6.759 -0.3834  0.1537  0.0591
24110ION     CL28410  22.785   5.298  22.150 -0.3733 -0.0425 -0.0997
24111ION     CL28411   6.594   6.730   6.819  0.1957 -0.0496  0.0961
24112ION     CL28412   3.943   3.233   8.216 -0.5260  0.1151 -0.1506
24113ION     CL28413  21.383   0.817   8.475 -0.1398 -0.2821  0.3948
24114ION     CL28414   2.709   6.611  24.463  0.1761 -0.3909 -0.2118
24115ION     CL28415   9.269   5.191   8.726 -0.3129 -0.1729  0.1660
24116ION     CL28416  22.326   2.859   5.317 -0.0187 -0.3370 -0.0235
24117ION     CL28417  20.700   5.652  21.211 -0.1293 -0.1987  0.6845
24118ION     CL28418  21.467   2.490   2.962 -0.2744  0.3721  0.4295
24119ION     CL28419  18.667   5.552   9.968 -0.0353  0.0108  0.1770
24120ION     CL28420   5.126   6.686   5.475  0.4913 -0.1930 -0.0268
24121ION     CL28421  14.415   5.794  18.853  0.0365 -0.4561  0.4398
24122ION     CL28422  26.013   1.865  16.093 -0.1657  0.1168  0.2058
24123ION     CL28423  23.128   7.491   3.178  0.0154 -0.1362 -0.2717
24124ION     CL28424   7.434   0.887  25.396 -0.2223  0.1053 -0.7525
24125ION     CL28425  11.051   3.555   2.658  0.2141 -0.1634 -0.2727
24126ION     CL28426   0.286   5.585   0.644 -0.2083 -0.4403  0.0088
24127ION     CL28427  31.027   2.773  16.363  0.2760  0.0836  0.0842
24128ION     CL28428  27.290   2.931  25.701 -0.1050  0.3162 -0.4993
24129ION     CL28429  30.029   7.137  17.487 -0.2410  0.1874 -0.1746
24130ION     CL28430  12.195   5.913  21.983  0.3215  0.3374 -0.0812
24131ION     CL28431  27.363   5.542  20.318  0.1077  0.0150  0.2884
24132ION     CL28432  23.904   1.699  22.248 -0.0860  0.3613  0.0094
24133ION     CL28433  26.938   5.367   4.580  0.1407 -0.0617  0.3363
24134ION     CL28434   4.655   7.272   9.206  0.0023  0.0290  0.0778
24135ION     CL28435  13.286   7.763   3.224 -0.0514  0.1590 -0.0935
24136ION     CL28436   8.689   4.775   6.589  0.0800 -0.2406  0.1799
24137ION     CL28437  17.968   6.131  19.109  0.1613  0.0764 -0.4191
24138ION     CL28438   3.653   6.044   6.089 -0.0723  0.4258  0.1211
24139ION     CL28439  24.425   4.499  20.701  0.2234 -0.1550 -0.1900
24140ION     CL28440  18.134   7.040  18.755 -0.3058  0.1544 -0.0470
24141ION     CL28441  16.003   0.297  21.269  0.0136  0.0483  0.1468
24142ION     CL28442  30.557   4.450  10.454 -0.2078 -0.2674 -0.0680
24143ION     CL28443   7.441   3.592  22.687  0.2640  0.3324  0.1284
24144ION     CL28444  20.119   0.861  22.183 -0.0643  0.1780 -0.0336
24145ION     CL28445  22.165   0.154   3.185 -0.3073 -0.0812 -0.6532
24146ION     CL28446   4.584   3.871  17.707 -0.0399  0.5770 -0.2273
24147ION     CL28447  20.198   0.302   5.812 -0.1226 -0.1289 -0.0656
24148ION     CL28448   7.354   2.815  17.379  0.3780 -0.1105  0.0131
24149ION     CL28449  22.052   2.435  21.756 -0.0438 -0.2340  0.1044
24150ION     CL28450  22.469   2.169   7.869  0.2093 -0.1697 -0.3156
24151ION     CL28451  12.994   4.012   7.157 -0.3687 -0.4939  0.1831
24152ION     CL28452  23.187   4.648   4.395 -0.0639  0.0482  0.3207
24153ION     CL28453  11.997   5.599   6.862  0.0225  0.1878 -0.0347
24154ION     CL28454  30.974   3.918  20.333  0.0405 -0.2999 -0.1789
24155ION     CL28455   2.839   6.381  25.439 -0.1587  0.0763 -0.0100
24156ION     CL28456  26.641   4.545  17.225  0.0710  0.0874  0.0431
24157ION     CL28457   3.253   7.064   4.191  0.1973  0.0616  0.1446
24158ION     CL28458  16.530   2.304  21.275  0.2493  0.1330  0.4700
24159ION     CL28459  21.384   3.388   1.166 -0.2130 -0.2253  0.0678
24160ION     CL28460  28.068   2.596  18.341 -0.5661  0.3726  0.2369
24161ION     CL28461   6.358   5.122  10.307 -0.4151  0.0070 -0.3910
24162ION     CL28462  19.921   0.337  19.125  0.2068  0.3477 -0.5398
24163ION     CL28463  27.253   4.835   0.587 -0.0066  0.3484 -0.1153
24164ION     CL28464  31.062   0.526  22.721  0.1085 -0.1961  0.1499
24165DOPC   NC328465  21.699   4.338  15.785 -0.1488 -0.0862 -0.1442
24165DOPC   PO428466  21.387   4.188  15.595  0.1250 -0.0464  0.2168
24165DOPC   GL128467  21.494   4.091  15.121  0.3349  0.0450  0.2973
24165DOPC   GL228468  21.284   4.345  15.140  0.2993  0.3184  0.0466
24165DOPC   C1A28469  21.337   3.882  14.731 -0.0323 -0.0456  0.1602
24165DOPC   D2A28470  21.042   3.886  14.321 -0.2384  0.3821 -0.0186
24165DOPC   C3A28471  21.280   4.003  13.921  0.2026  0.2063 -0.1169
24165DOPC   C4A28472  21.685   4.330  13.907 -0.2587  0.1016  0.0750
24165DOPC   C1B28473  21.059   4.384  14.763  0.2174  0.0501 -0.1517
24165DOPC   D2B28474  20.916   4.534  14.323 -0.0573  0.3125 -0.0418
24165DOPC   C3B28475  21.187   4.540  13.936 -0.0804  0.0921  0.0267
24165DOPC   C4B28476  21.359   4.768  13.533  0.0576 -0.2489  0.3276
24166DOPC   NC328477  22.547   7.052  16.249 -0.0263  0.0637  0.4839
24166DOPC   PO428478  22.639   7.182  15.875 -0.0516 -0.3403 -0.0595
24166DOPC   GL128479  22.618   7.163  15.496 -0.1380 -0.0903 -0.5470
24166DOPC   GL228480  22.560   7.408  15.282  0.1702 -0.2362 -0.0972
24166DOPC   C1A28481  22.271   7.017  15.286  0.3329  0.3973  0.1064
24166DOPC   D2A28482  22.027   6.926  14.909  0.2011 -0.1468  0.3187
24166DOPC   C3A28483  21.772   6.934  14.476 -0.4107  0.2141  0.0674
24166DOPC   C4A28484  21.578   6.848  14.072  0.4730 -0.0317  0.0770
24166DOPC   C1B28485  22.447   7.282  14.879 -0.2481 -0.2810 -0.1223
24166DOPC   D2B28486  22.149   7.293  14.466  0.0113 -0.4546 -0.0664
24166DOPC   C3B28487  21.890   7.336  14.070 -0.2461  0.0382 -0.2109
24166DOPC   C4B28488  21.930   7.596  13.723 -0.2194 -0.3788  0.2730
24167DOPC   NC328489  14.736   3.537  14.978  0.1719  0.0295  0.5408
24167DOPC   PO428490  14.930   3.188  15.071 -0.1747  0.1633 -0.1892
24167DOPC   GL128491  15.143   3.101  14.772 -0.1290  0.0705  0.2272
24167DOPC   GL228492  15.090   2.773  14.705  0.2554  0.0561  0.3995
24167DOPC   C1A28493  15.356   3.289  14.458 -0.2387  0.1716 -0.2367
24167DOPC   D2A28494  15.489   3.698  14.164  0.2251 -0.0105 -0.1297
24167DOPC   C3A28495  15.127   3.762  13.881 -0.2782  0.1579 -0.2692
24167DOPC   C4A28496  14.676   3.959  13.817 -0.0992 -0.2856 -0.2674
24167DOPC   C1B28497  14.976   2.920  14.299  0.1174 -0.0212  0.0803
24167DOPC   D2B28498  14.658   2.981  13.891 -0.2185  0.2430  0.1966
24167DOPC   C3B28499  14.708   3.381  13.618 -0.0944  0.1112 -0.1028
24167DOPC   C4B28500  14.775   3.698  13.330 -0.0573 -0.3371 -0.3413
24168DOPC   NC328501   7.577   6.737  15.158  0.2281  0.1432  0.2906
24168DOPC   PO428502   7.426   7.007  15.004 -0.0263  0.0056 -0.0795
24168DOPC   GL128503   7.279   6.854  14.729 -0.0839  0.0838  0.0795
24168DOPC   GL228504   7.369   6.536  14.730 -0.2203 -0.1349  0.0425
24168DOPC   C1A28505   7.219   7.105  14.396  0.1416  0.1683 -0.0940
24168DOPC   D2A28506   7.332   7.283  14.035 -0.1696  0.0482 -0.1688
24168DOPC   C3A28507   7.421   7.721  14.113 -0.0527 -0.0447 -0.0652
24168DOPC   C4A28508   7.572   8.121  14.285 -0.0187  0.0940 -0.1338
24168DOPC   C1B28509   7.079   6.399  14.376 -0.0127  0.2512  0.1660
24168DOPC   D2B28510   7.141   6.294  13.985  0.0362  0.1481 -0.2879
24168DOPC   C3B28511   7.209   6.442  13.613  0.1102 -0.0121  0.0996
24168DOPC   C4B28512   7.058   6.618  13.221  0.2411 -0.0245 -0.2597
24169DOPC   NC328513   1.658   2.470  14.924 -0.0289 -0.2403  0.0892
24169DOPC   PO428514   1.973   2.433  15.151  0.2079 -0.2491 -0.2272
24169DOPC   GL128515   2.363   2.209  15.006 -0.2097  0.3917  0.3094
24169DOPC   GL228516   2.205   1.995  14.979  0.2300  0.2088 -0.1476
24169DOPC   C1A28517   2.545   2.175  14.611  0.0494  0.1312  0.0942
24169DOPC   D2A28518   2.724   2.148  14.146 -0.0926 -0.2203  0.0823
24169DOPC   C3A28519   2.605   1.799  13.845  0.2301 -0.1742 -0.1308
24169DOPC   C4A28520   2.597   1.587  13.393  0.4047  0.0282 -0.2191
24169DOPC   C1B28521   2.099   1.749  14.617  0.0764  0.2620  0.1533
24169DOPC   D2B28522   1.976   1.676  14.153  0.1862 -0.1382  0.0940
24169DOPC   C3B28523   1.762   2.044  13.941 -0.1569 -0.2379  0.1296
24169DOPC   C4B28524   1.462   2.402  13.702  0.1208 -0.1612  0.0578
24170DOPC   NC328525  10.889   0.334  15.026  0.3411 -0.1313  0.1045
24170DOPC   PO428526  10.822  -0.049  14.954 -0.0270 -0.0318 -0.1135
24170DOPC   GL128527  10.779  -0.061  14.603 -0.2682 -0.0018  0.2741
24170DOPC   GL228528  11.025  -0.122  14.474 -0.0773 -0.0478  0.1569
24170DOPC   C1A28529  10.454   0.055  14.309  0.1717  0.1532 -0.2799
24170DOPC   D2A28530  10.336   0.257  13.896 -0.0804  0.1316  0.0263
24170DOPC   C3A28531  10.055   0.633  13.826  0.0988  0.3367 -0.0778
24170DOPC   C4A28532   9.671   0.897  13.655 -0.0900  0.1660 -0.1617
24170DOPC   C1B28533  11.174  -0.294  14.088 -0.0416 -0.1538 -0.3743
24170DOPC   D2B28534  11.360  -0.598  13.715  0.0019 -0.0377  0.0149
24170DOPC   C3B28535  11.179  -0.715  13.349  0.2521 -0.0819 -0.4872
24170DOPC   C4B28536  10.737  -0.585  13.192  0.1452 -0.0422 -0.1580
24171DOPC   NC328537  22.147   6.812  15.733 -0.0842 -0.2522 -0.0721
24171DOPC   PO428538  22.363   6.489  15.811 -0.2990 -0.0250 -0.2633
24171DOPC   GL128539  22.426   6.133  15.565  0.0830  0.0477 -0.0091
24171DOPC   GL228540  22.638   6.273  15.375  0.2760 -0.1720 -0.0282
24171DOPC   C1A28541  22.085   6.065  15.304  0.3141 -0.1939  0.1621
24171DOPC   D2A28542  21.988   6.031  14.801 -0.0051  0.1264  0.0816
24171DOPC   C3A28543  22.146   6.101  14.338  0.1413  0.1385 -0.0279
24171DOPC   C4A28544  22.457   5.922  14.021  0.0903  0.0055 -0.3086
24171DOPC   C1B28545  22.676   6.023  14.991  0.0761  0.0312  0.1467
24171DOPC   D2B28546  22.427   5.775  14.571  0.1690  0.0639 -0.0569
24171DOPC   C3B28547  22.327   5.403  14.324 -0.2122 -0.0215  0.2940
24171DOPC   C4B28548  21.994   5.053  14.129  0.0933  0.1546 -0.2347
24172DOPC   NC328549  29.005   7.797  15.319  0.2241 -0.0299 -0.0210
24172DOPC   PO428550  28.620   7.803  15.263  0.1743  0.0701 -0.3898
24172DOPC   GL128551  28.457   7.798  14.881 -0.0454 -0.2784  0.1591
24172DOPC   GL228552  28.301   8.022  14.957 -0.5852  0.2234 -0.1331
24172DOPC   C1A28553  28.570   7.925  14.453 -0.2288  0.1196 -0.0246
24172DOPC   D2A28554  28.626   8.062  13.984 -0.0628  0.0921 -0.2678
24172DOPC   C3A28555  28.808   8.092  13.544  0.0822  0.0247  0.0787
24172DOPC   C4A28556  29.267   8.179  13.341  0.0587 -0.0300  0.0891
24172DOPC   C1B28557  28.295   8.379  14.739 -0.0205 -0.2136  0.1228
24172DOPC   D2B28558  28.278   8.884  14.609  0.3837 -0.0417 -0.2622
24172DOPC   C3B28559  28.331   8.958  14.152 -0.0436 -0.1209 -0.0475
24172DOPC   C4B28560  28.432   9.047  13.672  0.0089  0.1349 -0.2942
24173DOPC   NC328561   6.517   7.712  15.108 -0.0298  0.2625  0.3383
24173DOPC   PO428562   6.264   7.993  14.973  0.1193 -0.2559  0.1612
24173DOPC   GL128563   6.378   8.149  14.611 -0.0375  0.5607 -0.1186
24173DOPC   GL228564   6.138   7.969  14.499 -0.2848 -0.1814  0.1765
24173DOPC   C1A28565   6.534   8.157  14.247  0.1123 -0.0871 -0.1575
24173DOPC   D2A28566   6.550   8.134  13.731  0.3210 -0.2962 -0.1990
24173DOPC   C3A28567   6.618   8.026  13.313 -0.0974  0.1020  0.2834
24173DOPC   C4A28568   6.707   7.754  12.936  0.0389  0.1324 -0.0084
24173DOPC   C1B28569   6.178   7.999  14.034  0.0777  0.0759  0.2906
24173DOPC   D2B28570   5.858   8.314  13.769 -0.2418 -0.0241  0.1841
24173DOPC   C3B28571   5.643   8.174  13.335 -0.1401 -0.0603  0.0098
24173DOPC   C4B28572   5.790   7.947  12.898 -0.0765  0.1093  0.0369
24174DOPC   NC328573   1.095   4.894  14.962  0.1744 -0.2269  0.1133
24174DOPC   PO428574   1.020   5.236  15.145  0.4861 -0.2420 -0.2818
24174DOPC   GL128575   1.124   5.352  14.824 -0.0720  0.0938  0.0275
24174DOPC   GL228576   1.206   5.628  14.786  0.2769  0.0281  0.0310
24174DOPC   C1A28577   1.026   5.085  14.437  0.0997 -0.0480  0.1278
24174DOPC   D2A28578   0.972   4.735  14.127  0.1301  0.0699 -0.0201
24174DOPC   C3A28579   0.998   4.454  13.743 -0.0910 -0.1111  0.0852
24174DOPC   C4A28580   1.011   4.324  13.254  0.1358  0.2755  0.0349
24174DOPC   C1B28581   1.187   5.709  14.379 -0.0854  0.1862  0.1576
24174DOPC   D2B28582   1.356   5.803  13.903  0.2240 -0.1003  0.0688
24174DOPC   C3B28583   1.496   5.408  13.662  0.0051 -0.0975 -0.0115
24174DOPC   C4B28584   1.572   5.039  13.394  0.1316 -0.4752  0.0493
24175DOPC   NC328585  25.066   0.233  15.648  0.2308  0.0873  0.1384
24175DOPC   PO428586  24.850  -0.099  15.627 -0.1244  0.0327  0.2699
24175DOPC   GL128587  24.714  -0.211  15.243 -0.2082  0.0425 -0.5327
24175DOPC   GL228588  24.800   0.082  15.178 -0.0897  0.2909 -0.2040
24175DOPC   C1A28589  24.677  -0.481  14.926 -0.0754 -0.2203  0.2595
24175DOPC   D2A28590  24.680  -0.796  14.590  0.1919 -0.2983  0.4164
24175DOPC   C3A28591  25.124  -0.790  14.386 -0.2451 -0.1563 -0.1962
24175DOPC   C4A28592  25.490  -0.665  14.292  0.0413 -0.1938 -0.3438
24175DOPC   C1B28593  24.769   0.211  14.793  0.1206  0.2223 -0.1394
24175DOPC   D2B28594  24.529   0.164  14.365 -0.2142 -0.2405  0.3384
24175DOPC   C3B28595  24.252   0.279  14.000 -0.1426  0.2314  0.0902
24175DOPC   C4B28596  23.856   0.474  13.899 -0.1376  0.1699 -0.1503
24176DOPC   NC328597  12.272   0.887  15.618  0.2389 -0.2580 -0.0045
24176DOPC   PO428598  12.434   1.231  15.502 -0.0628  0.0908 -0.2486
24176DOPC   GL128599  12.506   1.346  15.140 -0.0748  0.0845 -0.2037
24176DOPC   GL228600  12.260   1.154  15.013 -0.1666 -0.0122 -0.1753
24176DOPC   C1A28601  12.400   1.473  14.744  0.0482 -0.1928  0.0967
24176DOPC   D2A28602  12.191   1.663  14.333  0.2491 -0.0732  0.1831
24176DOPC   C3A28603  12.278   1.779  13.862 -0.0854 -0.1470  0.0622
24176DOPC   C4A28604  12.459   1.914  13.398  0.1485  0.4338 -0.1972
24176DOPC   C1B28605  12.512   0.986  14.726 -0.2476  0.4004  0.1682
24176DOPC   D2B28606  12.825   1.051  14.380 -0.1566  0.0392  0.1500
24176DOPC   C3B28607  12.909   1.124  13.955  0.4571  0.0658 -0.0951
24176DOPC   C4B28608  12.942   1.155  13.476  0.0071 -0.0060 -0.0411
24177DOPC   NC328609  30.629   3.473  14.912 -0.0530 -0.2912  0.1719
24177DOPC   PO428610  30.824   3.166  14.974  0.1825 -0.1496  0.3018
24177DOPC   GL128611  30.954   3.057  14.611 -0.0672  0.2737 -0.1165
24177DOPC   GL228612  30.770   3.323  14.510 -0.2366 -0.0652 -0.1683
24177DOPC   C1A28613  30.983   2.921  14.171  0.1410 -0.1193 -0.2242
24177DOPC   D2A28614  30.698   2.904  13.792 -0.1041  0.2121  0.0614
24177DOPC   C3A28615  30.868   2.642  13.401 -0.1963 -0.0254 -0.0925
24177DOPC   C4A28616  30.987   2.426  12.989 -0.1971 -0.2254  0.0798
24177DOPC   C1B28617  30.551   3.225  14.130  0.0627  0.0207  0.0816
24177DOPC   D2B28618  30.288   3.262  13.776  0.2709 -0.1724 -0.1834
24177DOPC   C3B28619  30.028   3.061  13.469 -0.1476 -0.0436 -0.1263
24177DOPC   C4B28620  29.736   3.040  13.089 -0.2509 -0.1470 -0.1127
24178DOPC   NC328621  13.732   5.212  14.697  0.1270  0.3610  0.0438
24178DOPC   PO428622  13.818   5.565  14.799  0.1128  0.0875  0.1512
24178DOPC   GL128623  14.084   5.737  14.517 -0.2479 -0.2193 -0.2677
24178DOPC   GL228624  13.857   5.872  14.421 -0.3586  0.2141  0.1181
24178DOPC   C1A28625  14.244   5.597  14.148 -0.2326 -0.0213  0.1978
24178DOPC   D2A28626  14.437   5.561  13.731  0.0062 -0.1927  0.1289
24178DOPC   C3A28627  14.269   5.894  13.419 -0.1815 -0.1376 -0.1505
24178DOPC   C4A28628  14.125   6.255  13.084 -0.0560  0.2946 -0.1475
24178DOPC   C1B28629  13.688   5.762  14.070 -0.1564 -0.1337  0.2777
24178DOPC   D2B28630  13.708   5.902  13.583  0.0218  0.0312 -0.3256
24178DOPC   C3B28631  13.631   6.192  13.298  0.0351 -0.0211 -0.0203
24178DOPC   C4B28632  13.294   6.579  13.123  0.0079  0.1028  0.3930
24179DOPC   NC328633  29.558   5.736  14.994  0.1416 -0.1983 -0.3050
24179DOPC   PO428634  29.721   6.038  15.206 -0.0075  0.0344 -0.1212
24179DOPC   GL128635  29.712   6.164  14.736  0.2229  0.5690 -0.4287
24179DOPC   GL228636  29.503   6.317  14.721  0.0173  0.1317  0.2930
24179DOPC   C1A28637  29.487   5.842  14.488 -0.0313  0.0367  0.1915
24179DOPC   D2A28638  29.092   5.563  14.437  0.3124 -0.2506  0.0886
24179DOPC   C3A28639  29.322   5.646  14.061  0.1353  0.1552  0.0522
24179DOPC   C4A28640  29.331   5.775  13.618  0.0988  0.0013 -0.3077
24179DOPC   C1B28641  29.557   6.410  14.236  0.0370  0.1414 -0.0052
24179DOPC   D2B28642  29.461   6.333  13.704 -0.1257 -0.1621 -0.1938
24179DOPC   C3B28643  29.510   6.129  13.320 -0.0486 -0.0117  0.3012
24179DOPC   C4B28644  29.460   5.739  13.038 -0.1614 -0.1972 -0.2993
24180DOPC   NC328645   0.370   6.240  14.918 -0.1242  0.0068  0.0156
24180DOPC   PO428646   0.261   5.944  15.081 -0.0429 -0.0839  0.1808
24180DOPC   GL128647   0.101   5.855  14.746  0.1254 -0.3080  0.2490
24180DOPC   GL228648   0.324   5.813  14.633 -0.1477  0.2153  0.2879
24180DOPC   C1A28649  -0.176   5.856  14.371 -0.0682 -0.0246 -0.0633
24180DOPC   D2A28650  -0.383   6.037  14.001  0.4104  0.2625  0.2465
24180DOPC   C3A28651  -0.811   6.239  13.844  0.0317  0.2045 -0.0622
24180DOPC   C4A28652  -1.209   6.484  13.962 -0.0413  0.0976 -0.1453
24180DOPC   C1B28653   0.303   6.132  14.369 -0.4660  0.0042  0.0164
24180DOPC   D2B28654   0.487   6.344  14.002  0.0586 -0.0015 -0.2328
24180DOPC   C3B28655   0.878   6.472  14.245  0.0005  0.4176  0.1682
24180DOPC   C4B28656   1.404   6.567  14.240  0.4440 -0.1961 -0.6522
24181DOPC   NC328657  17.441   6.090  14.448 -0.2558 -0.2511  0.0852
24181DOPC   PO428658  17.209   5.767  14.412  0.0949  0.1799 -0.3085
24181DOPC   GL128659  17.207   5.605  14.078 -0.2131 -0.0870  0.4274
24181DOPC   GL228660  17.223   5.311  14.149  0.1397  0.0413  0.3075
24181DOPC   C1A28661  17.542   5.466  13.819 -0.0829 -0.2248 -0.1321
24181DOPC   D2A28662  17.955   5.500  13.603 -0.1025 -0.2261  0.0475
24181DOPC   C3A28663  18.210   5.736  13.313 -0.0485 -0.0935 -0.2856
24181DOPC   C4A28664  18.179   6.165  13.075 -0.2831 -0.0323  0.1806
24181DOPC   C1B28665  17.496   4.986  14.003  0.0589 -0.0773  0.1638
24181DOPC   D2B28666  17.816   4.874  13.640 -0.0366  0.1950  0.0777
24181DOPC   C3B28667  17.642   4.674  13.268  0.0837 -0.1994 -0.2067
24181DOPC   C4B28668  17.218   4.478  13.088 -0.0856  0.3355  0.1305
24182DOPC   NC328669  29.287   6.835  14.963  0.0007 -0.0782 -0.3438
24182DOPC   PO428670  29.561   7.135  14.913  0.2233 -0.0836 -0.1916
24182DOPC   GL128671  29.642   7.321  14.575  0.0812 -0.1851 -0.0296
24182DOPC   GL228672  29.344   7.436  14.737 -0.2930 -0.0341  0.2262
24182DOPC   C1A28673  29.599   7.355  14.093  0.1298  0.1978  0.1386
24182DOPC   D2A28674  29.552   7.208  13.571 -0.0071 -0.1102 -0.3284
24182DOPC   C3A28675  29.697   6.840  13.334  0.1119 -0.3599 -0.2821
24182DOPC   C4A28676  29.934   6.367  13.454  0.0769 -0.0966 -0.4405
24182DOPC   C1B28677  29.451   7.737  14.470  0.0608  0.1776 -0.0507
24182DOPC   D2B28678  29.675   7.863  14.048  0.2861  0.1293 -0.0198
24182DOPC   C3B28679  29.818   8.277  13.950  0.0740  0.1648  0.1139
24182DOPC   C4B28680  29.813   8.678  13.655  0.1480  0.1027 -0.1966
24183DOPC   NC328681  10.794   4.933  15.616  0.0502  0.1662  0.0230
24183DOPC   PO428682  10.780   4.871  15.240  0.1584 -0.1190  0.1990
24183DOPC   GL128683  11.191   5.009  15.021  0.1138  0.3394 -0.0622
24183DOPC   GL228684  11.085   4.843  14.806  0.2657  0.0534  0.2382
24183DOPC   C1A28685  11.040   5.339  14.875  0.1151 -0.3887  0.1061
24183DOPC   D2A28686  11.070   5.718  14.506 -0.0146 -0.3558 -0.0715
24183DOPC   C3A28687  11.189   5.327  14.307 -0.2731  0.1920  0.0013
24183DOPC   C4A28688  11.409   5.069  13.981 -0.1843 -0.0122  0.2044
24183DOPC   C1B28689  10.810   5.052  14.513 -0.0623  0.1042  0.0409
24183DOPC   D2B28690  10.794   5.082  14.082 -0.3912 -0.0848 -0.1835
24183DOPC   C3B28691  10.521   5.000  13.720  0.0008  0.1949  0.0349
24183DOPC   C4B28692  10.216   5.260  13.457  0.0180 -0.1536 -0.3379
24184DOPC   NC328693  27.773   5.422  15.342 -0.1535  0.2298 -0.0875
24184DOPC   PO428694  27.422   5.573  15.348 -0.2180 -0.0167 -0.0897
24184DOPC   GL128695  27.106   5.727  15.121 -0.0417  0.0257 -0.2922
24184DOPC   GL228696  27.242   5.885  14.894 -0.0987  0.0020  0.0284
24184DOPC   C1A28697  26.835   5.724  14.854  0.0539  0.0121  0.0159
24184DOPC   D2A28698  26.637   5.519  14.439 -0.3712 -0.1668  0.1659
24184DOPC   C3A28699  26.661   5.096  14.147  0.1159 -0.0103 -0.0613
24184DOPC   C4A28700  26.584   4.543  14.079  0.1859 -0.1096 -0.2790
24184DOPC   C1B28701  27.173   5.951  14.447 -0.0376  0.0718  0.0836
24184DOPC   D2B28702  27.123   6.089  13.960  0.0046 -0.2400 -0.2575
24184DOPC   C3B28703  26.736   5.973  13.751  0.1957 -0.0165 -0.1659
24184DOPC   C4B28704  26.723   5.935  13.295 -0.2777 -0.0764  0.0325
24185DOPC   NC328705   6.686   6.836  15.402  0.1813  0.1444 -0.1349
24185DOPC   PO428706   6.332   6.697  15.167 -0.0080  0.3649 -0.1709
24185DOPC   GL128707   6.164   6.886  14.833 -0.0208  0.1271 -0.0244
24185DOPC   GL228708   6.219   6.634  14.659 -0.1666 -0.4879  0.0846
24185DOPC   C1A28709   6.153   7.155  14.547  0.0870  0.0773  0.3220
24185DOPC   D2A28710   6.059   7.339  14.144  0.0754  0.0005  0.0429
24185DOPC   C3A28711   5.966   7.364  13.656  0.0294 -0.0596  0.0150
24185DOPC   C4A28712   5.689   7.677  13.352 -0.0395 -0.4382  0.1846
24185DOPC   C1B28713   6.049   6.342  14.393  0.1324 -0.0014 -0.3011
24185DOPC   D2B28714   6.025   6.141  13.944  0.0799  0.1390 -0.1292
24185DOPC   C3B28715   6.189   6.119  13.472 -0.0037  0.1825 -0.5230
24185DOPC   C4B28716   6.580   6.251  13.145 -0.1270 -0.0746 -0.0883
24186DOPC   NC328717  15.334   4.857  14.762 -0.1502  0.1119  0.2355
24186DOPC   PO428718  15.699   4.660  14.734  0.0256 -0.0345 -0.0042
24186DOPC   GL128719  15.645   4.564  14.372 -0.2616 -0.2815  0.3305
24186DOPC   GL228720  15.423   4.656  14.286 -0.0845 -0.1059 -0.1539
24186DOPC   C1A28721  15.748   4.187  14.130  0.2639  0.2806 -0.1227
24186DOPC   D2A28722  15.700   3.873  13.719 -0.2107 -0.1964 -0.0523
24186DOPC   C3A28723  15.393   3.775  13.375  0.1484 -0.1320 -0.1789
24186DOPC   C4A28724  15.117   3.637  12.924  0.2032  0.1388  0.1861
24186DOPC   C1B28725  15.538   4.634  13.869 -0.0513  0.1252  0.0325
24186DOPC   D2B28726  15.495   4.527  13.389 -0.0615 -0.1131 -0.0374
24186DOPC   C3B28727  15.340   4.170  13.094 -0.4561  0.0735 -0.2199
24186DOPC   C4B28728  15.383   3.922  12.638 -0.2004  0.3623 -0.4241
24187DOPC   NC328729  25.579   1.454  15.458 -0.2288  0.0058  0.2153
24187DOPC   PO428730  25.483   1.789  15.578  0.4284  0.0258 -0.1347
24187DOPC   GL128731  25.042   1.788  15.342 -0.4468  0.0272  0.2646
24187DOPC   GL228732  25.105   1.482  15.378  0.2695 -0.0230  0.1968
24187DOPC   C1A28733  24.922   1.920  14.937  0.2509 -0.0133  0.1161
24187DOPC   D2A28734  24.713   2.056  14.541 -0.3262 -0.0624  0.1507
24187DOPC   C3A28735  24.255   2.134  14.490 -0.1527 -0.0208  0.2756
24187DOPC   C4A28736  23.984   1.890  14.197 -0.0413  0.1758  0.2248
24187DOPC   C1B28737  25.116   1.443  14.944 -0.1072 -0.0489 -0.2694
24187DOPC   D2B28738  25.018   1.139  14.575 -0.2517  0.2668 -0.2228
24187DOPC   C3B28739  25.153   1.104  14.133  0.2363  0.0776  0.1282
24187DOPC   C4B28740  25.077   0.919  13.640 -0.0372 -0.1901  0.0143
24188DOPC   NC328741  15.975   4.496  15.091 -0.0534  0.0054 -0.1303
24188DOPC   PO428742  16.243   4.765  14.911 -0.0569 -0.1918  0.1945
24188DOPC   GL128743  16.351   4.820  14.527  0.1326  0.3160 -0.1572
24188DOPC   GL228744  16.132   4.634  14.484  0.1540  0.2725 -0.3193
24188DOPC   C1A28745  16.348   5.124  14.149  0.0067  0.0036  0.0556
24188DOPC   D2A28746  16.328   5.373  13.729  0.2828 -0.2480 -0.2450
24188DOPC   C3A28747  16.119   5.344  13.319  0.0462  0.0974 -0.0186
24188DOPC   C4A28748  15.922   5.076  12.959 -0.0908 -0.0826  0.0451
24188DOPC   C1B28749  16.018   4.677  14.073 -0.3458 -0.1289 -0.1471
24188DOPC   D2B28750  16.274   4.837  13.699  0.4042 -0.1230  0.1201
24188DOPC   C3B28751  16.434   4.847  13.206  0.0831 -0.0154 -0.2482
24188DOPC   C4B28752  16.447   5.162  12.756  0.1593  0.3255  0.1163
24189DOPC   NC328753  23.441   7.407  15.673 -0.0198  0.1245 -0.0889
24189DOPC   PO428754  23.498   7.805  15.667 -0.1664  0.1833  0.0079
24189DOPC   GL128755  23.380   7.901  15.290 -0.1411 -0.1316  0.1165
24189DOPC   GL228756  23.661   7.935  15.201  0.4173 -0.1231 -0.0451
24189DOPC   C1A28757  23.101   8.125  15.084 -0.0443  0.0978  0.0457
24189DOPC   D2A28758  22.832   8.501  14.915 -0.1044 -0.2832 -0.3275
24189DOPC   C3A28759  22.646   8.554  14.497  0.0044 -0.0072  0.4681
24189DOPC   C4A28760  22.421   8.172  14.237 -0.0586  0.3329 -0.0429
24189DOPC   C1B28761  23.498   8.107  14.840 -0.1022  0.2108 -0.0369
24189DOPC   D2B28762  23.151   8.444  14.563  0.0369 -0.2674  0.1764
24189DOPC   C3B28763  22.944   8.297  14.137 -0.0605  0.0730  0.0388
24189DOPC   C4B28764  22.808   7.805  13.974 -0.0005  0.1990  0.1742
24190DOPC   NC328765  30.998   2.360  15.083 -0.0671  0.1483  0.2934
24190DOPC   PO428766  31.359   2.421  15.252 -0.1534  0.0738  0.1005
24190DOPC   GL128767  31.623   2.613  14.917  0.0622 -0.3509 -0.1101
24190DOPC   GL228768  31.382   2.516  14.715  0.1813 -0.1604  0.1010
24190DOPC   C1A28769  31.914   2.767  14.565  0.4323 -0.4886 -0.0780
24190DOPC   D2A28770  32.274   2.971  14.352 -0.0141 -0.0229 -0.0541
24190DOPC   C3A28771  32.395   3.325  14.013  0.0028  0.2868  0.3441
24190DOPC   C4A28772  32.384   3.628  13.568  0.2102 -0.2863  0.1070
24190DOPC   C1B28773  31.453   2.812  14.386 -0.0200 -0.0377  0.2197
24190DOPC   D2B28774  31.742   3.171  14.209  0.0129  0.2297 -0.1466
24190DOPC   C3B28775  31.584   3.511  14.013 -0.2855  0.3675  0.2013
24190DOPC   C4B28776  31.656   3.744  13.592  0.1445  0.2606 -0.1012
24191DOPC   NC328777  18.632   6.162  15.468  0.2775 -0.1790 -0.1358
24191DOPC   PO428778  18.994   6.313  15.358  0.0797 -0.0687 -0.0217
24191DOPC   GL128779  19.059   6.364  14.933 -0.1157  0.0931  0.0203
24191DOPC   GL228780  18.803   6.310  14.851 -0.1397  0.2657  0.1365
24191DOPC   C1A28781  19.352   6.121  14.613 -0.1592 -0.2859 -0.0852
24191DOPC   D2A28782  19.650   6.286  14.259 -0.1429  0.2112  0.1326
24191DOPC   C3A28783  20.021   6.480  14.025 -0.1150 -0.1573  0.2567
24191DOPC   C4A28784  20.257   6.595  13.612 -0.0712  0.1220  0.1548
24191DOPC   C1B28785  18.858   6.008  14.451  0.2796  0.0946 -0.0970
24191DOPC   D2B28786  18.737   5.894  13.929  0.0648 -0.0288  0.0515
24191DOPC   C3B28787  18.877   6.191  13.553 -0.2109  0.0003 -0.0377
24191DOPC   C4B28788  19.043   6.439  13.111 -0.0868 -0.1787 -0.0702
24192DOPC   NC328789  16.403   1.041  15.023  0.0751 -0.0358  0.0464
24192DOPC   PO428790  16.502   0.598  15.018  0.4240  0.2045 -0.0250
24192DOPC   GL128791  16.697   0.450  14.709  0.4506  0.0939  0.0609
24192DOPC   GL228792  16.909   0.356  14.752 -0.0616 -0.2554  0.1914
24192DOPC   C1A28793  16.610   0.782  14.395 -0.1369  0.0397 -0.0839
24192DOPC   D2A28794  16.441   1.023  13.984  0.0130  0.1074 -0.1906
24192DOPC   C3A28795  16.431   1.279  13.589  0.0763 -0.1560  0.1117
24192DOPC   C4A28796  16.607   1.541  13.174 -0.0527 -0.0371 -0.0313
24192DOPC   C1B28797  17.092   0.175  14.425  0.2426  0.1375 -0.2941
24192DOPC   D2B28798  17.264  -0.089  14.136  0.2119  0.3190 -0.1328
24192DOPC   C3B28799  17.189  -0.334  13.806  0.0941  0.4176  0.0472
24192DOPC   C4B28800  16.916  -0.568  13.478  0.1973 -0.0721 -0.3414
24193DOPC   NC328801  26.995   1.673  15.336  0.0737 -0.0384 -0.0826
24193DOPC   PO428802  27.044   1.270  15.443 -0.1793 -0.2752 -0.0268
24193DOPC   GL128803  27.004   0.910  15.222  0.2583  0.0682  0.1537
24193DOPC   GL228804  27.226   0.808  15.116 -0.3172  0.0514 -0.0361
24193DOPC   C1A28805  26.871   0.985  14.867 -0.2525 -0.1632  0.3468
24193DOPC   D2A28806  26.782   1.131  14.389  0.0203  0.1238 -0.2162
24193DOPC   C3A28807  26.921   1.148  13.876  0.0282 -0.2434 -0.0469
24193DOPC   C4A28808  27.115   0.910  13.436 -0.0100  0.0489 -0.1926
24193DOPC   C1B28809  27.165   0.594  14.765 -0.0865  0.1085 -0.1881
24193DOPC   D2B28810  27.097   0.395  14.307 -0.2201  0.1131 -0.1648
24193DOPC   C3B28811  26.894   0.664  14.057  0.2430  0.0088 -0.0419
24193DOPC   C4B28812  26.558   0.781  13.706 -0.0821 -0.1412  0.0541
24194DOPC   NC328813   9.179   1.757  15.657 -0.1153 -0.3823  0.1249
24194DOPC   PO428814   9.348   1.589  15.322 -0.2084 -0.1016 -0.4245
24194DOPC   GL128815   9.230   1.813  14.993 -0.0189 -0.0476  0.0979
24194DOPC   GL228816   9.386   1.947  14.928 -0.0823  0.2285  0.3046
24194DOPC   C1A28817   8.944   1.690  14.582 -0.2422 -0.0488  0.1453
24194DOPC   D2A28818   8.953   1.830  14.134 -0.1147 -0.1547 -0.4728
24194DOPC   C3A28819   8.981   1.438  13.846 -0.1262 -0.1099  0.1319
24194DOPC   C4A28820   9.330   1.209  13.518  0.1932 -0.1868 -0.2328
24194DOPC   C1B28821   9.596   1.892  14.445  0.2235 -0.0169  0.2723
24194DOPC   D2B28822   9.764   2.156  14.032  0.1039  0.1978 -0.4565
24194DOPC   C3B28823   9.727   2.048  13.606 -0.1623  0.2035 -0.1050
24194DOPC   C4B28824   9.648   2.073  13.165 -0.0573  0.3028  0.1785
24195DOPC   NC328825  23.464   2.466  15.438 -0.1031 -0.0335  0.0757
24195DOPC   PO428826  23.192   2.149  15.461  0.1137  0.0688 -0.1716
24195DOPC   GL128827  23.077   2.139  15.047  0.0988 -0.0595  0.1911
24195DOPC   GL228828  22.948   2.387  14.991  0.0551 -0.1087  0.1845
24195DOPC   C1A28829  22.912   1.937  14.725 -0.3242 -0.2036 -0.0878
24195DOPC   D2A28830  22.938   1.621  14.329 -0.0704  0.0588  0.0101
24195DOPC   C3A28831  23.146   1.494  13.944  0.2039  0.0818 -0.1730
24195DOPC   C4A28832  23.252   1.334  13.471  0.0151 -0.0411 -0.1835
24195DOPC   C1B28833  23.208   2.392  14.661  0.0761  0.1316  0.1528
24195DOPC   D2B28834  23.436   2.462  14.183 -0.3661  0.3885 -0.1659
24195DOPC   C3B28835  23.717   2.180  13.824  0.1642 -0.1072  0.0536
24195DOPC   C4B28836  23.940   2.264  13.394 -0.3040  0.3205 -0.3064
24196DOPC   NC328837  21.324   5.451  15.875 -0.1783 -0.0829  0.1449
24196DOPC   PO428838  21.200   5.849  15.822  0.0674  0.3670 -0.0540
24196DOPC   GL128839  21.286   5.848  15.430 -0.6322 -0.0875 -0.2316
24196DOPC   GL228840  21.488   5.697  15.356  0.1007 -0.2512  0.0585
24196DOPC   C1A28841  21.064   6.065  15.115  0.1121 -0.0241  0.0892
24196DOPC   D2A28842  21.009   6.220  14.623 -0.1053 -0.0463 -0.0377
24196DOPC   C3A28843  21.154   6.238  14.168 -0.0607 -0.4339 -0.0227
24196DOPC   C4A28844  21.250   6.516  13.784 -0.0972  0.2346 -0.3181
24196DOPC   C1B28845  21.530   5.915  14.934  0.1877  0.2078 -0.2909
24196DOPC   D2B28846  21.512   6.124  14.533  0.1842  0.0410  0.1460
24196DOPC   C3B28847  21.656   5.935  14.154 -0.2420  0.1999  0.1701
24196DOPC   C4B28848  22.026   6.048  13.808  0.0539 -0.2074 -0.2203
24197DOPC   NC328849  30.465   0.768  15.558  0.2604  0.1334 -0.2424
24197DOPC   PO428850  30.607   1.067  15.334  0.0172  0.2073  0.1594
24197DOPC   GL128851  30.706   0.866  14.941  0.1873  0.0714 -0.1785
24197DOPC   GL228852  30.881   1.005  15.000 -0.0675  0.1516  0.0353
24197DOPC   C1A28853  30.648   0.908  14.485 -0.1519 -0.2954 -0.1638
24197DOPC   D2A28854  30.733   1.001  14.028  0.1233  0.0477  0.0665
24197DOPC   C3A28855  31.062   1.132  13.711 -0.1549  0.1654 -0.1962
24197DOPC   C4A28856  31.230   1.257  13.247 -0.1044  0.0480 -0.0303
24197DOPC   C1B28857  30.978   1.237  14.619 -0.0531  0.0877 -0.2133
24197DOPC   D2B28858  31.095   1.427  14.154 -0.0454  0.0825 -0.1381
24197DOPC   C3B28859  31.284   1.852  14.124  0.3597  0.0166  0.1506
24197DOPC   C4B28860  31.115   2.330  14.234  0.0351 -0.0393 -0.2320
24198DOPC   NC328861  12.276   7.125  14.631 -0.3531  0.3149  0.2993
24198DOPC   PO428862  12.086   6.764  14.585 -0.0018 -0.3427 -0.1200
24198DOPC   GL128863  12.085   6.953  14.219 -0.2417  0.1169 -0.3833
24198DOPC   GL228864  11.884   7.137  14.227  0.1731 -0.1253 -0.4263
24198DOPC   C1A28865  12.282   6.918  13.893  0.3580  0.1329  0.2116
24198DOPC   D2A28866  12.335   7.050  13.406  0.0708  0.0540 -0.0565
24198DOPC   C3A28867  12.119   7.148  13.013  0.1164  0.1517 -0.2003
24198DOPC   C4A28868  11.698   7.209  12.711  0.1496 -0.2208 -0.2602
24198DOPC   C1B28869  11.865   7.259  13.845  0.1741 -0.2988 -0.2127
24198DOPC   D2B28870  11.988   7.423  13.393  0.0979 -0.0930  0.3135
24198DOPC   C3B28871  11.624   7.421  13.175  0.1204  0.3137  0.0383
24198DOPC   C4B28872  11.161   7.415  12.978 -0.0252 -0.0963 -0.1911
24199DOPC   NC328873  30.765   4.874  14.928  0.3026 -0.0007 -0.1440
24199DOPC   PO428874  30.645   4.587  15.184 -0.1807 -0.0914  0.2062
24199DOPC   GL128875  30.446   4.307  14.861  0.0621 -0.0793  0.2652
24199DOPC   GL228876  30.803   4.267  14.785  0.2074  0.1512  0.0537
24199DOPC   C1A28877  30.395   3.936  14.754 -0.1749 -0.0189  0.0395
24199DOPC   D2A28878  30.397   3.607  14.413  0.0641 -0.2254 -0.0421
24199DOPC   C3A28879  30.029   3.402  14.205 -0.0044 -0.1751 -0.2504
24199DOPC   C4A28880  29.761   3.143  13.929 -0.2706  0.1762 -0.0842
24199DOPC   C1B28881  30.775   4.111  14.357 -0.0041 -0.4336 -0.0564
24199DOPC   D2B28882  30.823   4.023  13.861 -0.1790 -0.0912 -0.0430
24199DOPC   C3B28883  31.146   4.241  13.581 -0.0596  0.1288 -0.0883
24199DOPC   C4B28884  30.842   4.467  13.343  0.0354  0.0471 -0.1165
24200DOPC   NC328885   8.448   6.519  15.097  0.0529  0.0430 -0.0740
24200DOPC   PO428886   8.059   6.555  15.040  0.3502  0.2415 -0.0785
24200DOPC   GL128887   8.016   6.344  14.744 -0.0216 -0.3028  0.0571
24200DOPC   GL228888   8.317   6.257  14.747  0.3101  0.2208 -0.0387
24200DOPC   C1A28889   7.888   5.970  14.504  0.1988  0.1886 -0.0927
24200DOPC   D2A28890   7.776   5.584  14.191 -0.0515 -0.1592  0.0899
24200DOPC   C3A28891   7.944   5.656  13.732  0.2994 -0.0818  0.1433
24200DOPC   C4A28892   7.773   5.767  13.236  0.1335  0.1300 -0.1947
24200DOPC   C1B28893   8.376   5.968  14.422 -0.0238  0.1210  0.0831
24200DOPC   D2B28894   8.360   5.777  13.951  0.0167  0.0451 -0.1102
24200DOPC   C3B28895   8.137   6.141  13.977 -0.0741  0.2291  0.0435
24200DOPC   C4B28896   8.059   6.521  14.319 -0.2122  0.0430  0.2689
24201DOPC   NC328897  23.187   5.892  15.904 -0.2098 -0.0246 -0.0149
24201DOPC   PO428898  23.509   5.768  15.665  0.1624  0.1607  0.0921
24201DOPC   GL128899  23.384   5.767  15.253  0.0007 -0.2212 -0.4234
24201DOPC   GL228900  23.373   6.058  15.213 -0.0836  0.1488 -0.2318
24201DOPC   C1A28901  23.485   5.768  14.841  0.2186  0.0158  0.0863
24201DOPC   D2A28902  23.394   5.583  14.299 -0.0958 -0.1737 -0.0055
24201DOPC   C3A28903  23.278   5.584  13.887 -0.1251  0.1808  0.0099
24201DOPC   C4A28904  22.952   5.563  13.540 -0.0255 -0.1310  0.0872
24201DOPC   C1B28905  23.150   6.105  14.827 -0.0105 -0.1632 -0.1472
24201DOPC   D2B28906  22.825   6.041  14.479 -0.2444  0.0400 -0.0506
24201DOPC   C3B28907  22.910   6.197  14.009  0.1872  0.0546 -0.1057
24201DOPC   C4B28908  23.005   6.443  13.597 -0.1228 -0.0101  0.2208
24202DOPC   NC328909   6.161   6.217  14.941  0.0199  0.0653 -0.1320
24202DOPC   PO428910   6.364   5.987  15.162  0.1861 -0.0352  0.4245
24202DOPC   GL128911   6.560   5.711  14.852 -0.0104 -0.3405  0.1002
24202DOPC   GL228912   6.346   5.926  14.653  0.1980 -0.1367  0.0276
24202DOPC   C1A28913   6.599   5.475  14.505  0.0882  0.0217 -0.1241
24202DOPC   D2A28914   6.602   5.315  13.974  0.0310 -0.0003 -0.1281
24202DOPC   C3A28915   6.258   5.184  13.802 -0.0225  0.1253 -0.0639
24202DOPC   C4A28916   5.927   5.271  13.507  0.0376  0.0300  0.1249
24202DOPC   C1B28917   6.383   5.943  14.235  0.0946 -0.0005  0.0156
24202DOPC   D2B28918   6.539   5.791  13.778 -0.2527 -0.2130 -0.2312
24202DOPC   C3B28919   6.332   5.597  13.455 -0.2127  0.1535  0.2548
24202DOPC   C4B28920   6.382   5.320  13.040  0.1473 -0.0974  0.0947
24203DOPC   NC328921  13.133   2.158  15.282  0.0646  0.0974 -0.0428
24203DOPC   PO428922  13.068   2.535  15.300 -0.1233 -0.0994 -0.1639
24203DOPC   GL128923  12.889   2.603  14.858 -0.2971 -0.1756  0.3201
24203DOPC   GL228924  12.802   2.282  14.867 -0.1737 -0.1730 -0.1710
24203DOPC   C1A28925  12.601   2.660  14.555 -0.2260  0.0744  0.1965
24203DOPC   D2A28926  12.402   2.531  14.179  0.0174  0.4568  0.2719
24203DOPC   C3A28927  12.148   2.285  13.864 -0.0521  0.0112 -0.2562
24203DOPC   C4A28928  11.934   2.037  13.573 -0.2396  0.1635  0.3765
24203DOPC   C1B28929  12.517   2.163  14.538  0.0414 -0.0486  0.2435
24203DOPC   D2B28930  12.065   2.111  14.294  0.1068  0.1354  0.0056
24203DOPC   C3B28931  11.766   1.828  14.014 -0.0504 -0.0577 -0.2560
24203DOPC   C4B28932  11.476   1.676  13.623  0.1067  0.0786  0.1638
24204DOPC   NC328933   3.122   6.065  15.673 -0.1799  0.0859 -0.0290
24204DOPC   PO428934   2.774   5.944  15.600 -0.1009 -0.2330  0.0320
24204DOPC   GL128935   2.887   5.673  15.357 -0.0764  0.2762 -0.2992
24204DOPC   GL228936   2.741   5.477  15.354 -0.1688  0.1469  0.0390
24204DOPC   C1A28937   2.973   5.709  14.951  0.0222 -0.1250 -0.1555
24204DOPC   D2A28938   2.841   5.798  14.480 -0.0514 -0.0665  0.2762
24204DOPC   C3A28939   2.611   6.189  14.315 -0.3319  0.0125 -0.0557
24204DOPC   C4A28940   2.417   6.624  14.046 -0.0453  0.1809 -0.2629
24204DOPC   C1B28941   2.623   5.393  14.969  0.0823  0.0955 -0.1564
24204DOPC   D2B28942   2.458   5.326  14.486 -0.1199  0.1372 -0.0986
24204DOPC   C3B28943   2.362   5.076  14.073  0.1779 -0.3044  0.0715
24204DOPC   C4B28944   2.265   4.916  13.604  0.1759  0.2514 -0.1100
24205DOPC   NC328945   5.690   7.088  14.804  0.1262  0.2288  0.0481
24205DOPC   PO428946   5.682   7.408  14.976  0.1622 -0.3788 -0.1627
24205DOPC   GL128947   5.931   7.707  14.790  0.0501  0.0437  0.0227
24205DOPC   GL228948   6.222   7.550  14.813  0.3000  0.2596  0.0792
24205DOPC   C1A28949   5.702   7.664  14.399  0.2438  0.2335  0.3437
24205DOPC   D2A28950   5.651   7.775  13.916 -0.2190 -0.2925 -0.1366
24205DOPC   C3A28951   5.215   7.632  13.916  0.1620  0.1126 -0.3972
24205DOPC   C4A28952   4.757   7.376  13.879  0.1841 -0.0562  0.0307
24205DOPC   C1B28953   6.399   7.605  14.421  0.1820 -0.0552 -0.1270
24205DOPC   D2B28954   6.497   7.601  13.921  0.0697  0.0528  0.0596
24205DOPC   C3B28955   6.410   7.498  13.516 -0.1728  0.1454 -0.2346
24205DOPC   C4B28956   6.202   7.060  13.283  0.0101 -0.1713 -0.3071
24206DOPC   NC328957   1.776   5.157  15.496  0.2800 -0.1771  0.4261
24206DOPC   PO428958   1.530   4.903  15.238 -0.2317 -0.0647 -0.3982
24206DOPC   GL128959   1.605   4.892  14.776 -0.0776  0.0562 -0.1238
24206DOPC   GL228960   1.650   5.181  14.936  0.0486 -0.1326 -0.1453
24206DOPC   C1A28961   1.448   4.826  14.390 -0.1027 -0.0203  0.1600
24206DOPC   D2A28962   1.412   4.871  13.904  0.1127 -0.2155  0.2913
24206DOPC   C3A28963   1.079   5.019  13.633 -0.0337  0.2337  0.1355
24206DOPC   C4A28964   0.894   5.401  13.382 -0.1135 -0.0637 -0.2302
24206DOPC   C1B28965   1.515   5.319  14.544  0.1719 -0.3468  0.0203
24206DOPC   D2B28966   1.383   5.321  14.116  0.0060 -0.3627 -0.0406
24206DOPC   C3B28967   1.010   5.446  13.918 -0.0892 -0.0673  0.0141
24206DOPC   C4B28968   0.618   5.445  13.768  0.1904 -0.1876  0.0649
24207DOPC   NC328969  22.888   2.295  15.813 -0.1381  0.1304  0.1144
24207DOPC   PO428970  22.800   2.654  15.880  0.1489  0.2169 -0.3905
24207DOPC   GL128971  23.021   2.654  15.527 -0.0239 -0.0092  0.4666
24207DOPC   GL228972  22.832   2.460  15.373 -0.6084  0.2713 -0.1380
24207DOPC   C1A28973  23.201   2.773  15.195  0.0361  0.1137  0.1653
24207DOPC   D2A28974  23.324   3.006  14.773 -0.0720  0.1011 -0.1563
24207DOPC   C3A28975  23.570   2.767  14.541  0.1280  0.1255 -0.1576
24207DOPC   C4A28976  24.013   2.969  14.350  0.1471  0.2638  0.3132
24207DOPC   C1B28977  22.579   2.645  15.019  0.0086  0.0399  0.0308
24207DOPC   D2B28978  22.355   2.892  14.645 -0.0529  0.0333  0.0140
24207DOPC   C3B28979  22.428   3.250  14.286 -0.0477 -0.2056 -0.4448
24207DOPC   C4B28980  22.502   3.676  14.115 -0.1270  0.0643 -0.1684
24208DOPC   NC328981  23.380   6.276  15.624 -0.0938 -0.1019 -0.0714
24208DOPC   PO428982  23.051   6.452  15.580  0.0081 -0.4429  0.0483
24208DOPC   GL128983  22.974   6.768  15.207 -0.1796 -0.2314 -0.0291
24208DOPC   GL228984  23.024   6.501  15.107  0.1088  0.2835  0.0948
24208DOPC   C1A28985  22.668   6.868  14.995  0.1357  0.0380 -0.1233
24208DOPC   D2A28986  22.344   6.880  14.545  0.1352 -0.0621 -0.1459
24208DOPC   C3A28987  22.607   7.235  14.290 -0.2358  0.1284 -0.3540
24208DOPC   C4A28988  23.030   7.461  14.334 -0.1067  0.0476  0.1357
24208DOPC   C1B28989  22.855   6.545  14.683  0.1072 -0.0427  0.0468
24208DOPC   D2B28990  22.875   6.777  14.248  0.2904 -0.0536  0.0936
24208DOPC   C3B28991  22.927   6.930  13.833  0.1341 -0.3321  0.0251
24208DOPC   C4B28992  23.147   7.003  13.376  0.0089 -0.0830 -0.2342
24209DOPC   NC328993  21.320   6.347  15.742 -0.0759 -0.1346 -0.1635
24209DOPC   PO428994  21.593   6.655  15.684 -0.2363  0.0750 -0.1052
24209DOPC   GL128995  21.817   6.744  15.332  0.2268  0.0049 -0.2593
24209DOPC   GL228996  21.593   6.676  15.204 -0.0855  0.0426 -0.0653
24209DOPC   C1A28997  22.141   6.510  15.156 -0.0456 -0.0548 -0.1935
24209DOPC   D2A28998  22.295   6.408  14.725 -0.0364 -0.0328  0.1285
24209DOPC   C3A28999  22.473   6.452  14.294 -0.3615 -0.2754 -0.1856
24209DOPC   C4A29000  22.590   6.495  13.819  0.1284 -0.2283 -0.1436
24209DOPC   C1B29001  21.774   6.507  14.768 -0.1475  0.0659  0.0772
24209DOPC   D2B29002  21.810   6.466  14.345  0.0564  0.0701  0.0981
24209DOPC   C3B29003  22.078   6.683  14.040  0.2826  0.1793 -0.0417
24209DOPC   C4B29004  22.371   6.971  13.963 -0.3038  0.1298 -0.1779
24210DOPC   NC329005  28.823   6.062  15.334  0.0615 -0.1636  0.1492
24210DOPC   PO429006  28.678   6.364  15.093  0.0010  0.1795  0.0831
24210DOPC   GL129007  28.818   6.431  14.711 -0.2364 -0.0113  0.3551
24210DOPC   GL229008  29.084   6.473  14.708 -0.0351 -0.0549 -0.0437
24210DOPC   C1A29009  28.642   6.425  14.307 -0.1742 -0.0745  0.0555
24210DOPC   D2A29010  28.568   6.564  13.799 -0.0282  0.2637 -0.0836
24210DOPC   C3A29011  28.460   6.289  13.448  0.0157 -0.2819  0.1036
24210DOPC   C4A29012  28.356   6.192  12.977 -0.1668  0.2012  0.1820
24210DOPC   C1B29013  29.080   6.575  14.254 -0.1000 -0.0869 -0.0164
24210DOPC   D2B29014  29.034   6.595  13.681  0.0889 -0.0057 -0.0786
24210DOPC   C3B29015  28.907   6.841  13.270 -0.0275 -0.1187 -0.1244
24210DOPC   C4B29016  28.836   6.924  12.827  0.0581 -0.0448  0.3396
24211DOPC   NC329017  27.880   0.059  15.205 -0.2606 -0.1123  0.0921
24211DOPC   PO429018  28.166  -0.190  15.257  0.1702  0.1153  0.0693
24211DOPC   GL129019  28.208  -0.380  14.869  0.1445  0.0212 -0.1092
24211DOPC   GL229020  27.911  -0.350  14.851  0.2010  0.1308  0.3727
24211DOPC   C1A29021  28.535  -0.468  14.620  0.1875 -0.2075 -0.2186
24211DOPC   D2A29022  28.913  -0.507  14.325  0.2285  0.0059 -0.1322
24211DOPC   C3A29023  29.167  -0.724  14.000 -0.0966 -0.1752 -0.1044
24211DOPC   C4A29024  29.521  -0.991  13.906  0.0033 -0.1066  0.1295
24211DOPC   C1B29025  27.619  -0.251  14.617  0.3194 -0.1003 -0.0615
24211DOPC   D2B29026  27.329  -0.217  14.143  0.3329 -0.0726 -0.1130
24211DOPC   C3B29027  27.343   0.138  13.928 -0.2332 -0.1137 -0.0391
24211DOPC   C4B29028  27.663   0.370  13.700 -0.3480 -0.0291 -0.3058
24212DOPC   NC329029   0.289   4.558  15.479 -0.1247  0.0457  0.0514
24212DOPC   PO429030   0.596   4.777  15.279 -0.2466  0.0652 -0.1993
24212DOPC   GL129031   0.773   4.499  14.910  0.0929  0.1757  0.0666
24212DOPC   GL229032   0.466   4.467  14.945 -0.0550 -0.1233  0.0336
24212DOPC   C1A29033   0.804   4.326  14.433  0.1296  0.0097 -0.0095
24212DOPC   D2A29034   0.754   4.068  14.033  0.2894  0.2611  0.2016
24212DOPC   C3A29035   0.869   4.032  13.621 -0.2749  0.1474  0.3122
24212DOPC   C4A29036   0.993   3.843  13.170  0.0869 -0.0069 -0.2022
24212DOPC   C1B29037   0.518   4.063  14.851 -0.0109 -0.1206  0.0147
24212DOPC   D2B29038   0.648   3.754  14.515 -0.2261  0.0554  0.0995
24212DOPC   C3B29039   0.834   3.598  14.183 -0.0570 -0.0584  0.0052
24212DOPC   C4B29040   0.789   3.319  13.737 -0.1575 -0.1238  0.0483
24213DOPC   NC329041  20.678   0.285  16.279 -0.2258  0.1910  0.1645
24213DOPC   PO429042  20.991   0.225  15.993 -0.1490  0.2213 -0.0973
24213DOPC   GL129043  21.146   0.466  15.645 -0.6432 -0.0381 -0.1944
24213DOPC   GL229044  21.425   0.333  15.650  0.0851 -0.2312 -0.1678
24213DOPC   C1A29045  21.114   0.593  15.242 -0.0932 -0.0283  0.0603
24213DOPC   D2A29046  21.330   0.640  14.850 -0.2001  0.0428  0.0875
24213DOPC   C3A29047  21.226   0.843  14.421  0.4805  0.1028 -0.0366
24213DOPC   C4A29048  21.123   1.076  13.931  0.3298  0.1353 -0.2401
24213DOPC   C1B29049  21.391   0.176  15.208  0.2865 -0.3005  0.1594
24213DOPC   D2B29050  21.456   0.201  14.717 -0.0376 -0.0761  0.0046
24213DOPC   C3B29051  21.504   0.420  14.324 -0.0931  0.2240  0.0566
24213DOPC   C4B29052  21.621   0.534  13.910  0.0762 -0.0049  0.1675
24214DOPC   NC329053  26.286   4.614  15.772  0.1304  0.0844  0.2976
24214DOPC   PO429054  26.191   5.025  15.737 -0.0550 -0.0854 -0.0441
24214DOPC   GL129055  25.874   5.060  15.478  0.0393 -0.3287 -0.1625
24214DOPC   GL229056  26.101   5.019  15.224  0.0375  0.0971 -0.0766
24214DOPC   C1A29057  25.613   4.851  15.190 -0.0241  0.1115 -0.2725
24214DOPC   D2A29058  25.462   4.747  14.752  0.1902 -0.0277 -0.0875
24214DOPC   C3A29059  25.331   4.922  14.334  0.1158  0.3613 -0.3412
24214DOPC   C4A29060  24.973   5.102  14.055 -0.0457 -0.1011  0.0252
24214DOPC   C1B29061  25.992   4.834  14.858 -0.2522 -0.2203 -0.1031
24214DOPC   D2B29062  26.247   4.565  14.516 -0.0668 -0.2078 -0.0215
24214DOPC   C3B29063  26.087   4.214  14.259 -0.1464 -0.0243  0.0929
24214DOPC   C4B29064  26.146   4.410  13.780  0.0996  0.0805 -0.1555
24215DOPC   NC329065  28.627   5.682  15.139 -0.0607 -0.0803  0.0622
24215DOPC   PO429066  28.325   5.932  15.178  0.1890 -0.1104  0.0605
24215DOPC   GL129067  28.131   6.098  14.842 -0.0095 -0.3667 -0.0588
24215DOPC   GL229068  27.914   6.145  14.956 -0.3715  0.3393  0.0713
24215DOPC   C1A29069  28.168   6.100  14.434 -0.0364  0.0500 -0.0305
24215DOPC   D2A29070  28.240   6.182  13.944  0.0598  0.0692  0.0632
24215DOPC   C3A29071  28.015   6.443  13.635 -0.0628  0.1732  0.2500
24215DOPC   C4A29072  27.872   6.468  13.133  0.1981 -0.0353 -0.1593
24215DOPC   C1B29073  27.556   6.313  14.685 -0.0379  0.0780  0.0178
24215DOPC   D2B29074  27.506   6.218  14.232 -0.0170 -0.1888 -0.0171
24215DOPC   C3B29075  27.482   6.421  13.791  0.0532  0.1404 -0.1430
24215DOPC   C4B29076  27.329   6.884  13.546  0.1195  0.3098 -0.0061
24216DOPC   NC329077  17.776   4.013  15.313 -0.4208  0.3211  0.1565
24216DOPC   PO429078  17.808   3.617  15.173 -0.3863 -0.0387 -0.0250
24216DOPC   GL129079  17.804   3.689  14.760  0.4427  0.1579  0.0193
24216DOPC   GL229080  17.763   3.428  14.654  0.0978 -0.1257  0.2197
24216DOPC   C1A29081  17.415   3.774  14.520  0.3026 -0.2215  0.0318
24216DOPC   D2A29082  17.020   3.706  14.208 -0.1864 -0.1788 -0.0616
24216DOPC   C3A29083  17.072   3.415  13.958  0.0563  0.0654  0.1542
24216DOPC   C4A29084  17.168   3.149  13.577 -0.1202  0.1654 -0.1922
24216DOPC   C1B29085  17.593   3.489  14.183  0.3417  0.1182  0.0075
24216DOPC   D2B29086  17.633   3.260  13.721  0.2394  0.0366  0.3552
24216DOPC   C3B29087  17.823   2.855  13.451  0.1356  0.0048  0.0442
24216DOPC   C4B29088  18.117   2.522  13.278  0.1719  0.0850  0.1174
24217DOPC   NC329089  10.491   5.301  14.919  0.1810 -0.0053  0.0475
24217DOPC   PO429090  10.205   5.043  14.832  0.2068 -0.3282 -0.0799
24217DOPC   GL129091  10.328   5.094  14.488 -0.0984 -0.0554  0.2086
24217DOPC   GL229092  10.180   5.354  14.409  0.1152  0.2636 -0.1898
24217DOPC   C1A29093  10.346   4.743  14.158 -0.1473  0.1716 -0.1327
24217DOPC   D2A29094  10.400   4.483  13.744 -0.0785  0.0093 -0.1362
24217DOPC   C3A29095  10.595   4.454  13.353  0.3271 -0.0590  0.1739
24217DOPC   C4A29096  10.642   4.480  12.836  0.1403 -0.0360  0.0757
24217DOPC   C1B29097  10.337   5.431  13.990 -0.2195  0.0195  0.2357
24217DOPC   D2B29098  10.578   5.592  13.610  0.0200 -0.3226 -0.0459
24217DOPC   C3B29099  11.022   5.615  13.330  0.1624 -0.3003 -0.1087
24217DOPC   C4B29100  11.330   5.287  13.192  0.1298  0.0452 -0.0389
24218DOPC   NC329101   2.042   6.461  15.109 -0.1389  0.1775 -0.1723
24218DOPC   PO429102   2.186   6.776  15.253 -0.2126  0.0325  0.1238
24218DOPC   GL129103   2.042   7.057  14.990  0.0961 -0.2062  0.3215
24218DOPC   GL229104   1.866   6.792  14.882  0.1869 -0.1476  0.3149
24218DOPC   C1A29105   2.178   7.173  14.622  0.4961  0.3342  0.0084
24218DOPC   D2A29106   2.388   7.071  14.203 -0.0028  0.0163 -0.2958
24218DOPC   C3A29107   2.649   7.099  13.793 -0.0227 -0.2206  0.0256
24218DOPC   C4A29108   2.935   7.093  13.387  0.0361 -0.2440 -0.1225
24218DOPC   C1B29109   2.136   6.649  14.565 -0.1675  0.0023 -0.0948
24218DOPC   D2B29110   2.676   6.783  14.510 -0.1040  0.2973  0.0537
24218DOPC   C3B29111   2.920   6.687  14.076  0.1616 -0.1143  0.1277
24218DOPC   C4B29112   3.184   6.729  13.601  0.3094 -0.1968  0.1051
24219DOPC   NC329113  28.367   4.704  15.338 -0.3064 -0.3002  0.1214
24219DOPC   PO429114  28.662   4.541  15.105 -0.1127  0.1595 -0.0686
24219DOPC   GL129115  28.709   4.498  14.649  0.0113  0.3057 -0.2017
24219DOPC   GL229116  28.908   4.343  14.801 -0.0926 -0.2337 -0.3570
24219DOPC   C1A29117  28.608   4.512  14.253 -0.0466 -0.3096  0.0336
24219DOPC   D2A29118  28.544   4.443  13.782  0.0466 -0.0018  0.1090
24219DOPC   C3A29119  28.378   4.749  13.434  0.0450  0.0921  0.4979
24219DOPC   C4A29120  28.154   4.812  13.025  0.1699 -0.1315 -0.0171
24219DOPC   C1B29121  29.013   4.076  14.538 -0.3380  0.4152  0.1481
24219DOPC   D2B29122  29.043   3.724  14.210 -0.1283  0.1541  0.0593
24219DOPC   C3B29123  29.372   3.830  13.845  0.0264  0.0779 -0.2911
24219DOPC   C4B29124  29.537   3.724  13.375  0.0516  0.3099 -0.0697
24220DOPC   NC329125  14.121   7.484  15.470  0.3516  0.3284  0.3797
24220DOPC   PO429126  14.058   7.659  15.113  0.1452 -0.1033  0.2842
24220DOPC   GL129127  13.968   7.697  14.672  0.2684  0.0687  0.1332
24220DOPC   GL229128  14.047   7.508  14.542  0.0109  0.1246  0.1756
24220DOPC   C1A29129  14.033   8.001  14.360 -0.1517 -0.1834  0.0009
24220DOPC   D2A29130  14.154   7.964  13.897  0.2089  0.1268  0.4955
24220DOPC   C3A29131  14.512   7.921  13.542  0.2524 -0.4449  0.5543
24220DOPC   C4A29132  14.810   7.678  13.291  0.1481 -0.0555 -0.1126
24220DOPC   C1B29133  13.932   7.557  14.106 -0.0621 -0.1747  0.0779
24220DOPC   D2B29134  13.827   7.548  13.627 -0.1306  0.0252 -0.0463
24220DOPC   C3B29135  13.423   7.695  13.436  0.0609  0.0339  0.1026
24220DOPC   C4B29136  13.014   7.752  13.120 -0.1945  0.2545  0.1936
24221DOPC   NC329137  23.331   4.637  15.193 -0.1794  0.2811 -0.0303
24221DOPC   PO429138  23.418   5.009  15.300  0.2087 -0.0871 -0.0092
24221DOPC   GL129139  23.684   5.084  15.101 -0.0262  0.2017 -0.1275
24221DOPC   GL229140  23.658   5.357  15.001  0.2694  0.5398 -0.1306
24221DOPC   C1A29141  23.751   4.841  14.748 -0.1902  0.2222  0.1215
24221DOPC   D2A29142  23.729   4.528  14.311  0.0304 -0.0579  0.2178
24221DOPC   C3A29143  24.015   4.362  13.980 -0.1873  0.2357 -0.3445
24221DOPC   C4A29144  24.161   4.216  13.557 -0.1042  0.0072  0.1465
24221DOPC   C1B29145  23.793   5.420  14.576  0.2147  0.0974 -0.1916
24221DOPC   D2B29146  23.812   5.436  14.065  0.0539  0.5294 -0.0980
24221DOPC   C3B29147  24.093   5.719  13.824 -0.1235  0.1329  0.0297
24221DOPC   C4B29148  24.382   5.667  13.449  0.1201  0.1882  0.0328
24222DOPC   NC329149   9.182   6.080  15.528  0.1965  0.0804  0.2846
24222DOPC   PO429150   9.201   6.139  15.124  0.2053  0.1015 -0.1728
24222DOPC   GL129151   9.185   6.189  14.731 -0.0863  0.0662  0.1673
24222DOPC   GL229152   9.465   6.077  14.612 -0.1825 -0.1289 -0.1826
24222DOPC   C1A29153   9.080   6.379  14.354  0.0030 -0.0235 -0.2489
24222DOPC   D2A29154   8.911   6.755  14.082 -0.0929 -0.3172  0.2184
24222DOPC   C3A29155   8.900   6.457  13.773 -0.0294  0.1362 -0.0033
24222DOPC   C4A29156   8.526   6.202  13.635 -0.0407 -0.1840  0.2063
24222DOPC   C1B29157   9.745   6.151  14.316 -0.2324  0.1975 -0.1385
24222DOPC   D2B29158   9.963   6.172  13.857  0.4021  0.1642 -0.0473
24222DOPC   C3B29159   9.887   6.125  13.417  0.0338  0.3414  0.0666
24222DOPC   C4B29160   9.868   6.011  12.926 -0.1807 -0.2933  0.1276
24223DOPC   NC329161   9.690   6.298  14.961 -0.1723 -0.1535 -0.0192
24223DOPC   PO429162  10.082   6.285  14.931 -0.0391 -0.1222  0.0358
24223DOPC   GL129163  10.273   6.394  14.496  0.1129 -0.2226 -0.1428
24223DOPC   GL229164  10.095   6.328  14.504  0.0913  0.2163 -0.3099
24223DOPC   C1A29165  10.427   6.356  14.071 -0.0875 -0.1176  0.0798
24223DOPC   D2A29166  10.370   6.231  13.582 -0.2717  0.0126 -0.2166
24223DOPC   C3A29167  10.763   6.154  13.350  0.0899  0.0814  0.0464
24223DOPC   C4A29168  11.179   6.252  13.061  0.0736  0.0578  0.1870
24223DOPC   C1B29169   9.951   6.602  14.165 -0.1216  0.2439  0.0430
24223DOPC   D2B29170  10.010   6.653  13.759 -0.0852  0.0371  0.0875
24223DOPC   C3B29171   9.769   6.618  13.392  0.0081  0.0711  0.1510
24223DOPC   C4B29172   9.836   6.519  12.884  0.0566 -0.0656 -0.0037
24224DOPC   NC329173   7.787   4.461  15.129 -0.1516 -0.0463  0.3705
24224DOPC   PO429174   8.140   4.757  15.178 -0.1948 -0.2737  0.0542
24224DOPC   GL129175   8.237   4.897  14.796  0.1406  0.0843 -0.2769
24224DOPC   GL229176   8.051   4.676  14.750  0.1402 -0.0847  0.0134
24224DOPC   C1A29177   8.440   4.874  14.443 -0.0383 -0.0436 -0.1367
24224DOPC   D2A29178   8.320   4.817  13.914 -0.0072  0.1427 -0.1570
24224DOPC   C3A29179   8.382   4.789  13.478  0.1616  0.3149 -0.1382
24224DOPC   C4A29180   8.270   4.893  13.010 -0.2381  0.2939  0.2429
24224DOPC   C1B29181   8.015   4.692  14.327 -0.3091 -0.3707  0.0740
24224DOPC   D2B29182   7.766   4.750  13.784 -0.0249  0.1178 -0.0267
24224DOPC   C3B29183   7.883   4.724  13.301 -0.0686 -0.2322 -0.1978
24224DOPC   C4B29184   7.845   4.815  12.835  0.0147 -0.1698 -0.1749
24225DOPC   NC329185   9.363   6.580  15.250 -0.0290 -0.2284  0.0799
24225DOPC   PO429186   9.395   6.708  14.859 -0.0744 -0.1919 -0.0415
24225DOPC   GL129187   9.505   6.598  14.437  0.0885  0.4874 -0.3506
24225DOPC   GL229188   9.390   6.854  14.393  0.4764 -0.4128 -0.0431
24225DOPC   C1A29189   9.405   6.530  14.028  0.1114 -0.2437  0.1658
24225DOPC   D2A29190   9.345   6.458  13.571  0.1011  0.1766  0.1044
24225DOPC   C3A29191   8.957   6.429  13.291 -0.2510  0.2484  0.2536
24225DOPC   C4A29192   8.479   6.596  13.064 -0.0979  0.0446 -0.0809
24225DOPC   C1B29193   9.313   7.004  13.967 -0.1033  0.0014  0.2068
24225DOPC   D2B29194   9.002   6.972  13.568 -0.2562 -0.3459 -0.1613
24225DOPC   C3B29195   8.610   6.762  13.512  0.1786  0.1668 -0.2250
24225DOPC   C4B29196   8.156   6.543  13.446 -0.1947  0.2034  0.2292
24226DOPC   NC329197  22.181   5.213  15.338 -0.1837 -0.0168 -0.3204
24226DOPC   PO429198  22.407   4.907  15.273 -0.3542 -0.3452  0.0662
24226DOPC   GL129199  22.817   4.768  15.027  0.1292 -0.0180 -0.0236
24226DOPC   GL229200  22.977   4.975  15.077  0.2890 -0.0702  0.2463
24226DOPC   C1A29201  22.692   4.565  14.686  0.0716  0.0313  0.0981
24226DOPC   D2A29202  22.523   4.224  14.297 -0.2239 -0.0705 -0.0661
24226DOPC   C3A29203  22.178   4.044  14.033 -0.0497 -0.1513 -0.0470
24226DOPC   C4A29204  21.797   3.840  13.838 -0.0372  0.0304  0.1062
24226DOPC   C1B29205  22.854   5.137  14.709 -0.1430 -0.2873 -0.0819
24226DOPC   D2B29206  23.078   5.236  14.267  0.0351 -0.1991 -0.0400
24226DOPC   C3B29207  22.996   5.053  13.882  0.2431 -0.0658 -0.2921
24226DOPC   C4B29208  22.875   4.598  13.763 -0.1200 -0.0908 -0.1873
24227DOPC   NC329209  14.720   4.510  14.999 -0.0573 -0.2740 -0.1294
24227DOPC   PO429210  14.495   4.706  15.263 -0.0345  0.0978  0.2616
24227DOPC   GL129211  14.173   4.810  14.981  0.1154  0.3391  0.1340
24227DOPC   GL229212  14.447   4.879  14.796  0.1829  0.1137 -0.0665
24227DOPC   C1A29213  14.022   4.708  14.640 -0.1913  0.1259 -0.2097
24227DOPC   D2A29214  13.834   4.736  14.219 -0.1697 -0.2793  0.1004
24227DOPC   C3A29215  13.951   4.432  13.898 -0.2882 -0.1899 -0.0825
24227DOPC   C4A29216  13.735   4.443  13.459  0.0280 -0.3388  0.1566
24227DOPC   C1B29217  14.652   4.998  14.399 -0.0441 -0.0232  0.1842
24227DOPC   D2B29218  15.065   4.923  14.110  0.0725 -0.3008  0.1602
24227DOPC   C3B29219  15.102   4.750  13.624  0.0006 -0.2476  0.1784
24227DOPC   C4B29220  15.082   4.572  13.123  0.1276 -0.1662 -0.0546
24228DOPC   NC329221  14.243   1.194  15.199 -0.1228 -0.3224 -0.1527
24228DOPC   PO429222  14.620   1.337  15.166  0.3324 -0.0844  0.3236
24228DOPC   GL129223  14.512   1.298  14.759 -0.2223 -0.1799  0.1035
24228DOPC   GL229224  14.778   1.189  14.678 -0.1618 -0.3093 -0.1529
24228DOPC   C1A29225  14.360   1.427  14.351  0.1950 -0.1347  0.0731
24228DOPC   D2A29226  14.535   1.569  13.949  0.1361  0.0126  0.0407
24228DOPC   C3A29227  14.466   1.583  13.518 -0.2324  0.0550 -0.2381
24228DOPC   C4A29228  14.401   1.864  13.102 -0.1789  0.1689 -0.0946
24228DOPC   C1B29229  14.868   1.296  14.262 -0.1442 -0.0521  0.1634
24228DOPC   D2B29230  14.950   1.226  13.782 -0.1286 -0.1149  0.0966
24228DOPC   C3B29231  14.845   1.367  13.394 -0.2413 -0.0030  0.0343
24228DOPC   C4B29232  14.900   1.738  13.050  0.1541  0.0303  0.2790
24229DOPC   NC329233  28.840   1.636  15.235 -0.0377  0.0370  0.0490
24229DOPC   PO429234  29.024   1.756  14.927 -0.1314 -0.1167 -0.0028
24229DOPC   GL129235  28.886   1.771  14.544 -0.3224  0.3703  0.3319
24229DOPC   GL229236  29.119   2.003  14.464  0.1904  0.1087 -0.1319
24229DOPC   C1A29237  28.698   1.933  14.197  0.2007 -0.1775 -0.1158
24229DOPC   D2A29238  28.698   2.109  13.789 -0.2355  0.2425 -0.0082
24229DOPC   C3A29239  28.317   2.200  13.501  0.2498 -0.1122 -0.2254
24229DOPC   C4A29240  28.013   2.084  13.157 -0.1311 -0.3132 -0.1343
24229DOPC   C1B29241  29.161   2.213  14.089 -0.0232 -0.0093  0.1005
24229DOPC   D2B29242  29.019   2.427  13.619  0.2039  0.0379 -0.0133
24229DOPC   C3B29243  28.738   2.564  13.273 -0.3029 -0.0570 -0.3045
24229DOPC   C4B29244  28.440   2.899  13.332  0.3414 -0.0567 -0.0581
24230DOPC   NC329245   5.174   0.356  15.463 -0.0210  0.2011 -0.0011
24230DOPC   PO429246   5.291   0.614  15.202 -0.1491 -0.0751 -0.0997
24230DOPC   GL129247   5.428   0.492  14.827 -0.1675  0.1718 -0.2269
24230DOPC   GL229248   5.262   0.462  14.590 -0.2158  0.0748  0.1680
24230DOPC   C1A29249   5.811   0.696  14.657  0.0004 -0.2378  0.1285
24230DOPC   D2A29250   6.222   0.739  14.457  0.0870 -0.1072 -0.1264
24230DOPC   C3A29251   6.258   0.767  13.995 -0.3609  0.2461 -0.2038
24230DOPC   C4A29252   6.254   0.685  13.482 -0.1055 -0.0205 -0.1122
24230DOPC   C1B29253   5.386   0.751  14.184  0.3035  0.0160  0.0019
24230DOPC   D2B29254   5.349   0.804  13.671 -0.2536 -0.1540 -0.2747
24230DOPC   C3B29255   5.718   0.881  13.366 -0.2144  0.1656  0.0470
24230DOPC   C4B29256   5.811   0.754  12.931 -0.0502  0.2258 -0.3838
24231DOPC   NC329257   4.274   1.538  15.271  0.0341  0.0657 -0.0253
24231DOPC   PO429258   4.547   1.835  15.284 -0.0998  0.1771  0.1616
24231DOPC   GL129259   4.648   1.842  14.786 -0.0108  0.1073 -0.1763
24231DOPC   GL229260   4.386   1.655  14.819  0.1002 -0.1973 -0.2256
24231DOPC   C1A29261   4.556   2.160  14.519 -0.1314  0.0236  0.1451
24231DOPC   D2A29262   4.546   2.197  14.028 -0.0816  0.0932 -0.1332
24231DOPC   C3A29263   4.864   2.149  13.652 -0.1570  0.3589  0.0579
24231DOPC   C4A29264   5.057   1.865  13.273  0.0154 -0.0353  0.0083
24231DOPC   C1B29265   4.140   1.926  14.632  0.3531 -0.0005 -0.4736
24231DOPC   D2B29266   4.011   2.264  14.326 -0.0542 -0.2104  0.1794
24231DOPC   C3B29267   4.127   2.172  13.813  0.0218 -0.2568 -0.0428
24231DOPC   C4B29268   3.955   1.777  13.508  0.1982 -0.0054  0.1678
24232DOPC   NC329269  20.223   7.730  15.383 -0.0370  0.0762 -0.1157
24232DOPC   PO429270  19.934   7.464  15.483  0.0103  0.2366  0.0959
24232DOPC   GL129271  20.041   7.276  15.108  0.1492 -0.1331 -0.1393
24232DOPC   GL229272  19.882   7.023  15.206  0.6086  0.0113 -0.2844
24232DOPC   C1A29273  20.200   7.289  14.739  0.1849 -0.0359 -0.0642
24232DOPC   D2A29274  20.421   7.398  14.275  0.1345  0.1982  0.1320
24232DOPC   C3A29275  20.313   7.531  13.853 -0.1016 -0.0849  0.0266
24232DOPC   C4A29276  20.610   7.764  13.513 -0.0106  0.1485  0.0880
24232DOPC   C1B29277  19.777   6.884  14.806 -0.0281  0.0013 -0.0602
24232DOPC   D2B29278  19.415   6.626  14.584 -0.2655  0.0070 -0.0124
24232DOPC   C3B29279  19.305   6.794  14.117 -0.0720  0.0900  0.0204
24232DOPC   C4B29280  19.184   7.125  13.818  0.1074  0.1711  0.1622
24233DOPC   NC329281  13.345   7.135  15.121  0.0815 -0.1340 -0.2274
24233DOPC   PO429282  13.203   6.765  15.073  0.1201  0.0744  0.1108
24233DOPC   GL129283  13.208   6.445  14.817 -0.0170  0.0201  0.0664
24233DOPC   GL229284  13.034   6.582  14.626 -0.4315  0.0229 -0.3228
24233DOPC   C1A29285  13.480   6.292  14.559 -0.1084  0.1152  0.1709
24233DOPC   D2A29286  13.688   6.239  14.119 -0.3048 -0.0501 -0.0754
24233DOPC   C3A29287  13.314   6.295  13.965  0.0198 -0.0200  0.1007
24233DOPC   C4A29288  13.119   6.287  13.478  0.0698 -0.0053 -0.3667
24233DOPC   C1B29289  12.842   6.322  14.242  0.0082 -0.0993  0.0949
24233DOPC   D2B29290  12.715   6.103  13.798 -0.1248 -0.2517 -0.0353
24233DOPC   C3B29291  12.529   6.213  13.411 -0.0394  0.0314 -0.0242
24233DOPC   C4B29292  12.779   6.232  12.987 -0.1540  0.1017 -0.0213
24234DOPC   NC329293  18.877   7.322  15.246 -0.0487 -0.2739  0.5785
24234DOPC   PO429294  19.220   7.407  15.473  0.0549  0.0896  0.1681
24234DOPC   GL129295  19.482   7.246  15.165  0.0680  0.4511 -0.0196
24234DOPC   GL229296  19.611   7.470  15.113 -0.0403 -0.1808  0.1875
24234DOPC   C1A29297  19.258   7.075  14.848 -0.1156  0.1600  0.0377
24234DOPC   D2A29298  18.847   6.742  14.618  0.2431  0.1754 -0.1050
24234DOPC   C3A29299  18.883   6.512  14.220  0.1770 -0.1044 -0.0650
24234DOPC   C4A29300  19.189   6.264  13.959 -0.2188  0.1918  0.2141
24234DOPC   C1B29301  19.751   7.496  14.695  0.2164  0.1474 -0.2907
24234DOPC   D2B29302  19.898   7.510  14.214  0.1799  0.0180  0.0603
24234DOPC   C3B29303  19.850   7.207  13.818 -0.0282  0.0622  0.0554
24234DOPC   C4B29304  19.630   6.863  13.639 -0.0287  0.2434 -0.2124
24235DOPC   NC329305  22.659   7.742  15.750  0.0185  0.1705 -0.1597
24235DOPC   PO429306  22.891   7.465  15.575  0.1586  0.3075  0.0398
24235DOPC   GL129307  22.981   7.454  15.218  0.1361 -0.2091 -0.0402
24235DOPC   GL229308  23.043   7.170  15.130  0.2107  0.0231 -0.0646
24235DOPC   C1A29309  22.811   7.587  14.838 -0.0472 -0.1453  0.0509
24235DOPC   D2A29310  22.447   7.713  14.440  0.1430  0.3591  0.1921
24235DOPC   C3A29311  22.374   7.561  14.033  0.4134  0.2216  0.0546
24235DOPC   C4A29312  22.460   7.345  13.651 -0.1187  0.2922  0.0876
24235DOPC   C1B29313  23.051   7.121  14.691 -0.0436  0.0626  0.2873
24235DOPC   D2B29314  23.351   7.060  14.262 -0.1076 -0.1704  0.0315
24235DOPC   C3B29315  23.440   6.984  13.807  0.1441  0.0747 -0.0521
24235DOPC   C4B29316  23.633   7.034  13.349 -0.0510 -0.1300  0.1322
24236DOPC   NC329317  10.753   1.377  15.047  0.2228  0.1596  0.2536
24236DOPC   PO429318  10.341   1.231  15.089 -0.2130  0.1711 -0.0526
24236DOPC   GL129319  10.201   1.293  14.745 -0.3418  0.1691  0.2376
24236DOPC   GL229320   9.972   1.434  14.715 -0.2981 -0.0506 -0.0668
24236DOPC   C1A29321  10.474   1.386  14.399  0.0843 -0.4420  0.3450
24236DOPC   D2A29322  10.656   1.732  14.125  0.1145 -0.0340 -0.0300
24236DOPC   C3A29323  10.542   2.065  13.799 -0.0509  0.2104  0.0471
24236DOPC   C4A29324  10.686   2.207  13.329 -0.1481 -0.2532 -0.3313
24236DOPC   C1B29325   9.877   1.546  14.280  0.1466 -0.2697 -0.2657
24236DOPC   D2B29326   9.691   1.353  13.912  0.1414 -0.1981 -0.0820
24236DOPC   C3B29327   9.300   1.016  14.008  0.2342  0.3018  0.1579
24236DOPC   C4B29328   9.067   0.591  14.140  0.1180  0.2125 -0.1878
24237DOPC   NC329329  14.531   0.006  14.969 -0.0770  0.0624  0.0247
24237DOPC   PO429330  14.459  -0.146  14.614  0.0590 -0.1619  0.3736
24237DOPC   GL129331  14.422  -0.066  14.178  0.0761  0.4810 -0.0722
24237DOPC   GL229332  14.499   0.239  14.240 -0.3098 -0.1041  0.4167
24237DOPC   C1A29333  14.294  -0.312  13.813  0.0449 -0.4306 -0.1347
24237DOPC   D2A29334  14.342  -0.316  13.327  0.1571  0.0801  0.1594
24237DOPC   C3A29335  14.508  -0.672  13.031 -0.3920 -0.0675 -0.2718
24237DOPC   C4A29336  14.780  -0.885  12.688 -0.1774  0.0831 -0.3224
24237DOPC   C1B29337  14.569   0.557  13.917 -0.2214  0.2111  0.0315
24237DOPC   D2B29338  14.755   0.797  13.541  0.0762  0.0501  0.2563
24237DOPC   C3B29339  14.788   0.935  13.116 -0.1226 -0.0153 -0.2035
24237DOPC   C4B29340  14.681   0.987  12.671  0.1142 -0.0692 -0.2949
24238DOPC   NC329341   2.384   5.689  15.358 -0.1801  0.2452  0.0866
24238DOPC   PO429342   2.437   6.042  15.231  0.0219  0.0428  0.0620
24238DOPC   GL129343   2.585   6.045  14.918 -0.0700 -0.2964  0.2525
24238DOPC   GL229344   2.413   5.880  14.726  0.2049  0.1692  0.1712
24238DOPC   C1A29345   2.939   6.230  14.707  0.1998  0.0024 -0.0938
24238DOPC   D2A29346   3.156   6.615  14.509 -0.0595 -0.1923 -0.1626
24238DOPC   C3A29347   3.482   6.977  14.539  0.3759 -0.1485 -0.0763
24238DOPC   C4A29348   3.972   7.110  14.330 -0.2031 -0.3368 -0.2178
24238DOPC   C1B29349   2.339   5.716  14.262  0.0221  0.1320 -0.2937
24238DOPC   D2B29350   2.314   5.551  13.851 -0.0113  0.0710  0.1936
24238DOPC   C3B29351   2.517   5.406  13.472  0.1252  0.0625 -0.0032
24238DOPC   C4B29352   2.572   5.157  13.022  0.0401  0.0617  0.0642
24239DOPC   NC329353   4.151   5.374  15.285  0.1353  0.0604  0.2904
24239DOPC   PO429354   4.430   5.207  15.067 -0.4648 -0.1333 -0.1291
24239DOPC   GL129355   4.632   5.273  14.694  0.1447  0.1373  0.1156
24239DOPC   GL229356   4.359   5.442  14.648 -0.0716 -0.1665  0.0625
24239DOPC   C1A29357   4.941   5.239  14.450  0.0880 -0.1153  0.0049
24239DOPC   D2A29358   5.020   5.421  13.999 -0.1300  0.2034  0.1317
24239DOPC   C3A29359   4.892   5.503  13.588 -0.0464 -0.0775  0.0170
24239DOPC   C4A29360   4.659   5.685  13.191 -0.0227 -0.2829  0.1137
24239DOPC   C1B29361   4.465   5.492  14.217 -0.0308  0.0656  0.1475
24239DOPC   D2B29362   4.435   5.683  13.779  0.3812 -0.0765  0.1130
24239DOPC   C3B29363   4.322   6.040  13.499 -0.2175 -0.0934 -0.3398
24239DOPC   C4B29364   4.013   6.401  13.442  0.0290 -0.3459 -0.2194
24240DOPA   PO429365  20.438   1.011  15.600 -0.2502  0.1012 -0.1027
24240DOPA   GL129366  20.453   0.979  15.211 -0.0015  0.0133  0.0027
24240DOPA   GL229367  20.648   0.758  15.212 -0.0496  0.0967  0.1452
24240DOPA   C1A29368  20.565   1.139  14.818 -0.0892 -0.2904  0.3509
24240DOPA   D2A29369  20.463   1.295  14.341  0.0097  0.0809  0.0901
24240DOPA   C3A29370  20.630   1.191  13.865  0.2895  0.0850 -0.0862
24240DOPA   C4A29371  20.892   1.118  13.433  0.0598 -0.1263 -0.1153
24240DOPA   C1B29372  20.830   0.696  14.792  0.1299 -0.0661 -0.2943
24240DOPA   D2B29373  20.946   0.394  14.472 -0.0343  0.0740 -0.0132
24240DOPA   C3B29374  21.048   0.551  14.002 -0.0497  0.0762 -0.0348
24240DOPA   C4B29375  21.283   0.609  13.598 -0.0609 -0.0843  0.0545
24241DOPA   PO429376  26.489   1.769  15.434 -0.1785 -0.2186  0.0556
24241DOPA   GL129377  26.652   1.926  15.034 -0.1055 -0.0146 -0.2100
24241DOPA   GL229378  26.426   2.066  15.147  0.1481  0.1202  0.0561
24241DOPA   C1A29379  26.780   1.972  14.593  0.2570 -0.0190 -0.0440
24241DOPA   D2A29380  27.222   2.013  14.313 -0.1107  0.0451  0.0379
24241DOPA   C3A29381  27.672   1.896  14.036 -0.1192 -0.2986  0.0534
24241DOPA   C4A29382  27.907   2.050  13.619  0.0531 -0.0229 -0.0689
24241DOPA   C1B29383  26.381   2.207  14.749  0.0189 -0.1267  0.1112
24241DOPA   D2B29384  26.560   2.373  14.302 -0.0014 -0.1711 -0.0217
24241DOPA   C3B29385  26.436   2.459  13.858 -0.2656  0.3491 -0.0571
24241DOPA   C4B29386  26.483   2.680  13.423  0.0408 -0.0665  0.1042
24242DOPA   PO429387  24.320   5.845  15.432  0.1438  0.2202  0.2261
24242DOPA   GL129388  24.425   5.662  15.040 -0.3258  0.0080  0.0373
24242DOPA   GL229389  24.628   5.528  15.214  0.3027  0.5008  0.1007
24242DOPA   C1A29390  24.697   5.870  14.731 -0.1398  0.0600  0.1589
24242DOPA   D2A29391  24.809   6.204  14.390 -0.1744  0.1041  0.0875
24242DOPA   C3A29392  25.074   6.023  14.031  0.2711  0.0895  0.1464
24242DOPA   C4A29393  25.277   5.759  13.667  0.0719 -0.0960  0.0890
24242DOPA   C1B29394  24.999   5.506  15.084 -0.1342 -0.0340 -0.1641
24242DOPA   D2B29395  25.503   5.517  15.201  0.0705 -0.0771 -0.1396
24242DOPA   C3B29396  25.727   5.271  14.883  0.0222  0.2209 -0.3551
24242DOPA   C4B29397  25.802   5.033  14.431  0.1352 -0.2883  0.0799
24243DOPA   PO429398   8.690   3.116  15.449 -0.2050 -0.0149  0.0477
24243DOPA   GL129399   8.589   3.220  15.060 -0.0347 -0.1781  0.0412
24243DOPA   GL229400   8.384   3.432  15.198 -0.3190 -0.2219  0.0200
24243DOPA   C1A29401   8.695   3.406  14.661  0.0959 -0.0806  0.0467
24243DOPA   D2A29402   8.863   3.365  14.204 -0.0866 -0.3108  0.4251
24243DOPA   C3A29403   9.275   3.197  14.084  0.3194  0.1529 -0.0516
24243DOPA   C4A29404   9.514   2.992  13.649 -0.0502 -0.0695  0.0612
24243DOPA   C1B29405   8.203   3.447  14.798  0.0603  0.2308 -0.2054
24243DOPA   D2B29406   7.959   3.773  14.467 -0.1725  0.0056  0.0989
24243DOPA   C3B29407   7.939   3.469  14.154  0.1509  0.3698 -0.1310
24243DOPA   C4B29408   7.869   3.024  13.954  0.0503 -0.2115  0.2375
24244DOPA   PO429409  13.892   7.097  15.153  0.0125 -0.0399  0.2087
24244DOPA   GL129410  13.826   7.269  14.793 -0.3972 -0.2530  0.0713
24244DOPA   GL229411  13.628   7.458  14.862 -0.1208 -0.1214  0.0438
24244DOPA   C1A29412  13.803   7.046  14.417 -0.0765  0.0063 -0.3458
24244DOPA   D2A29413  13.481   6.722  14.278  0.4008  0.0086 -0.3352
24244DOPA   C3A29414  13.120   6.737  14.003 -0.0346 -0.2195 -0.0841
24244DOPA   C4A29415  13.126   6.819  13.534 -0.0862  0.1466 -0.1045
24244DOPA   C1B29416  13.590   7.483  14.426 -0.0314  0.0281  0.2280
24244DOPA   D2B29417  13.445   7.613  14.024  0.0016  0.1406 -0.0727
24244DOPA   C3B29418  13.125   7.987  13.853 -0.0889  0.0898  0.2415
24244DOPA   C4B29419  13.240   8.168  13.436  0.2576  0.1799 -0.0982
24245DOPA   PO429420  20.705   5.277  15.791  0.2519  0.0553 -0.0585
24245DOPA   GL129421  20.817   5.480  15.444 -0.1163 -0.0376  0.0270
24245DOPA   GL229422  20.658   5.279  15.253 -0.3040 -0.0225  0.1784
24245DOPA   C1A29423  21.084   5.510  15.115  0.0617 -0.0392 -0.0185
24245DOPA   D2A29424  21.103   5.682  14.676 -0.0146 -0.1615 -0.1520
24245DOPA   C3A29425  21.106   5.733  14.229 -0.1618 -0.2613  0.0980
24245DOPA   C4A29426  20.927   5.936  13.762 -0.3757  0.2744 -0.1102
24245DOPA   C1B29427  20.718   5.287  14.794  0.1015 -0.1332  0.0222
24245DOPA   D2B29428  20.816   5.378  14.344  0.0292 -0.0457  0.0848
24245DOPA   C3B29429  20.716   5.429  13.917  0.0182 -0.0607  0.0722
24245DOPA   C4B29430  20.702   5.640  13.456 -0.2127 -0.1223  0.0095
24246DOPA   PO429431  27.478   7.779  15.535  0.1560 -0.0846  0.1208
24246DOPA   GL129432  27.370   7.701  15.087 -0.3685 -0.1245 -0.0793
24246DOPA   GL229433  27.257   7.905  14.999  0.3201  0.0764  0.0161
24246DOPA   C1A29434  27.203   7.424  14.835 -0.1588 -0.3257  0.2011
24246DOPA   D2A29435  26.959   7.081  14.524 -0.1615 -0.0108 -0.1270
24246DOPA   C3A29436  26.615   7.014  14.259 -0.5644  0.0561 -0.2424
24246DOPA   C4A29437  26.322   6.784  13.901 -0.2135  0.0747 -0.3628
24246DOPA   C1B29438  27.439   8.007  14.601  0.2289 -0.0585 -0.2348
24246DOPA   D2B29439  27.741   7.964  14.238 -0.0790 -0.0713 -0.1710
24246DOPA   C3B29440  28.188   8.225  14.138 -0.4901 -0.1067 -0.3158
24246DOPA   C4B29441  28.559   8.562  14.306 -0.0503  0.2376 -0.3328
24247DOPA   PO429442  12.043   5.985  15.142 -0.1822  0.1711  0.1281
24247DOPA   GL129443  12.232   5.835  14.789  0.1531  0.3980 -0.0284
24247DOPA   GL229444  12.485   5.961  14.861  0.1190  0.2354 -0.0814
24247DOPA   C1A29445  12.082   5.678  14.377 -0.0094 -0.0893  0.0312
24247DOPA   D2A29446  11.770   5.441  14.094  0.3770  0.0768  0.0376
24247DOPA   C3A29447  11.861   5.031  13.808 -0.1695 -0.1388  0.1314
24247DOPA   C4A29448  12.043   4.651  13.521  0.0530  0.1023 -0.0513
24247DOPA   C1B29449  12.431   6.180  14.521  0.0441 -0.0716  0.0141
24247DOPA   D2B29450  12.409   6.554  14.212 -0.2047  0.1202  0.1269
24247DOPA   C3B29451  12.634   6.607  13.829 -0.0606 -0.2337  0.0022
24247DOPA   C4B29452  12.699   6.701  13.287 -0.1614 -0.0075  0.3451
24248DOPA   PO429453  14.433   3.928  14.896 -0.1318  0.2001 -0.0631
24248DOPA   GL129454  14.163   4.262  14.654 -0.1182  0.3757 -0.2223
24248DOPA   GL229455  14.390   4.457  14.634  0.1935 -0.1908 -0.0595
24248DOPA   C1A29456  13.797   4.287  14.397 -0.2238  0.3242 -0.1450
24248DOPA   D2A29457  13.497   4.381  14.098  0.1577  0.1729  0.1274
24248DOPA   C3A29458  13.335   4.243  13.648  0.1800 -0.3414  0.0107
24248DOPA   C4A29459  13.264   3.903  13.348 -0.1543  0.1180 -0.0083
24248DOPA   C1B29460  14.415   4.611  14.216  0.1914 -0.1365  0.3121
24248DOPA   D2B29461  14.592   4.991  13.893 -0.2492 -0.0815  0.1519
24248DOPA   C3B29462  14.374   5.116  13.493  0.0292  0.1990 -0.0232
24248DOPA   C4B29463  14.160   5.137  13.063  0.1731 -0.0700 -0.0375
24249DOPA   PO429464  14.981   4.941  15.133 -0.2863  0.5016  0.0315
24249DOPA   GL129465  14.868   4.918  14.749 -0.2290  0.0220  0.0577
24249DOPA   GL229466  14.997   5.158  14.560 -0.1979  0.0277 -0.1346
24249DOPA   C1A29467  14.848   4.528  14.437 -0.0479 -0.0979 -0.0896
24249DOPA   D2A29468  14.835   4.416  13.957  0.2218  0.0986  0.0492
24249DOPA   C3A29469  14.473   4.577  13.695  0.0112  0.0547 -0.0114
24249DOPA   C4A29470  14.152   4.670  13.337 -0.1215  0.0359 -0.0835
24249DOPA   C1B29471  14.910   5.377  14.134  0.0306  0.1264 -0.0371
24249DOPA   D2B29472  14.918   5.376  13.676  0.4450 -0.2261 -0.2092
24249DOPA   C3B29473  14.876   5.116  13.353 -0.1877  0.1118  0.0491
24249DOPA   C4B29474  14.600   4.831  13.126 -0.0797  0.0759  0.1033
24250DOPA   PO429475  20.345   5.539  15.460  0.0032  0.1140  0.1887
24250DOPA   GL129476  20.099   5.757  15.123  0.2002 -0.1656 -0.1455
24250DOPA   GL229477  19.973   5.539  15.058 -0.2651  0.3900 -0.3781
24250DOPA   C1A29478  20.128   5.987  14.752 -0.1603 -0.0355  0.0196
24250DOPA   D2A29479  20.180   6.130  14.279 -0.0211 -0.4199  0.1523
24250DOPA   C3A29480  20.412   6.150  13.875  0.2832 -0.2315  0.2766
24250DOPA   C4A29481  20.578   6.193  13.405  0.0385 -0.1714 -0.1065
24250DOPA   C1B29482  20.142   5.458  14.653 -0.0317 -0.0505 -0.0116
24250DOPA   D2B29483  20.321   5.501  14.221 -0.2116 -0.1232 -0.1331
24250DOPA   C3B29484  20.224   5.595  13.796 -0.0539  0.1215  0.2988
24250DOPA   C4B29485  20.256   5.855  13.327 -0.0061  0.3209  0.2419
24251DOPA   PO429486   0.463   0.035  15.515  0.2347  0.0252  0.1425
24251DOPA   GL129487   0.452  -0.011  15.069 -0.1132 -0.0448  0.2194
24251DOPA   GL229488   0.238   0.244  15.033  0.0431 -0.1372 -0.1352
24251DOPA   C1A29489   0.765  -0.150  14.721 -0.1757 -0.1425  0.0072
24251DOPA   D2A29490   1.163  -0.446  14.555 -0.1457 -0.0652 -0.0325
24251DOPA   C3A29491   1.345  -0.615  14.184 -0.2672  0.0885 -0.1989
24251DOPA   C4A29492   1.389  -1.005  13.839  0.2391 -0.1182  0.2201
24251DOPA   C1B29493   0.353   0.523  14.733 -0.1241  0.0838  0.0067
24251DOPA   D2B29494   0.661   0.883  14.621 -0.2385 -0.2702 -0.0201
24251DOPA   C3B29495   0.846   0.698  14.259 -0.1727  0.0218  0.0317
24251DOPA   C4B29496   1.019   0.646  13.731 -0.1474  0.1044  0.0587
24252DOPA   PO429497  24.202   7.762  15.738  0.1458 -0.1836  0.1070
24252DOPA   GL129498  24.003   7.914  15.393 -0.0506  0.0039 -0.0374
24252DOPA   GL229499  24.214   7.716  15.316  0.0092  0.0899  0.2151
24252DOPA   C1A29500  24.014   8.110  15.046  0.0454 -0.2873  0.0233
24252DOPA   D2A29501  23.929   8.519  14.761 -0.1330  0.1067  0.2669
24252DOPA   C3A29502  23.640   8.539  14.428 -0.1476 -0.0335 -0.1399
24252DOPA   C4A29503  23.375   8.523  13.998 -0.0005  0.0531 -0.1203
24252DOPA   C1B29504  24.382   7.756  14.917 -0.3365  0.1497 -0.2488
24252DOPA   D2B29505  24.496   7.492  14.469 -0.2887 -0.2854  0.0424
24252DOPA   C3B29506  24.739   7.280  14.156 -0.1592 -0.0605  0.0206
24252DOPA   C4B29507  24.705   6.969  13.862 -0.0514  0.0177  0.2520
24253DOPA   PO429508  29.941   2.274  15.005 -0.2199  0.0101 -0.2074
24253DOPA   GL129509  29.957   2.249  14.619  0.0632 -0.1184 -0.4039
24253DOPA   GL229510  30.244   2.206  14.609 -0.2654 -0.0096 -0.4012
24253DOPA   C1A29511  29.939   1.969  14.246  0.3057 -0.0022  0.0515
24253DOPA   D2A29512  30.198   1.668  13.945  0.1830 -0.0180 -0.0157
24253DOPA   C3A29513  30.359   1.752  13.500 -0.2731 -0.1564  0.3335
24253DOPA   C4A29514  30.454   1.873  13.052  0.0626 -0.1469 -0.2415
24253DOPA   C1B29515  30.415   2.350  14.271 -0.1475 -0.0748 -0.0827
24253DOPA   D2B29516  30.739   2.380  13.889 -0.0370  0.0183 -0.2592
24253DOPA   C3B29517  31.112   2.629  13.835 -0.0509 -0.2036  0.1310
24253DOPA   C4B29518  31.404   2.964  13.895 -0.0788  0.0369  0.1633
24254DOPA   PO429519   3.484   6.299  15.304  0.3552  0.0587  0.2112
24254DOPA   GL129520   3.519   6.088  14.925 -0.0298 -0.0719  0.0748
24254DOPA   GL229521   3.573   6.396  14.769  0.0155  0.0647  0.2571
24254DOPA   C1A29522   3.302   5.896  14.524  0.1195 -0.0348  0.0588
24254DOPA   D2A29523   3.062   6.131  14.136  0.2986 -0.0368 -0.0950
24254DOPA   C3A29524   3.276   5.877  13.772 -0.3027 -0.1001 -0.0201
24254DOPA   C4A29525   3.502   5.417  13.617  0.0056 -0.0612  0.0252
24254DOPA   C1B29526   3.880   6.762  14.756  0.2684 -0.1393 -0.0526
24254DOPA   D2B29527   4.265   7.134  14.758 -0.0726  0.1724 -0.2114
24254DOPA   C3B29528   4.586   7.006  14.332  0.2059 -0.0306  0.1477
24254DOPA   C4B29529   4.680   6.850  13.908  0.0542  0.2606 -0.2229
24255DOPA   PO429530   4.249   3.056  15.042 -0.0803 -0.3944 -0.3152
24255DOPA   GL129531   3.958   3.056  14.766 -0.2732 -0.2277  0.0875
24255DOPA   GL229532   3.753   2.861  14.773  0.5130  0.1209 -0.1455
24255DOPA   C1A29533   4.155   3.059  14.374  0.0597 -0.0271 -0.0721
24255DOPA   D2A29534   4.175   3.033  13.908 -0.0581  0.0673 -0.1714
24255DOPA   C3A29535   3.907   2.726  13.671 -0.1362 -0.1706 -0.1558
24255DOPA   C4A29536   3.899   2.311  13.408 -0.2606 -0.0949 -0.0017
24255DOPA   C1B29537   3.804   2.716  14.425  0.1285 -0.0996  0.1679
24255DOPA   D2B29538   3.672   2.433  14.006  0.0037 -0.1595 -0.0889
24255DOPA   C3B29539   3.594   2.077  13.819  0.0439  0.1953  0.0053
24255DOPA   C4B29540   3.592   1.608  13.744  0.2723  0.1704  0.0521
24256DOPA   PO429541  14.224   3.469  14.796  0.2522  0.1044  0.2084
24256DOPA   GL129542  14.355   3.336  14.396  0.1469  0.0940  0.0119
24256DOPA   GL229543  14.111   3.199  14.306  0.1125 -0.1469  0.2616
24256DOPA   C1A29544  14.626   3.525  14.123 -0.0658 -0.1462 -0.2322
24256DOPA   D2A29545  15.086   3.308  14.008  0.0617 -0.0800 -0.2020
24256DOPA   C3A29546  15.377   3.423  13.681 -0.3270  0.1199  0.0991
24256DOPA   C4A29547  15.858   3.477  13.478  0.1442 -0.1791 -0.4856
24256DOPA   C1B29548  14.224   3.322  13.899 -0.0941  0.1235 -0.1229
24256DOPA   D2B29549  14.178   3.643  13.540  0.0368  0.3007 -0.1100
24256DOPA   C3B29550  14.239   3.881  13.158 -0.1199 -0.0834 -0.2102
24256DOPA   C4B29551  14.421   4.019  12.733  0.1673 -0.1383 -0.3426
24257DOPA   PO429552  14.510   2.178  14.904  0.2427  0.4102 -0.2134
24257DOPA   GL129553  14.448   2.088  14.466 -0.1998 -0.0632  0.0001
24257DOPA   GL229554  14.197   1.927  14.564 -0.4018  0.1813  0.1301
24257DOPA   C1A29555  14.449   2.266  14.082  0.1971 -0.0142 -0.1174
24257DOPA   D2A29556  14.227   2.671  13.863  0.0979 -0.0401  0.1158
24257DOPA   C3A29557  14.115   2.576  13.352  0.0406 -0.1671  0.1098
24257DOPA   C4A29558  13.932   2.660  12.912 -0.1345  0.3649 -0.1088
24257DOPA   C1B29559  13.914   1.948  14.181 -0.0539 -0.4196 -0.0778
24257DOPA   D2B29560  13.626   1.799  13.822 -0.2251  0.2164 -0.1989
24257DOPA   C3B29561  13.498   2.096  13.572 -0.0153  0.3015  0.0863
24257DOPA   C4B29562  13.624   2.588  13.487  0.6276  0.1372 -0.1610
24258DOPA   PO429563  19.162   2.689  15.123 -0.0430 -0.0663 -0.1537
24258DOPA   GL129564  19.452   2.607  14.820  0.4840  0.0220 -0.3888
24258DOPA   GL229565  19.346   2.909  14.791  0.1113  0.0075  0.0605
24258DOPA   C1A29566  19.379   2.577  14.365 -0.0394 -0.1671  0.2041
24258DOPA   D2A29567  19.386   2.900  13.960 -0.1210  0.0214 -0.0184
24258DOPA   C3A29568  18.917   3.013  13.963 -0.0960 -0.1407 -0.1297
24258DOPA   C4A29569  18.650   3.240  13.625 -0.0449  0.1481 -0.0621
24258DOPA   C1B29570  18.986   3.132  14.566  0.1262  0.0467  0.1531
24258DOPA   D2B29571  18.607   3.177  14.297  0.3724 -0.4062 -0.3289
24258DOPA   C3B29572  18.545   3.548  14.034  0.2010  0.1583  0.0634
24258DOPA   C4B29573  18.449   3.730  13.591  0.1247 -0.1068 -0.0867
24259DOPA   PO429574  29.185   4.530  15.199 -0.2185 -0.0469 -0.0609
24259DOPA   GL129575  29.095   4.691  14.844 -0.1142 -0.1655 -0.0392
24259DOPA   GL229576  29.379   4.806  14.818 -0.2348  0.3301 -0.1780
24259DOPA   C1A29577  28.869   4.984  14.646  0.0613 -0.1532 -0.0979
24259DOPA   D2A29578  28.810   5.251  14.203 -0.0833  0.0035 -0.2065
24259DOPA   C3A29579  28.933   5.327  13.776  0.2009  0.2753  0.2962
24259DOPA   C4A29580  28.973   5.521  13.287  0.1151 -0.0268 -0.0140
24259DOPA   C1B29581  29.601   4.838  14.453  0.1103  0.0684  0.2250
24259DOPA   D2B29582  29.862   5.007  13.984 -0.0097  0.0670  0.0755
24259DOPA   C3B29583  29.706   4.858  13.523 -0.2754 -0.0211  0.3051
24259DOPA   C4B29584  29.577   4.666  13.089 -0.2031 -0.0557  0.0075
24260DOPA   PO429585  23.502   4.142  15.601  0.0601  0.3905 -0.2486
24260DOPA   GL129586  23.657   4.243  15.202  0.0846  0.0385  0.0260
24260DOPA   GL229587  23.940   4.401  15.277 -0.0665 -0.0195 -0.1268
24260DOPA   C1A29588  23.544   4.317  14.729 -0.0439  0.0171  0.0586
24260DOPA   D2A29589  23.247   4.689  14.677 -0.2276  0.0486  0.2470
24260DOPA   C3A29590  22.980   4.760  14.294 -0.2271 -0.4752  0.0186
24260DOPA   C4A29591  22.520   4.932  14.146 -0.3053  0.0144  0.2912
24260DOPA   C1B29592  24.164   4.559  14.887 -0.1800 -0.0941  0.1317
24260DOPA   D2B29593  24.289   4.599  14.396  0.1051  0.0691 -0.1476
24260DOPA   C3B29594  24.464   4.649  13.981 -0.2218  0.1660 -0.0187
24260DOPA   C4B29595  24.696   4.968  13.594 -0.0122 -0.0249  0.1157
24261DOPA   PO429596   4.054   1.974  15.446  0.1526 -0.2035  0.1414
24261DOPA   GL129597   3.975   1.985  15.077 -0.1178  0.3807  0.2923
24261DOPA   GL229598   3.929   1.684  15.033  0.0980 -0.4555 -0.2085
24261DOPA   C1A29599   3.767   2.349  14.912 -0.1853 -0.1157  0.1367
24261DOPA   D2A29600   3.389   2.456  14.598  0.0359  0.3036  0.2678
24261DOPA   C3A29601   3.213   2.273  14.220  0.0842  0.2277 -0.1241
24261DOPA   C4A29602   3.111   2.171  13.832 -0.0294 -0.2782  0.0694
24261DOPA   C1B29603   3.730   1.490  14.607 -0.2107  0.0439 -0.2720
24261DOPA   D2B29604   3.401   1.444  14.209 -0.0905  0.0055  0.0713
24261DOPA   C3B29605   3.106   1.276  13.908  0.0993 -0.0568 -0.4120
24261DOPA   C4B29606   2.875   1.149  13.517  0.0497 -0.1016 -0.0054
24262DOPA   PO429607  30.312   3.108  15.105 -0.0363  0.0894  0.0004
24262DOPA   GL129608  30.427   3.117  14.689 -0.1485 -0.0052  0.0120
24262DOPA   GL229609  30.199   3.213  14.607  0.1042 -0.1936 -0.4803
24262DOPA   C1A29610  30.472   2.803  14.432 -0.0970  0.1009  0.2712
24262DOPA   D2A29611  30.215   2.818  14.010 -0.0390  0.0009 -0.0404
24262DOPA   C3A29612  30.343   2.647  13.561 -0.0854  0.1631 -0.1123
24262DOPA   C4A29613  30.509   2.414  13.123 -0.0443 -0.4084  0.0002
24262DOPA   C1B29614  29.927   2.907  14.419  0.1584  0.0649  0.2754
24262DOPA   D2B29615  29.660   2.584  14.183  0.0457  0.0978  0.1717
24262DOPA   C3B29616  29.642   2.189  13.939  0.0302 -0.1947 -0.0878
24262DOPA   C4B29617  29.733   1.779  13.643 -0.0527  0.0682  0.3008
24263DOPA   PO429618  13.428   3.272  15.004 -0.2067  0.0284  0.0979
24263DOPA   GL129619  13.529   3.006  14.776 -0.2318 -0.4325  0.2215
24263DOPA   GL229620  13.396   2.760  14.793 -0.4121  0.1154 -0.0534
24263DOPA   C1A29621  13.570   3.024  14.332 -0.0857  0.0465 -0.1716
24263DOPA   D2A29622  13.753   3.384  14.062 -0.0600  0.1210  0.0578
24263DOPA   C3A29623  13.722   3.503  13.665  0.1528 -0.1053  0.0275
24263DOPA   C4A29624  13.750   3.510  13.222 -0.2406  0.2327  0.0676
24263DOPA   C1B29625  13.169   2.698  14.434  0.0983 -0.3000  0.0642
24263DOPA   D2B29626  12.842   2.751  14.044  0.1335  0.1541 -0.0083
24263DOPA   C3B29627  12.814   2.936  13.568 -0.3858 -0.3186  0.2457
24263DOPA   C4B29628  12.906   3.031  13.058  0.0319 -0.0944  0.1029
24264DOPA   PO429629  29.894   2.758  15.216 -0.1657 -0.3430 -0.1396
24264DOPA   GL129630  29.838   3.065  14.944 -0.2073  0.0780  0.1355
24264DOPA   GL229631  29.561   3.069  14.948  0.0420 -0.0647  0.3412
24264DOPA   C1A29632  29.838   3.456  14.702 -0.1490 -0.4171 -0.2887
24264DOPA   D2A29633  29.936   3.854  14.426 -0.0697 -0.1799 -0.2225
24264DOPA   C3A29634  29.835   3.999  14.028  0.1961  0.0324  0.0647
24264DOPA   C4A29635  29.808   4.301  13.646  0.0647 -0.2837 -0.0487
24264DOPA   C1B29636  29.476   3.091  14.573  0.0375  0.2217 -0.1546
24264DOPA   D2B29637  29.491   3.453  14.204  0.0923 -0.1579 -0.1042
24264DOPA   C3B29638  29.162   3.369  13.863  0.0665 -0.2256  0.4309
24264DOPA   C4B29639  28.861   3.113  13.521 -0.1466 -0.2314 -0.1853
24265DOPC   NC329640  22.443   5.241  11.658 -0.2407  0.0121 -0.1443
24265DOPC   PO429641  22.692   4.931  11.646  0.0984 -0.1762  0.2314
24265DOPC   GL129642  22.795   4.956  12.060  0.0563 -0.2714 -0.0388
24265DOPC   GL229643  22.590   4.688  12.060  0.0024 -0.0506  0.0015
24265DOPC   C1A29644  22.952   5.098  12.466  0.1734 -0.0797 -0.0754
24265DOPC   D2A29645  23.452   5.033  12.627 -0.0876 -0.0429 -0.0859
24265DOPC   C3A29646  23.542   4.836  13.101 -0.1925  0.1425  0.1876
24265DOPC   C4A29647  23.756   4.411  13.281  0.1505 -0.0341 -0.1032
24265DOPC   C1B29648  22.374   4.594  12.440 -0.2462  0.2214  0.0153
24265DOPC   D2B29649  22.449   4.333  12.829  0.3763 -0.0237  0.3587
24265DOPC   C3B29650  22.495   4.385  13.307  0.1220 -0.0894 -0.1984
24265DOPC   C4B29651  22.646   4.105  13.707  0.1577  0.0559  0.2793
24266DOPC   NC329652   5.308   1.517  11.071 -0.4249  0.1945 -0.1118
24266DOPC   PO429653   4.999   1.517  11.282 -0.0849  0.1033 -0.1348
24266DOPC   GL129654   5.115   1.422  11.673  0.0478 -0.0164  0.1607
24266DOPC   GL229655   5.402   1.354  11.675 -0.0832 -0.2958 -0.0881
24266DOPC   C1A29656   4.868   1.693  11.923 -0.2849 -0.0708 -0.0338
24266DOPC   D2A29657   4.503   1.660  12.214 -0.1348  0.0948 -0.2539
24266DOPC   C3A29658   4.419   1.508  12.640  0.0922  0.0269 -0.1287
24266DOPC   C4A29659   4.057   1.516  12.992  0.4476 -0.0804  0.0870
24266DOPC   C1B29660   5.430   1.344  12.132 -0.1690 -0.0036 -0.0881
24266DOPC   D2B29661   5.578   1.492  12.612 -0.2149 -0.0495 -0.1619
24266DOPC   C3B29662   5.789   1.282  12.955 -0.0075  0.0250 -0.0245
24266DOPC   C4B29663   6.232   1.058  13.051  0.0744  0.1354  0.0040
24267DOPC   NC329664  24.209   7.698  11.818 -0.1306 -0.0547  0.0436
24267DOPC   PO429665  23.875   7.652  11.620 -0.0334 -0.1838  0.0119
24267DOPC   GL129666  23.699   7.898  11.927 -0.0403 -0.0673 -0.1674
24267DOPC   GL229667  23.967   8.087  11.889 -0.2661 -0.0072  0.0313
24267DOPC   C1A29668  23.492   7.964  12.249  0.1069  0.3574 -0.2895
24267DOPC   D2A29669  23.135   7.764  12.530 -0.0867 -0.1740  0.2490
24267DOPC   C3A29670  22.680   7.775  12.608 -0.1687  0.0293 -0.2305
24267DOPC   C4A29671  22.304   7.844  12.911  0.0214 -0.0949 -0.0015
24267DOPC   C1B29672  23.897   8.273  12.248 -0.1722 -0.1502  0.1221
24267DOPC   D2B29673  23.768   8.571  12.649  0.1401  0.0231 -0.0415
24267DOPC   C3B29674  23.756   8.640  13.066 -0.2031  0.0566  0.1952
24267DOPC   C4B29675  23.957   8.638  13.537 -0.2492 -0.0876  0.0622
24268DOPC   NC329676   6.173   3.166  11.042  0.0038  0.0845  0.0354
24268DOPC   PO429677   6.523   3.003  11.196  0.0354 -0.1226  0.0458
24268DOPC   GL129678   6.451   2.919  11.646  0.1725  0.2063 -0.3620
24268DOPC   GL229679   6.442   3.244  11.625  0.1614 -0.0150 -0.0810
24268DOPC   C1A29680   6.448   2.670  11.979 -0.0487 -0.2254 -0.2596
24268DOPC   D2A29681   6.602   2.556  12.448 -0.2572  0.0906 -0.2078
24268DOPC   C3A29682   6.590   2.803  12.862 -0.1692 -0.0079 -0.1041
24268DOPC   C4A29683   6.494   3.117  13.226 -0.0204 -0.2814  0.1140
24268DOPC   C1B29684   6.723   3.463  11.936  0.3216 -0.1448 -0.2610
24268DOPC   D2B29685   6.932   3.733  12.357  0.0652 -0.0317 -0.2418
24268DOPC   C3B29686   6.995   3.690  12.795  0.5579 -0.0145 -0.3402
24268DOPC   C4B29687   6.882   3.539  13.184 -0.1613  0.0539  0.4431
24269DOPC   NC329688  10.177   5.084  10.897  0.0774  0.1127  0.1678
24269DOPC   PO429689   9.880   5.304  11.123 -0.2131  0.1839 -0.0110
24269DOPC   GL129690  10.137   5.322  11.457 -0.3871 -0.2663 -0.1294
24269DOPC   GL229691  10.021   5.122  11.554 -0.1330 -0.0639  0.0285
24269DOPC   C1A29692  10.211   5.589  11.797  0.3292 -0.0738 -0.2422
24269DOPC   D2A29693  10.200   5.696  12.276 -0.1671  0.0596 -0.0666
24269DOPC   C3A29694   9.857   5.969  12.427  0.0659 -0.0608  0.0531
24269DOPC   C4A29695   9.451   6.109  12.609  0.2164  0.1259 -0.1039
24269DOPC   C1B29696  10.142   5.096  11.996  0.1701  0.0758 -0.2050
24269DOPC   D2B29697  10.134   5.246  12.504  0.2751 -0.0831  0.1626
24269DOPC   C3B29698  10.133   5.615  12.765 -0.1120 -0.0741 -0.0527
24269DOPC   C4B29699  10.304   5.933  13.166  0.3010  0.5095  0.1874
24270DOPC   NC329700  27.825   5.874  11.316 -0.1558  0.1458  0.2704
24270DOPC   PO429701  28.138   5.654  11.131 -0.0220  0.2618 -0.1964
24270DOPC   GL129702  28.453   5.395  11.215  0.1898 -0.0709  0.1412
24270DOPC   GL229703  28.664   5.407  11.056 -0.2351 -0.0340  0.2769
24270DOPC   C1A29704  28.579   5.322  11.609  0.2065 -0.2365 -0.0595
24270DOPC   D2A29705  28.583   5.155  12.149  0.1188 -0.0267  0.0436
24270DOPC   C3A29706  28.146   5.081  12.401  0.0900  0.2254 -0.1092
24270DOPC   C4A29707  27.825   4.791  12.638 -0.2648 -0.0334  0.0751
24270DOPC   C1B29708  28.978   5.486  11.339 -0.1533 -0.3622 -0.0951
24270DOPC   D2B29709  29.349   5.704  11.594  0.0399 -0.1650 -0.0792
24270DOPC   C3B29710  29.711   5.519  11.609  0.2011  0.3621 -0.2502
24270DOPC   C4B29711  30.208   5.592  11.604  0.1687 -0.1076 -0.1002
24271DOPC   NC329712   1.755   6.726  11.696  0.2270 -0.0079 -0.0122
24271DOPC   PO429713   1.342   6.710  11.540 -0.1289  0.2725 -0.1967
24271DOPC   GL129714   1.105   6.639  11.892  0.0299 -0.0790 -0.3559
24271DOPC   GL229715   0.921   6.439  11.814  0.1176  0.1158 -0.1431
24271DOPC   C1A29716   1.448   6.563  12.188  0.1325  0.4195  0.0367
24271DOPC   D2A29717   1.802   6.458  12.555 -0.1607 -0.2141 -0.2234
24271DOPC   C3A29718   1.854   6.496  13.013  0.1816 -0.3033  0.1167
24271DOPC   C4A29719   2.117   6.901  13.306  0.0201  0.0329 -0.0713
24271DOPC   C1B29720   1.105   6.125  12.060  0.0453 -0.0467 -0.0603
24271DOPC   D2B29721   1.427   6.030  12.387 -0.0107  0.1171 -0.2729
24271DOPC   C3B29722   1.460   6.055  12.866 -0.1594 -0.1006 -0.0999
24271DOPC   C4B29723   1.282   6.119  13.347 -0.0641 -0.2013 -0.0475
24272DOPC   NC329724  25.970   6.777  11.200  0.2499  0.0550 -0.0547
24272DOPC   PO429725  26.303   6.710  10.944 -0.0398 -0.1869  0.0173
24272DOPC   GL129726  26.677   6.618  11.226  0.3171 -0.0270 -0.2056
24272DOPC   GL229727  26.452   6.864  11.374 -0.0854  0.3474 -0.2236
24272DOPC   C1A29728  26.911   6.407  11.556  0.2082  0.2514  0.1070
24272DOPC   D2A29729  27.040   6.196  11.955  0.1061  0.3263 -0.1765
24272DOPC   C3A29730  27.403   6.087  12.077 -0.0464  0.0978  0.2120
24272DOPC   C4A29731  27.793   5.818  11.966  0.1388 -0.2979 -0.1072
24272DOPC   C1B29732  26.529   6.968  11.821  0.0104 -0.1338  0.1231
24272DOPC   D2B29733  26.737   7.079  12.275 -0.1332 -0.0620 -0.0000
24272DOPC   C3B29734  26.710   7.153  12.745 -0.1479 -0.0368 -0.1721
24272DOPC   C4B29735  26.732   7.196  13.211  0.0498  0.0863 -0.1041
24273DOPC   NC329736   3.949   6.128  10.983 -0.0985  0.1643 -0.1845
24273DOPC   PO429737   3.728   5.935  11.224  0.0085  0.2524 -0.2128
24273DOPC   GL129738   3.626   5.876  11.656 -0.3576 -0.1115 -0.2532
24273DOPC   GL229739   3.784   5.592  11.595 -0.0967 -0.2996 -0.1469
24273DOPC   C1A29740   3.762   5.918  12.032 -0.2612 -0.0016 -0.2350
24273DOPC   D2A29741   3.956   5.783  12.483 -0.0882  0.0714  0.1041
24273DOPC   C3A29742   3.707   5.973  12.846 -0.0293 -0.3115  0.1883
24273DOPC   C4A29743   3.635   6.108  13.309  0.1729 -0.1031 -0.4869
24273DOPC   C1B29744   3.636   5.213  11.750 -0.4289  0.0533 -0.0474
24273DOPC   D2B29745   3.483   4.759  11.974  0.1758 -0.1612  0.0134
24273DOPC   C3B29746   3.356   4.628  12.410 -0.0175 -0.2839  0.0386
24273DOPC   C4B29747   3.309   4.668  12.902 -0.1419 -0.1154 -0.0587
24274DOPC   NC329748   0.871   2.915  11.148 -0.0667 -0.3165 -0.1551
24274DOPC   PO429749   0.884   2.544  11.287  0.0834  0.0627  0.0310
24274DOPC   GL129750   0.680   2.337  11.631  0.3593  0.1156 -0.0948
24274DOPC   GL229751   0.619   2.633  11.750 -0.1470 -0.2847  0.1723
24274DOPC   C1A29752   0.561   2.255  11.985  0.1463 -0.2921 -0.1662
24274DOPC   D2A29753   0.492   2.081  12.418 -0.0108 -0.0229 -0.0713
24274DOPC   C3A29754   0.621   2.060  12.752 -0.0855  0.0143 -0.2025
24274DOPC   C4A29755   0.711   2.006  13.298  0.0965 -0.0245 -0.0454
24274DOPC   C1B29756   0.696   2.730  12.198 -0.2660 -0.0678  0.0160
24274DOPC   D2B29757   0.485   2.838  12.635 -0.2025  0.1060 -0.0539
24274DOPC   C3B29758   0.198   2.746  12.973  0.2087  0.3081 -0.1030
24274DOPC   C4B29759   0.027   2.922  13.437  0.3734 -0.0343 -0.1540
24275DOPC   NC329760   6.811   0.266  10.844 -0.0320 -0.1952  0.0031
24275DOPC   PO429761   6.384   0.170  10.879 -0.2357  0.0877  0.1100
24275DOPC   GL129762   6.384   0.022  11.284  0.0130 -0.1279  0.0044
24275DOPC   GL229763   6.557  -0.141  11.236 -0.0727  0.0807 -0.0845
24275DOPC   C1A29764   6.515   0.073  11.720  0.1685 -0.1287 -0.0065
24275DOPC   D2A29765   6.435   0.237  12.206  0.3158  0.2651  0.0546
24275DOPC   C3A29766   6.277   0.014  12.625  0.3978  0.1702 -0.0528
24275DOPC   C4A29767   6.188  -0.255  13.015  0.1446  0.2255  0.0089
24275DOPC   C1B29768   6.833  -0.314  11.504 -0.0131  0.1191 -0.1037
24275DOPC   D2B29769   7.113  -0.534  11.919 -0.0339  0.1945  0.2860
24275DOPC   C3B29770   7.099  -0.339  12.347  0.0862 -0.0916 -0.1376
24275DOPC   C4B29771   7.147  -0.289  12.839 -0.0307  0.0323  0.1054
24276DOPC   NC329772  24.870   0.267  11.751  0.0105 -0.0765 -0.0200
24276DOPC   PO429773  24.493   0.276  11.678 -0.0864  0.0860 -0.2140
24276DOPC   GL129774  24.360   0.263  12.042 -0.1633  0.0186 -0.2461
24276DOPC   GL229775  24.631   0.152  12.133 -0.1004 -0.2368  0.1476
24276DOPC   C1A29776  24.198   0.076  12.370 -0.1764  0.0084 -0.1650
24276DOPC   D2A29777  24.086   0.056  12.829 -0.1820 -0.0392 -0.4010
24276DOPC   C3A29778  24.222  -0.256  13.166  0.0278 -0.0462  0.1445
24276DOPC   C4A29779  24.593  -0.529  13.406 -0.2929 -0.2485 -0.1086
24276DOPC   C1B29780  24.651   0.145  12.594  0.2205  0.1704  0.1712
24276DOPC   D2B29781  24.987   0.231  12.981  0.1747 -0.0101 -0.2821
24276DOPC   C3B29782  24.899  -0.100  13.340 -0.0352  0.2188 -0.0090
24276DOPC   C4B29783  24.959  -0.407  13.757  0.2433 -0.1227  0.0219
24277DOPC   NC329784   8.741   4.637  11.176 -0.0443  0.0504 -0.0700
24277DOPC   PO429785   8.555   4.737  11.485 -0.0006 -0.0864 -0.1417
24277DOPC   GL129786   8.444   4.762  11.820 -0.1554 -0.0237 -0.1815
24277DOPC   GL229787   8.161   4.643  11.838 -0.2061  0.0781 -0.0014
24277DOPC   C1A29788   8.487   5.148  12.092 -0.2148  0.0731  0.2329
24277DOPC   D2A29789   8.605   5.365  12.449 -0.0468 -0.0017  0.0631
24277DOPC   C3A29790   8.725   5.115  12.825 -0.2328  0.0749  0.0398
24277DOPC   C4A29791   8.841   4.944  13.268 -0.1679 -0.4565  0.0985
24277DOPC   C1B29792   8.069   4.633  12.276 -0.4198 -0.0512 -0.0505
24277DOPC   D2B29793   8.234   4.471  12.722  0.1760  0.0798 -0.1172
24277DOPC   C3B29794   8.235   4.416  13.172 -0.1048  0.2452 -0.0630
24277DOPC   C4B29795   8.099   4.381  13.652  0.0673  0.1290 -0.1661
24278DOPC   NC329796  30.946   2.375  11.378  0.0464  0.4282 -0.0562
24278DOPC   PO429797  31.083   2.748  11.317 -0.0750  0.1402 -0.0958
24278DOPC   GL129798  30.935   2.899  11.743 -0.3005  0.5918  0.6403
24278DOPC   GL229799  30.672   2.759  11.641 -0.3011 -0.2019 -0.0067
24278DOPC   C1A29800  31.062   2.993  12.128  0.0804  0.0154  0.0918
24278DOPC   D2A29801  31.182   3.072  12.609 -0.0666  0.1066 -0.0231
24278DOPC   C3A29802  30.896   2.946  13.004 -0.2925 -0.1246 -0.2726
24278DOPC   C4A29803  30.514   3.062  13.248 -0.3131 -0.1938  0.4490
24278DOPC   C1B29804  30.443   2.977  11.973 -0.1965  0.1461  0.0437
24278DOPC   D2B29805  30.162   2.941  12.371 -0.0024 -0.3838  0.1113
24278DOPC   C3B29806  29.812   2.756  12.556 -0.3193  0.2489 -0.1803
24278DOPC   C4B29807  29.543   2.343  12.613 -0.4247 -0.2858  0.1139
24279DOPC   NC329808  24.517   3.584  11.085  0.0252 -0.2443 -0.0901
24279DOPC   PO429809  24.766   3.751  11.335 -0.1168  0.0890 -0.2187
24279DOPC   GL129810  24.818   3.494  11.692  0.0007  0.2128  0.1160
24279DOPC   GL229811  25.093   3.425  11.568  0.2123  0.0295  0.0692
24279DOPC   C1A29812  24.674   3.774  12.009  0.1895  0.0411  0.1239
24279DOPC   D2A29813  24.341   4.118  12.127 -0.3709 -0.0627 -0.0604
24279DOPC   C3A29814  24.248   4.195  12.600  0.1100 -0.0275 -0.3846
24279DOPC   C4A29815  24.264   4.300  13.087  0.1686 -0.1041 -0.0989
24279DOPC   C1B29816  25.483   3.638  11.673 -0.2849 -0.0761 -0.2243
24279DOPC   D2B29817  25.828   4.022  11.796  0.1962 -0.1936 -0.2805
24279DOPC   C3B29818  26.018   4.287  12.083  0.0117 -0.5275 -0.0141
24279DOPC   C4B29819  26.284   4.527  12.376 -0.0343 -0.0816 -0.3314
24280DOPC   NC329820   8.453   1.867  11.058  0.2748  0.1873  0.2500
24280DOPC   PO429821   8.171   1.617  11.250  0.0050  0.0981 -0.1672
24280DOPC   GL129822   8.153   1.762  11.628  0.3183  0.1162 -0.1121
24280DOPC   GL229823   8.265   1.460  11.748  0.1422 -0.0648 -0.1441
24280DOPC   C1A29824   7.895   1.716  12.007 -0.0902 -0.0680 -0.1006
24280DOPC   D2A29825   7.796   1.698  12.488  0.1038 -0.2112  0.1353
24280DOPC   C3A29826   7.936   1.714  12.939  0.2705  0.1582  0.0057
24280DOPC   C4A29827   7.790   1.450  13.335 -0.0460  0.0116  0.2800
24280DOPC   C1B29828   8.337   1.322  12.194 -0.3769  0.0893  0.0446
24280DOPC   D2B29829   8.389   1.481  12.690  0.5948 -0.2721 -0.1755
24280DOPC   C3B29830   8.375   1.637  13.118 -0.1400  0.2010  0.2675
24280DOPC   C4B29831   8.121   1.801  13.549  0.4385 -0.2450 -0.0346
24281DOPC   NC329832   0.774   5.431  11.366  0.1281  0.1799 -0.1251
24281DOPC   PO429833   1.010   5.401  11.049 -0.1429 -0.0938  0.0102
24281DOPC   GL129834   1.453   5.271  11.276  0.0624 -0.3983 -0.1507
24281DOPC   GL229835   1.207   5.144  11.420  0.0392  0.1224 -0.5797
24281DOPC   C1A29836   1.651   5.250  11.611 -0.1211 -0.1227 -0.0726
24281DOPC   D2A29837   2.058   5.250  11.945 -0.0441 -0.0018  0.2253
24281DOPC   C3A29838   1.918   5.124  12.367 -0.3637 -0.0690 -0.2220
24281DOPC   C4A29839   1.719   5.126  12.799  0.2137  0.0378  0.0999
24281DOPC   C1B29840   1.149   5.469  11.680 -0.2066 -0.1231  0.2563
24281DOPC   D2B29841   0.817   5.687  11.991 -0.2549  0.0330 -0.2591
24281DOPC   C3B29842   1.092   5.643  12.353 -0.4603 -0.0147 -0.1185
24281DOPC   C4B29843   1.146   5.673  12.844 -0.0065  0.3469 -0.0300
24282DOPC   NC329844   9.408   6.562  10.696  0.2173  0.2085  0.1586
24282DOPC   PO429845   9.693   6.373  10.970  0.0951  0.4257  0.2224
24282DOPC   GL129846   9.700   6.459  11.407 -0.3326  0.1369  0.0045
24282DOPC   GL229847   9.850   6.211  11.355  0.0584 -0.1557  0.0209
24282DOPC   C1A29848   9.523   6.253  11.791 -0.3713  0.0998 -0.1041
24282DOPC   D2A29849   9.596   6.402  12.246  0.0829  0.2486  0.0889
24282DOPC   C3A29850   9.667   6.779  12.513 -0.1304 -0.2019 -0.0490
24282DOPC   C4A29851   9.632   7.318  12.542 -0.0439 -0.0338 -0.0855
24282DOPC   C1B29852   9.979   6.073  11.754  0.0760 -0.0074 -0.1340
24282DOPC   D2B29853  10.120   6.302  12.214 -0.0660  0.0560 -0.2853
24282DOPC   C3B29854  10.331   6.096  12.625  0.6015 -0.1605 -0.0439
24282DOPC   C4B29855  10.777   5.977  12.882 -0.0438  0.1277  0.1159
24283DOPC   NC329856   1.209   4.968  11.008 -0.0005 -0.0105  0.0093
24283DOPC   PO429857   1.532   4.835  11.147  0.0705  0.0204  0.2579
24283DOPC   GL129858   1.636   4.779  11.552  0.4857  0.1761  0.1111
24283DOPC   GL229859   1.936   4.780  11.626 -0.0954  0.0905 -0.0339
24283DOPC   C1A29860   1.579   4.952  12.008  0.3186 -0.1036 -0.1029
24283DOPC   D2A29861   1.446   4.852  12.466  0.0677 -0.3627  0.3258
24283DOPC   C3A29862   1.005   4.732  12.605  0.0706 -0.1597 -0.1513
24283DOPC   C4A29863   0.664   4.644  12.915  0.2339  0.4576  0.0347
24283DOPC   C1B29864   1.960   4.707  12.103 -0.2871 -0.0051 -0.2583
24283DOPC   D2B29865   1.865   4.642  12.597  0.1047  0.1350 -0.0280
24283DOPC   C3B29866   1.968   4.148  12.577  0.1872 -0.3652 -0.1662
24283DOPC   C4B29867   2.210   3.767  12.734  0.0145 -0.2075 -0.1747
24284DOPC   NC329868  22.531   1.422  11.505 -0.2061  0.0002  0.0106
24284DOPC   PO429869  22.653   1.049  11.578  0.1814 -0.1429  0.1548
24284DOPC   GL129870  22.806   1.274  11.885 -0.1539 -0.1613 -0.0947
24284DOPC   GL229871  22.553   1.333  11.961 -0.2907 -0.1816 -0.2057
24284DOPC   C1A29872  22.810   1.383  12.365 -0.0806 -0.0013  0.0788
24284DOPC   D2A29873  22.394   1.473  12.678  0.0916 -0.1349 -0.0055
24284DOPC   C3A29874  22.257   1.330  13.106 -0.1065  0.0751 -0.0988
24284DOPC   C4A29875  22.321   1.555  13.518  0.0129 -0.2913 -0.1751
24284DOPC   C1B29876  22.234   1.208  12.242  0.0555 -0.2834  0.1873
24284DOPC   D2B29877  21.977   1.174  12.632 -0.2234 -0.0988 -0.2949
24284DOPC   C3B29878  21.831   1.091  13.103 -0.2679  0.3747 -0.0364
24284DOPC   C4B29879  21.798   0.742  13.411 -0.1376  0.0114 -0.1771
24285DOPC   NC329880  23.252   3.723  11.098  0.3282  0.2201  0.0487
24285DOPC   PO429881  23.370   3.433  11.312  0.1857  0.0712  0.3083
24285DOPC   GL129882  23.118   3.218  11.663 -0.6656 -0.0594 -0.0045
24285DOPC   GL229883  23.364   3.098  11.636  0.1750  0.2489  0.1133
24285DOPC   C1A29884  23.122   3.412  12.057  0.1691 -0.0678  0.1392
24285DOPC   D2A29885  22.875   3.758  12.360  0.2910 -0.2586 -0.0179
24285DOPC   C3A29886  22.673   3.860  12.745 -0.1055 -0.1650  0.0845
24285DOPC   C4A29887  22.463   3.604  13.106  0.2044  0.0563 -0.0127
24285DOPC   C1B29888  23.574   3.090  12.026  0.1332  0.0381  0.0127
24285DOPC   D2B29889  23.710   3.240  12.506  0.2374 -0.0250  0.2283
24285DOPC   C3B29890  23.858   2.962  12.832  0.1561 -0.1055  0.0966
24285DOPC   C4B29891  24.099   2.532  12.906 -0.0066 -0.0377  0.2714
24286DOPC   NC329892   4.127   0.919  10.880 -0.2867 -0.0257  0.1918
24286DOPC   PO429893   4.005   0.591  11.085  0.2062  0.0419 -0.0813
24286DOPC   GL129894   4.205   0.406  11.382  0.0571 -0.3289 -0.2619
24286DOPC   GL229895   4.274   0.119  11.374 -0.1783  0.2089  0.0715
24286DOPC   C1A29896   4.109   0.467  11.755  0.2547 -0.1696 -0.1508
24286DOPC   D2A29897   4.159   0.518  12.274 -0.1166  0.2102 -0.0039
24286DOPC   C3A29898   4.313   0.622  12.744  0.1215  0.0633  0.2530
24286DOPC   C4A29899   4.488   0.672  13.185 -0.1655 -0.0826 -0.0357
24286DOPC   C1B29900   4.239  -0.182  11.680 -0.0543 -0.0857 -0.0211
24286DOPC   D2B29901   4.142  -0.643  11.742 -0.1142  0.0338 -0.2960
24286DOPC   C3B29902   4.154  -0.782  12.142  0.0676  0.2457  0.2172
24286DOPC   C4B29903   4.215  -0.483  12.601 -0.1514 -0.1137  0.0991
24287DOPC   NC329904   7.689   6.235  10.694  0.0475  0.1132  0.0480
24287DOPC   PO429905   7.856   6.148  11.029 -0.1704  0.0706 -0.4012
24287DOPC   GL129906   7.611   5.802  11.339 -0.0894  0.2759  0.0889
24287DOPC   GL229907   7.732   5.987  11.468 -0.2211 -0.2783  0.0019
24287DOPC   C1A29908   7.214   5.923  11.516 -0.1167 -0.0231  0.0342
24287DOPC   D2A29909   7.010   6.101  11.949  0.3400  0.0558  0.0476
24287DOPC   C3A29910   6.966   6.037  12.374 -0.3385  0.0236  0.2603
24287DOPC   C4A29911   6.833   6.021  12.788  0.2830  0.1949 -0.1972
24287DOPC   C1B29912   7.845   5.828  11.808  0.0078 -0.0156 -0.1055
24287DOPC   D2B29913   7.678   5.503  12.243 -0.1981  0.0600 -0.1547
24287DOPC   C3B29914   7.692   5.477  12.718 -0.0432  0.1604  0.0517
24287DOPC   C4B29915   7.760   5.271  13.133  0.0544 -0.0023  0.1310
24288DOPC   NC329916  16.625   3.351  10.744  0.0082  0.0890  0.0268
24288DOPC   PO429917  16.869   3.664  10.867  0.1026  0.4452 -0.0343
24288DOPC   GL129918  16.582   3.797  11.151  0.3091  0.1703  0.1548
24288DOPC   GL229919  16.427   3.533  11.088  0.1821 -0.2111 -0.0657
24288DOPC   C1A29920  16.495   4.137  11.403 -0.1445  0.2423 -0.0888
24288DOPC   D2A29921  16.504   4.383  11.841  0.1834 -0.3033  0.0500
24288DOPC   C3A29922  16.489   4.271  12.277 -0.1110  0.1660 -0.1991
24288DOPC   C4A29923  16.514   4.244  12.711 -0.0719 -0.0479  0.0902
24288DOPC   C1B29924  16.377   3.472  11.526  0.0574 -0.0528 -0.3610
24288DOPC   D2B29925  16.396   3.416  12.053 -0.1424 -0.2778 -0.1073
24288DOPC   C3B29926  16.041   3.378  12.303  0.1045 -0.0782 -0.1015
24288DOPC   C4B29927  15.716   3.344  12.683  0.4730 -0.2088 -0.0297
24289DOPC   NC329928   9.305   2.076  11.168  0.1441 -0.2519  0.1109
24289DOPC   PO429929   9.286   1.726  11.273  0.3493 -0.0961 -0.0671
24289DOPC   GL129930   9.387   1.710  11.682 -0.0052  0.3652 -0.0519
24289DOPC   GL229931   9.555   1.950  11.736  0.0805  0.1459 -0.2886
24289DOPC   C1A29932   9.070   1.689  12.030  0.0391 -0.0202  0.0277
24289DOPC   D2A29933   8.821   1.494  12.464  0.0822  0.0683  0.3227
24289DOPC   C3A29934   9.023   1.398  12.898 -0.1952  0.0115  0.1857
24289DOPC   C4A29935   9.327   1.619  13.187  0.2056 -0.1526 -0.1014
24289DOPC   C1B29936   9.903   1.978  12.031  0.0926 -0.0560 -0.0276
24289DOPC   D2B29937  10.148   2.003  12.375 -0.0194 -0.2296 -0.3373
24289DOPC   C3B29938  10.219   2.005  12.885 -0.0029  0.0871 -0.2084
24289DOPC   C4B29939  10.161   1.911  13.339 -0.0464  0.0088  0.0626
24290DOPC   NC329940  13.774   5.377  10.348  0.0482 -0.1419 -0.1284
24290DOPC   PO429941  13.766   5.705  10.619  0.0673 -0.0620 -0.0928
24290DOPC   GL129942  13.681   5.825  11.019  0.0726  0.1162 -0.0494
24290DOPC   GL229943  13.765   6.026  11.010 -0.1369 -0.2970 -0.0204
24290DOPC   C1A29944  13.769   5.729  11.413  0.1848 -0.0577  0.1119
24290DOPC   D2A29945  13.995   5.640  11.872  0.1283 -0.1425 -0.2291
24290DOPC   C3A29946  13.966   5.395  12.304 -0.2453 -0.1198  0.0162
24290DOPC   C4A29947  13.776   5.147  12.585  0.3905  0.1513 -0.0177
24290DOPC   C1B29948  13.562   6.208  11.394 -0.1837  0.0884 -0.0193
24290DOPC   D2B29949  13.470   6.422  11.822  0.1566 -0.0176 -0.0303
24290DOPC   C3B29950  13.749   6.539  12.137  0.3163 -0.1470  0.0109
24290DOPC   C4B29951  14.040   6.540  12.535 -0.4319 -0.2824  0.0811
24291DOPC   NC329952   8.688   7.382  10.824 -0.1068  0.0150 -0.2269
24291DOPC   PO429953   8.510   7.670  11.056  0.0891 -0.1553 -0.1090
24291DOPC   GL129954   8.227   7.568  11.405  0.0268 -0.0197 -0.1667
24291DOPC   GL229955   8.014   7.710  11.259  0.3756  0.1134 -0.0527
24291DOPC   C1A29956   8.384   7.678  11.876 -0.1544  0.0907 -0.1041
24291DOPC   D2A29957   8.623   7.799  12.339  0.1289 -0.3157  0.2320
24291DOPC   C3A29958   8.385   8.052  12.686  0.0076 -0.1814 -0.0664
24291DOPC   C4A29959   7.992   8.014  13.039  0.1185  0.0308 -0.0610
24291DOPC   C1B29960   7.923   7.945  11.611 -0.0123 -0.2418  0.3908
24291DOPC   D2B29961   7.850   8.284  11.942  0.2140  0.2553 -0.3789
24291DOPC   C3B29962   7.967   8.594  12.273  0.0934 -0.2180  0.2934
24291DOPC   C4B29963   7.945   9.044  12.528  0.3600 -0.1075 -0.2182
24292DOPC   NC329964  28.428   6.633  11.234 -0.1388 -0.0387 -0.0107
24292DOPC   PO429965  28.642   6.959  11.154  0.1172  0.1590 -0.1352
24292DOPC   GL129966  28.752   7.081  11.547  0.4274  0.1132 -0.1057
24292DOPC   GL229967  28.622   7.351  11.513 -0.1600 -0.1503 -0.0165
24292DOPC   C1A29968  28.583   6.797  11.797  0.1404  0.0012  0.2575
24292DOPC   D2A29969  28.756   6.430  12.056 -0.4267  0.2974  0.0007
24292DOPC   C3A29970  28.908   6.217  12.418 -0.4096  0.3209 -0.2100
24292DOPC   C4A29971  28.813   5.897  12.770  0.1751 -0.1618 -0.1196
24292DOPC   C1B29972  28.619   7.695  11.930  0.2344  0.0918  0.0717
24292DOPC   D2B29973  28.724   7.827  12.450  0.2524  0.1107 -0.3472
24292DOPC   C3B29974  28.540   7.795  12.876 -0.1097  0.2729 -0.1031
24292DOPC   C4B29975  28.237   7.847  13.287 -0.1615 -0.2010  0.1955
24293DOPC   NC329976   5.876   4.387  11.414 -0.0212 -0.0869 -0.4632
24293DOPC   PO429977   6.074   4.741  11.398  0.1038 -0.0878  0.0424
24293DOPC   GL129978   6.205   5.028  11.640  0.0141 -0.1266  0.1295
24293DOPC   GL229979   6.189   4.849  11.800 -0.0578 -0.1912  0.0994
24293DOPC   C1A29980   6.605   5.164  11.806  0.3282  0.0992 -0.1489
24293DOPC   D2A29981   6.820   5.150  12.245  0.2191  0.1019  0.0474
24293DOPC   C3A29982   6.864   4.723  12.285  0.1239 -0.1417 -0.0328
24293DOPC   C4A29983   6.489   4.428  12.430  0.1370  0.2768  0.3299
24293DOPC   C1B29984   6.012   5.094  12.160 -0.0912 -0.3013  0.4246
24293DOPC   D2B29985   5.819   5.580  12.208 -0.1754 -0.2312 -0.1990
24293DOPC   C3B29986   5.868   5.852  12.562  0.0219 -0.0387 -0.0977
24293DOPC   C4B29987   5.931   6.036  13.019  0.0021 -0.1102 -0.0709
24294DOPC   NC329988  15.303   0.971  10.642  0.2184  0.1667  0.0918
24294DOPC   PO429989  15.626   1.062  10.813 -0.1071  0.0959  0.1335
24294DOPC   GL129990  15.408   1.052  11.189 -0.0316 -0.1457 -0.4004
24294DOPC   GL229991  15.319   1.361  11.071 -0.0912 -0.2811 -0.0777
24294DOPC   C1A29992  15.640   0.965  11.573 -0.2640  0.1082 -0.0046
24294DOPC   D2A29993  15.995   1.112  11.902 -0.1603 -0.2195  0.0856
24294DOPC   C3A29994  16.265   0.940  12.260 -0.1864  0.0594  0.0439
24294DOPC   C4A29995  16.572   1.115  12.643  0.1046 -0.1083  0.0115
24294DOPC   C1B29996  15.428   1.659  11.365 -0.0259  0.1339 -0.1350
24294DOPC   D2B29997  15.567   2.031  11.694  0.1850 -0.0389  0.1701
24294DOPC   C3B29998  15.725   2.212  12.048  0.0297  0.0951  0.0879
24294DOPC   C4B29999  15.653   2.248  12.580 -0.1054 -0.1752  0.2003
24295DOPC   NC330000  15.515   5.907  10.832 -0.0298 -0.1418  0.0039
24295DOPC   PO430001  15.134   5.853  10.765 -0.0650  0.3798 -0.1560
24295DOPC   GL130002  14.990   5.550  11.074  0.0565  0.0202 -0.0385
24295DOPC   GL230003  15.266   5.497  11.150 -0.1725 -0.0727 -0.0565
24295DOPC   C1A30004  14.860   5.616  11.485  0.0124  0.2199  0.0429
24295DOPC   D2A30005  14.721   5.556  11.913  0.2114  0.0546 -0.2912
24295DOPC   C3A30006  14.428   5.926  12.015 -0.0672 -0.0859  0.0401
24295DOPC   C4A30007  14.346   6.389  12.082  0.3171  0.1646 -0.0000
24295DOPC   C1B30008  15.344   5.614  11.553 -0.4459  0.0059 -0.1889
24295DOPC   D2B30009  15.222   5.807  12.010 -0.2333  0.0280 -0.1861
24295DOPC   C3B30010  15.322   6.227  12.191  0.0159  0.4404  0.0763
24295DOPC   C4B30011  15.158   6.635  12.499 -0.1268  0.0726  0.0654
24296DOPC   NC330012  19.801   3.918  11.585  0.0810  0.0844  0.0929
24296DOPC   PO430013  19.855   3.535  11.437 -0.2205 -0.2817 -0.0828
24296DOPC   GL130014  19.724   3.281  11.673 -0.2003 -0.1144  0.0512
24296DOPC   GL230015  19.495   3.157  11.541  0.1304 -0.1645 -0.0732
24296DOPC   C1A30016  19.894   3.188  12.073 -0.2303  0.1456  0.1848
24296DOPC   D2A30017  20.106   3.038  12.541  0.0622 -0.2156 -0.1607
24296DOPC   C3A30018  19.769   3.284  12.863 -0.1519 -0.2211  0.1846
24296DOPC   C4A30019  19.347   3.277  13.133 -0.2584  0.0936  0.0064
24296DOPC   C1B30020  19.098   3.313  11.667 -0.2780 -0.1967  0.3673
24296DOPC   D2B30021  18.667   3.179  11.950  0.3489 -0.2410 -0.1547
24296DOPC   C3B30022  18.587   3.365  12.365 -0.0956 -0.0896  0.2229
24296DOPC   C4B30023  18.377   3.694  12.672  0.1421  0.0041  0.2997
24297DOPC   NC330024  20.205   6.571  11.035 -0.1100  0.1439  0.0656
24297DOPC   PO430025  19.983   6.866  11.167 -0.0368  0.4091 -0.3453
24297DOPC   GL130026  19.987   6.892  11.564 -0.3358 -0.2771  0.0597
24297DOPC   GL230027  19.952   7.209  11.715 -0.2106  0.0222 -0.0020
24297DOPC   C1A30028  20.016   6.669  11.969 -0.0584 -0.0748 -0.1678
24297DOPC   D2A30029  19.951   6.301  12.299 -0.1551 -0.0361 -0.1894
24297DOPC   C3A30030  19.748   6.431  12.682 -0.1621 -0.1929 -0.0765
24297DOPC   C4A30031  19.658   6.149  13.021  0.0690 -0.2888 -0.1001
24297DOPC   C1B30032  20.006   7.338  12.163 -0.1349 -0.1011 -0.1046
24297DOPC   D2B30033  20.051   7.311  12.621  0.1406  0.0802  0.1616
24297DOPC   C3B30034  19.770   7.470  13.018 -0.0052  0.1005  0.1202
24297DOPC   C4B30035  19.433   7.488  13.336  0.2645 -0.2418 -0.2772
24298DOPC   NC330036  26.971   7.677  11.306  0.0128 -0.1419  0.1854
24298DOPC   PO430037  27.286   7.470  11.123  0.2473 -0.1489  0.1132
24298DOPC   GL130038  27.556   7.491  11.515 -0.2438  0.1208  0.0941
24298DOPC   GL230039  27.346   7.720  11.592  0.0828  0.8107 -0.1160
24298DOPC   C1A30040  27.732   7.353  11.873  0.2013 -0.2431  0.0707
24298DOPC   D2A30041  27.946   7.184  12.248 -0.0163 -0.0382  0.0047
24298DOPC   C3A30042  27.671   7.156  12.616  0.0137  0.3457 -0.3089
24298DOPC   C4A30043  27.525   6.732  12.858  0.0842 -0.1065 -0.2096
24298DOPC   C1B30044  27.506   8.086  11.809  0.0538  0.2397 -0.0334
24298DOPC   D2B30045  27.580   8.171  12.319  0.1937 -0.1902 -0.2432
24298DOPC   C3B30046  27.595   8.185  12.797  0.1351 -0.2109 -0.0893
24298DOPC   C4B30047  27.775   8.012  13.251  0.1076  0.1093  0.0491
24299DOPC   NC330048  17.871   5.688  10.748 -0.0920  0.1103  0.0483
24299DOPC   PO430049  18.002   5.340  10.942  0.2972  0.0380  0.3174
24299DOPC   GL130050  17.869   5.269  11.268  0.1604  0.0441 -0.0505
24299DOPC   GL230051  18.048   5.219  11.500  0.3258 -0.0347  0.2325
24299DOPC   C1A30052  17.581   5.448  11.571 -0.2837 -0.2711  0.1008
24299DOPC   D2A30053  17.166   5.524  11.661 -0.2380 -0.0991  0.1863
24299DOPC   C3A30054  16.786   5.311  11.658 -0.0699 -0.0200 -0.0962
24299DOPC   C4A30055  16.690   5.081  11.255  0.2884 -0.0459  0.2848
24299DOPC   C1B30056  18.162   4.873  11.700 -0.0956  0.1690  0.0078
24299DOPC   D2B30057  18.296   4.573  12.053  0.3011  0.2660 -0.3269
24299DOPC   C3B30058  18.101   4.543  12.480  0.1048  0.5599 -0.0983
24299DOPC   C4B30059  17.663   4.571  12.745 -0.0529  0.0185 -0.0194
24300DOPC   NC330060  14.167   6.939  10.442 -0.1843  0.2518  0.0357
24300DOPC   PO430061  14.270   7.244  10.682 -0.2021 -0.1386  0.0557
24300DOPC   GL130062  14.070   7.332  11.085  0.4056  0.0237  0.0979
24300DOPC   GL230063  14.294   7.574  11.125  0.0702  0.3864  0.2000
24300DOPC   C1A30064  13.877   7.678  11.327 -0.0302 -0.1903  0.0290
24300DOPC   D2A30065  13.781   7.845  11.814  0.4209  0.0956  0.1269
24300DOPC   C3A30066  14.082   7.918  12.171  0.0426 -0.2316 -0.0922
24300DOPC   C4A30067  14.100   7.948  12.626  0.4125  0.4337  0.1373
24300DOPC   C1B30068  14.246   7.399  11.483 -0.0612  0.1051 -0.0064
24300DOPC   D2B30069  14.128   7.304  11.963  0.1791  0.0881  0.5061
24300DOPC   C3B30070  14.152   7.503  12.380  0.2230  0.3092  0.0500
24300DOPC   C4B30071  14.195   7.541  12.862  0.1013  0.3501 -0.1131
24301DOPC   NC330072  24.174   0.749  11.913  0.2130  0.0912 -0.0867
24301DOPC   PO430073  24.468   0.757  11.637  0.0300  0.0076 -0.0842
24301DOPC   GL130074  24.801   0.785  11.874 -0.1779  0.1888  0.2724
24301DOPC   GL230075  24.703   0.601  12.022  0.0320  0.0411 -0.2618
24301DOPC   C1A30076  25.079   0.806  12.263  0.2769  0.1912 -0.0572
24301DOPC   D2A30077  25.270   0.694  12.740  0.2312  0.1499 -0.1124
24301DOPC   C3A30078  25.426   0.333  12.801  0.0242 -0.2000 -0.1993
24301DOPC   C4A30079  25.351   0.002  13.199 -0.2343  0.0757  0.0987
24301DOPC   C1B30080  24.423   0.556  12.333 -0.1955  0.0742 -0.0679
24301DOPC   D2B30081  24.179   0.529  12.777  0.0347 -0.3634  0.2547
24301DOPC   C3B30082  24.025   0.470  13.207 -0.0792 -0.3044 -0.1071
24301DOPC   C4B30083  23.972   0.119  13.580 -0.1764  0.0366  0.1304
24302DOPC   NC330084   6.576   6.805  10.969 -0.2475 -0.0483 -0.1546
24302DOPC   PO430085   6.254   6.716  10.811 -0.0531 -0.1032 -0.2202
24302DOPC   GL130086   5.957   6.525  11.041  0.0388  0.2642 -0.1329
24302DOPC   GL230087   6.177   6.339  11.146 -0.3671  0.1988 -0.0054
24302DOPC   C1A30088   5.787   6.747  11.406 -0.1865  0.5197  0.0832
24302DOPC   D2A30089   5.414   6.940  11.673 -0.0775 -0.0377 -0.1373
24302DOPC   C3A30090   5.104   6.920  12.024 -0.1867  0.2541  0.0209
24302DOPC   C4A30091   4.801   6.561  12.182  0.1113 -0.0339  0.0885
24302DOPC   C1B30092   6.189   6.236  11.640  0.2053 -0.0439  0.0795
24302DOPC   D2B30093   6.426   5.995  12.023 -0.1701  0.0504  0.0495
24302DOPC   C3B30094   6.326   6.008  12.437  0.1824  0.1959 -0.0417
24302DOPC   C4B30095   6.346   5.884  12.894  0.0536  0.1592  0.2468
24303DOPC   NC330096  22.954   5.950  11.917 -0.1868  0.0411  0.1361
24303DOPC   PO430097  22.624   5.796  11.703  0.6564 -0.0318  0.3257
24303DOPC   GL130098  22.498   5.719  12.013 -0.2581 -0.2126 -0.0858
24303DOPC   GL230099  22.344   5.476  12.078 -0.0423  0.2410 -0.1937
24303DOPC   C1A30100  22.194   5.997  12.281  0.0440 -0.0403 -0.1044
24303DOPC   D2A30101  21.859   6.007  12.698 -0.0765  0.1199  0.2314
24303DOPC   C3A30102  21.751   6.251  13.068 -0.1784  0.0492  0.3714
24303DOPC   C4A30103  21.583   6.194  13.604 -0.2940 -0.1969  0.1982
24303DOPC   C1B30104  22.084   5.521  12.492  0.2736  0.2566 -0.1312
24303DOPC   D2B30105  22.090   5.511  13.036  0.2258 -0.0418 -0.2617
24303DOPC   C3B30106  22.315   5.232  13.387 -0.1274 -0.0237 -0.1313
24303DOPC   C4B30107  22.345   4.879  13.714  0.0261 -0.0066  0.0773
24304DOPC   NC330108   6.179   2.032  11.113 -0.1142  0.0951 -0.1429
24304DOPC   PO430109   5.845   1.886  11.129  0.1912  0.2641 -0.2586
24304DOPC   GL130110   5.491   1.767  11.470  0.0070 -0.0527 -0.2069
24304DOPC   GL230111   5.696   1.558  11.451  0.0424 -0.1296 -0.1030
24304DOPC   C1A30112   5.295   1.908  11.853 -0.0159 -0.1732 -0.3292
24304DOPC   D2A30113   5.361   1.892  12.336  0.0123 -0.1115 -0.0357
24304DOPC   C3A30114   5.337   2.106  12.768 -0.0786  0.2122 -0.3650
24304DOPC   C4A30115   5.245   2.303  13.228 -0.3432  0.1193 -0.2410
24304DOPC   C1B30116   5.790   1.561  11.905 -0.1829 -0.1725  0.0502
24304DOPC   D2B30117   5.990   1.385  12.278 -0.1476  0.1630  0.0668
24304DOPC   C3B30118   6.186   1.460  12.670  0.1255  0.1977  0.3757
24304DOPC   C4B30119   6.420   1.540  13.039 -0.0809  0.0845  0.0215
24305DOPC   NC330120  15.410   3.495  10.485  0.2059 -0.1810 -0.1278
24305DOPC   PO430121  15.069   3.492  10.722  0.1140  0.0193  0.1805
24305DOPC   GL130122  15.239   3.723  11.039  0.0068 -0.4406 -0.2111
24305DOPC   GL230123  14.974   3.868  11.106  0.0173  0.2641 -0.0182
24305DOPC   C1A30124  15.280   3.496  11.399  0.1792 -0.2717  0.0742
24305DOPC   D2A30125  15.295   3.365  11.864  0.0512 -0.3172  0.1094
24305DOPC   C3A30126  15.526   2.955  11.760 -0.0435 -0.1067 -0.2954
24305DOPC   C4A30127  15.748   2.489  11.647 -0.2852  0.3112 -0.0679
24305DOPC   C1B30128  14.757   3.786  11.542  0.2370  0.1300 -0.0295
24305DOPC   D2B30129  14.636   3.845  12.031  0.1227 -0.2045  0.2016
24305DOPC   C3B30130  14.831   3.870  12.423 -0.0733 -0.2063 -0.1444
24305DOPC   C4B30131  14.911   4.076  12.806  0.3104 -0.0002 -0.1973
24306DOPC   NC330132   2.710   4.921  10.901 -0.0672  0.3667  0.2818
24306DOPC   PO430133   2.361   4.843  11.065 -0.1737  0.3138 -0.1780
24306DOPC   GL130134   2.383   4.673  11.434  0.0349 -0.3686  0.2173
24306DOPC   GL230135   2.208   4.401  11.365  0.2264 -0.1116  0.0191
24306DOPC   C1A30136   2.419   4.709  11.869  0.2894 -0.1483 -0.1798
24306DOPC   D2A30137   2.431   5.059  12.244  0.0226  0.1513 -0.2271
24306DOPC   C3A30138   2.282   5.010  12.646  0.0011 -0.1331 -0.3102
24306DOPC   C4A30139   2.059   4.927  13.120  0.0160  0.1247 -0.0400
24306DOPC   C1B30140   2.248   4.244  11.759  0.0708  0.2310  0.2117
24306DOPC   D2B30141   2.344   4.099  12.248 -0.4537  0.0675  0.2973
24306DOPC   C3B30142   2.420   3.621  12.221 -0.1276 -0.2167 -0.1539
24306DOPC   C4B30143   2.244   3.156  12.341 -0.0496 -0.0533  0.0532
24307DOPC   NC330144  19.379   4.750  11.413 -0.0429 -0.0504 -0.0119
24307DOPC   PO430145  19.763   4.840  11.300 -0.0439  0.1701 -0.1374
24307DOPC   GL130146  20.153   5.000  11.515  0.2549 -0.1092  0.3554
24307DOPC   GL230147  19.936   5.128  11.588  0.0441 -0.2179 -0.1135
24307DOPC   C1A30148  20.228   4.801  11.882  0.0312  0.0569 -0.2150
24307DOPC   D2A30149  20.040   4.519  12.288  0.3924  0.1999  0.0205
24307DOPC   C3A30150  20.057   4.691  12.760  0.0631  0.1852 -0.0061
24307DOPC   C4A30151  20.270   4.844  13.194 -0.0151  0.1619  0.0675
24307DOPC   C1B30152  19.784   5.162  12.064 -0.0065  0.1624 -0.0484
24307DOPC   D2B30153  19.639   4.812  12.378  0.0802  0.0806 -0.1670
24307DOPC   C3B30154  19.458   4.757  12.861 -0.2942 -0.0543 -0.0496
24307DOPC   C4B30155  18.978   4.684  12.926  0.0003  0.3869 -0.0244
24308DOPC   NC330156  16.850   2.471  10.748 -0.1591 -0.0739  0.4741
24308DOPC   PO430157  17.114   2.431  11.069  0.3100 -0.0385 -0.3132
24308DOPC   GL130158  17.055   2.567  11.520  0.1124  0.4317  0.0387
24308DOPC   GL230159  16.840   2.360  11.487  0.1152 -0.1907 -0.1487
24308DOPC   C1A30160  17.020   2.603  11.981 -0.0734 -0.1364  0.3029
24308DOPC   D2A30161  16.884   2.663  12.477 -0.1176  0.0801  0.1159
24308DOPC   C3A30162  17.013   2.334  12.714  0.2261  0.0690  0.2909
24308DOPC   C4A30163  17.296   2.149  13.020 -0.1685 -0.1970  0.1937
24308DOPC   C1B30164  16.695   2.264  11.890 -0.1308  0.0502 -0.1186
24308DOPC   D2B30165  16.648   2.103  12.432 -0.2227  0.2476  0.1507
24308DOPC   C3B30166  16.612   1.723  12.675  0.0299 -0.0399  0.3601
24308DOPC   C4B30167  16.214   1.450  12.850 -0.2042 -0.0488 -0.4335
24309DOPC   NC330168   6.568   5.765  10.750 -0.1547 -0.0081  0.3547
24309DOPC   PO430169   6.886   5.993  10.641 -0.1053 -0.0912  0.1014
24309DOPC   GL130170   6.826   6.027  11.052 -0.3946  0.2767 -0.3808
24309DOPC   GL230171   7.028   5.839  11.086 -0.0586  0.0894  0.0694
24309DOPC   C1A30172   6.694   6.375  11.276  0.1150  0.0850  0.4628
24309DOPC   D2A30173   6.360   6.671  11.425 -0.0468 -0.0334 -0.0026
24309DOPC   C3A30174   6.089   6.671  11.843 -0.0870 -0.0857 -0.1804
24309DOPC   C4A30175   6.074   6.345  12.136  0.0661  0.1136  0.1706
24309DOPC   C1B30176   7.215   6.228  11.145  0.1566  0.5214 -0.0279
24309DOPC   D2B30177   7.537   6.533  11.398 -0.0770 -0.0126 -0.4155
24309DOPC   C3B30178   7.568   6.432  11.874  0.1179  0.1637 -0.0946
24309DOPC   C4B30179   7.556   6.045  12.182 -0.1746  0.1090 -0.0306
24310DOPC   NC330180   6.305   0.547  11.178  0.1066 -0.0608 -0.4814
24310DOPC   PO430181   6.013   0.789  11.390 -0.3262 -0.0680 -0.2284
24310DOPC   GL130182   5.876   0.607  11.722 -0.4309 -0.2301  0.2078
24310DOPC   GL230183   5.789   0.388  11.536  0.1113  0.0271  0.2642
24310DOPC   C1A30184   6.005   0.545  12.102  0.0160  0.2551 -0.0174
24310DOPC   D2A30185   6.147   0.465  12.568 -0.2538  0.0515 -0.0188
24310DOPC   C3A30186   6.251   0.371  12.971  0.3096  0.0289  0.0587
24310DOPC   C4A30187   6.132   0.184  13.467 -0.2694  0.0515  0.0930
24310DOPC   C1B30188   5.623   0.152  11.866 -0.1790 -0.0461 -0.0489
24310DOPC   D2B30189   5.718  -0.129  12.300  0.0708  0.0740  0.2009
24310DOPC   C3B30190   5.802  -0.396  12.698  0.0772  0.2556 -0.0002
24310DOPC   C4B30191   5.725  -0.593  13.165  0.1996  0.1273 -0.3080
24311DOPC   NC330192  12.607   3.028  10.881  0.0631 -0.0293  0.0607
24311DOPC   PO430193  12.621   2.683  11.093 -0.2225  0.0096  0.1381
24311DOPC   GL130194  12.825   2.686  11.405 -0.1966 -0.1692  0.2302
24311DOPC   GL230195  12.731   2.983  11.477  0.3274 -0.0288 -0.2388
24311DOPC   C1A30196  13.046   2.549  11.762  0.4661 -0.0496 -0.0056
24311DOPC   D2A30197  13.121   2.359  12.207  0.0709  0.1116  0.1049
24311DOPC   C3A30198  12.977   2.408  12.641 -0.3690  0.1487 -0.1615
24311DOPC   C4A30199  12.688   2.101  12.954 -0.0605  0.1449 -0.1517
24311DOPC   C1B30200  12.603   2.820  11.838 -0.1526  0.0780 -0.0230
24311DOPC   D2B30201  12.595   2.367  12.147  0.4082  0.0874 -0.0468
24311DOPC   C3B30202  12.332   2.294  12.589  0.1245  0.2313 -0.0391
24311DOPC   C4B30203  12.132   2.070  13.048  0.0176  0.2427  0.1480
24312DOPC   NC330204  16.391   0.542  10.444 -0.1696  0.0225 -0.1087
24312DOPC   PO430205  16.057   0.414  10.663  0.2285  0.1262  0.1227
24312DOPC   GL130206  16.007   0.290  11.115  0.0324 -0.0628 -0.1977
24312DOPC   GL230207  16.228   0.373  11.208 -0.1628  0.1530 -0.1811
24312DOPC   C1A30208  15.743   0.486  11.417 -0.1700 -0.1101  0.0319
24312DOPC   D2A30209  15.372   0.564  11.757 -0.0145  0.2192 -0.1509
24312DOPC   C3A30210  15.177   0.874  12.062  0.0011  0.1313  0.0561
24312DOPC   C4A30211  15.016   1.188  12.413  0.1135 -0.1366 -0.1627
24312DOPC   C1B30212  16.160   0.121  11.594  0.0522 -0.1032 -0.0992
24312DOPC   D2B30213  15.916  -0.097  11.951 -0.0490 -0.0899  0.2117
24312DOPC   C3B30214  15.811   0.008  12.408  0.0526  0.1466  0.1657
24312DOPC   C4B30215  15.766   0.013  12.916  0.0768 -0.0813 -0.0781
24313DOPC   NC330216  10.027   3.547  11.381 -0.1650  0.0081 -0.3190
24313DOPC   PO430217   9.708   3.766  11.382 -0.1707  0.1617 -0.0908
24313DOPC   GL130218   9.711   4.103  11.524  0.3068  0.0213 -0.0401
24313DOPC   GL230219   9.372   4.024  11.591  0.0915  0.1010 -0.0475
24313DOPC   C1A30220   9.869   3.979  11.935 -0.2705 -0.2485 -0.1052
24313DOPC   D2A30221   9.991   3.949  12.386  0.1029 -0.2604  0.0631
24313DOPC   C3A30222  10.163   3.525  12.511 -0.0175  0.2195 -0.0154
24313DOPC   C4A30223  10.157   3.053  12.412  0.2510 -0.0836  0.2169
24313DOPC   C1B30224   9.284   3.858  11.975  0.4858  0.7110 -0.0432
24313DOPC   D2B30225   9.109   3.682  12.417  0.1935 -0.1656 -0.2742
24313DOPC   C3B30226   8.967   3.731  12.858  0.1084 -0.0768  0.1837
24313DOPC   C4B30227   8.817   3.756  13.307  0.0348 -0.4170  0.2240
24314DOPC   NC330228  25.113   7.497  11.390 -0.2154 -0.0181 -0.0250
24314DOPC   PO430229  25.224   7.843  11.564 -0.1468 -0.2120  0.0074
24314DOPC   GL130230  25.223   7.939  12.001  0.1237 -0.1108  0.0531
24314DOPC   GL230231  25.324   8.151  11.853 -0.1364 -0.0912  0.0079
24314DOPC   C1A30232  25.068   8.095  12.362  0.0620 -0.0116  0.1972
24314DOPC   D2A30233  24.815   8.393  12.728 -0.1504  0.0639  0.0055
24314DOPC   C3A30234  24.866   8.520  13.101 -0.1656 -0.2807 -0.4026
24314DOPC   C4A30235  24.875   8.184  13.509  0.0639 -0.1681  0.0818
24314DOPC   C1B30236  25.515   8.283  12.273 -0.1879 -0.0029  0.1055
24314DOPC   D2B30237  25.821   8.489  12.622  0.0734  0.2530  0.3572
24314DOPC   C3B30238  25.698   8.573  13.073  0.1213 -0.2576 -0.1020
24314DOPC   C4B30239  25.618   8.668  13.586  0.2321  0.2758 -0.2828
24315DOPC   NC330240   0.589   7.610  11.514 -0.0274  0.1833 -0.0038
24315DOPC   PO430241   0.321   7.927  11.523  0.1554 -0.0913  0.2585
24315DOPC   GL130242   0.204   7.843  11.892  0.2410  0.1505 -0.1690
24315DOPC   GL230243  -0.068   7.860  11.879 -0.4978 -0.0938  0.0320
24315DOPC   C1A30244   0.330   7.661  12.268 -0.0497  0.0808 -0.1563
24315DOPC   D2A30245   0.384   7.662  12.751 -0.0506  0.0473 -0.4633
24315DOPC   C3A30246   0.498   7.211  12.870 -0.0368 -0.0646  0.1121
24315DOPC   C4A30247   0.434   6.771  13.120  0.0307  0.1736  0.1185
24315DOPC   C1B30248  -0.257   8.087  12.159 -0.0772 -0.1306  0.0568
24315DOPC   D2B30249  -0.093   8.367  12.610  0.1445  0.1514  0.0672
24315DOPC   C3B30250  -0.238   8.293  13.019 -0.0382  0.0356  0.0435
24315DOPC   C4B30251  -0.339   8.284  13.553  0.2093  0.2781  0.2587
24316DOPC   NC330252  24.402   6.298  11.337 -0.3323 -0.1269  0.0635
24316DOPC   PO430253  24.699   6.568  11.346 -0.4349  0.1691 -0.1682
24316DOPC   GL130254  24.841   6.680  11.722  0.1897  0.0434  0.1646
24316DOPC   GL230255  24.627   6.836  11.817  0.2297 -0.1475  0.0321
24316DOPC   C1A30256  25.245   6.873  11.907 -0.0970 -0.1676 -0.2129
24316DOPC   D2A30257  25.692   7.040  11.802 -0.0119  0.1266  0.1589
24316DOPC   C3A30258  26.082   6.961  12.080 -0.3486  0.0519  0.4616
24316DOPC   C4A30259  26.347   6.867  12.433 -0.0916 -0.1907  0.1204
24316DOPC   C1B30260  24.446   6.862  12.230  0.1535  0.0105  0.3702
24316DOPC   D2B30261  24.242   6.851  12.602  0.1426  0.0609 -0.0850
24316DOPC   C3B30262  24.338   6.627  13.009 -0.1523  0.0570  0.0776
24316DOPC   C4B30263  24.495   6.703  13.440 -0.2483 -0.3046  0.0124
24317DOPC   NC330264  25.169   5.829  11.254  0.0517 -0.1716 -0.0963
24317DOPC   PO430265  25.500   6.098  11.344 -0.2356 -0.0474 -0.1177
24317DOPC   GL130266  25.557   6.174  11.743 -0.2745  0.5272 -0.1686
24317DOPC   GL230267  25.555   5.952  11.839  0.2232 -0.2515  0.1774
24317DOPC   C1A30268  25.601   6.558  11.966  0.1872  0.1137  0.0148
24317DOPC   D2A30269  25.966   6.554  12.336  0.1074 -0.0661 -0.2391
24317DOPC   C3A30270  26.230   6.325  12.560  0.1747  0.1447 -0.0568
24317DOPC   C4A30271  26.589   6.144  12.840 -0.2073  0.2073 -0.1455
24317DOPC   C1B30272  25.453   6.138  12.200  0.3700 -0.0339  0.1034
24317DOPC   D2B30273  25.710   6.260  12.628 -0.0850  0.5129  0.1017
24317DOPC   C3B30274  25.622   6.354  13.112  0.1930  0.2375  0.2754
24317DOPC   C4B30275  25.430   6.383  13.573  0.0373  0.2862  0.1736
24318DOPC   NC330276   4.634   2.591  11.085 -0.0931 -0.0907 -0.1352
24318DOPC   PO430277   4.400   2.277  11.193 -0.4272 -0.0831  0.0593
24318DOPC   GL130278   4.466   2.268  11.559  0.0029 -0.0434  0.1372
24318DOPC   GL230279   4.544   2.601  11.574  0.1963  0.1529 -0.1241
24318DOPC   C1A30280   4.172   2.271  11.843 -0.2272  0.0571  0.2057
24318DOPC   D2A30281   4.080   2.384  12.342  0.4091  0.4461 -0.0632
24318DOPC   C3A30282   3.717   2.407  12.686 -0.0918  0.0199  0.1758
24318DOPC   C4A30283   3.476   2.460  13.064  0.3342 -0.1114 -0.3851
24318DOPC   C1B30284   4.616   2.581  11.989 -0.1106 -0.1208  0.1698
24318DOPC   D2B30285   4.582   2.420  12.478 -0.4875  0.0185  0.0090
24318DOPC   C3B30286   4.703   2.074  12.915  0.0071  0.0808  0.2832
24318DOPC   C4B30287   4.686   1.625  13.072 -0.0449  0.2798  0.1644
24319DOPC   NC330288  23.880   6.936  11.087  0.0463  0.0069  0.0136
24319DOPC   PO430289  23.777   6.885  11.486  0.2586  0.0714 -0.0681
24319DOPC   GL130290  23.748   6.950  11.859  0.0217 -0.2367 -0.2407
24319DOPC   GL230291  23.882   7.302  11.880 -0.0123 -0.0496  0.0283
24319DOPC   C1A30292  23.954   6.696  12.169  0.0648 -0.1762  0.3165
24319DOPC   D2A30293  24.024   6.404  12.557 -0.0292 -0.1734 -0.0752
24319DOPC   C3A30294  23.791   6.293  12.973  0.1866 -0.0927 -0.3370
24319DOPC   C4A30295  23.469   6.341  13.355  0.0349  0.0669 -0.1064
24319DOPC   C1B30296  23.736   7.528  12.243  0.0212 -0.3723  0.1003
24319DOPC   D2B30297  23.687   7.684  12.650  0.0744 -0.2681 -0.2710
24319DOPC   C3B30298  23.633   7.817  13.105 -0.0141  0.0410 -0.1321
24319DOPC   C4B30299  23.380   7.750  13.512 -0.1521 -0.1216 -0.0329
24320DOPC   NC330300  13.875   4.024  10.565  0.1619  0.3184  0.0984
24320DOPC   PO430301  13.982   3.855  10.904  0.0469 -0.1568 -0.0676
24320DOPC   GL130302  13.612   3.600  11.097 -0.0176 -0.1491 -0.0345
24320DOPC   GL230303  13.903   3.434  11.106 -0.3466  0.3973 -0.0026
24320DOPC   C1A30304  13.447   3.230  11.322  0.2181 -0.1757 -0.2395
24320DOPC   D2A30305  13.119   2.997  11.621 -0.3653  0.0922  0.1016
24320DOPC   C3A30306  13.033   2.993  12.098  0.3138 -0.0695  0.0277
24320DOPC   C4A30307  13.028   3.089  12.547 -0.0774  0.1296  0.1837
24320DOPC   C1B30308  14.208   3.436  11.423  0.2518 -0.0558 -0.0175
24320DOPC   D2B30309  14.277   3.537  11.902 -0.0563 -0.0505 -0.3163
24320DOPC   C3B30310  14.350   3.588  12.393 -0.1074 -0.0757 -0.1027
24320DOPC   C4B30311  14.023   3.606  12.723 -0.0175 -0.1326  0.0159
24321DOPC   NC330312  24.557   7.527  11.126  0.2691  0.1562 -0.1603
24321DOPC   PO430313  24.684   7.673  11.460  0.1041  0.0183  0.1529
24321DOPC   GL130314  24.719   7.527  11.840  0.4191  0.1358  0.1546
24321DOPC   GL230315  24.981   7.548  11.846 -0.0695  0.4203 -0.1767
24321DOPC   C1A30316  24.505   7.517  12.205  0.0873  0.0826  0.1345
24321DOPC   D2A30317  24.311   7.471  12.650 -0.0313 -0.1574 -0.1835
24321DOPC   C3A30318  23.993   7.254  12.788  0.3264  0.2003  0.2402
24321DOPC   C4A30319  23.866   6.784  12.908 -0.0109 -0.0110 -0.0422
24321DOPC   C1B30320  25.007   7.597  12.233 -0.1375 -0.0180 -0.1998
24321DOPC   D2B30321  25.004   7.537  12.744  0.0936  0.0738  0.1246
24321DOPC   C3B30322  24.664   7.588  12.937  0.1904  0.1513  0.0329
24321DOPC   C4B30323  24.502   8.072  13.090  0.0425  0.2548 -0.1729
24322DOPC   NC330324   4.808   0.368  10.660  0.1522 -0.0168 -0.1509
24322DOPC   PO430325   5.016   0.403  11.008  0.1870  0.2474  0.1627
24322DOPC   GL130326   4.985   0.559  11.344  0.1395  0.0561  0.2452
24322DOPC   GL230327   4.833   0.271  11.444  0.0795  0.0790  0.3937
24322DOPC   C1A30328   5.110   0.790  11.746  0.2390 -0.1284 -0.0358
24322DOPC   D2A30329   5.179   0.916  12.278  0.2760  0.3288  0.1891
24322DOPC   C3A30330   5.578   0.944  12.507  0.1120 -0.1779 -0.3045
24322DOPC   C4A30331   6.021   0.959  12.595 -0.2633  0.2627  0.0623
24322DOPC   C1B30332   5.020   0.247  11.833 -0.0756  0.1232 -0.0870
24322DOPC   D2B30333   5.242   0.131  12.249 -0.2224  0.0591 -0.1071
24322DOPC   C3B30334   4.964  -0.125  12.607  0.2228 -0.1005 -0.0256
24322DOPC   C4B30335   4.791  -0.527  12.801 -0.0209  0.1131  0.0477
24323DOPC   NC330336  21.834   0.402  12.111  0.2264 -0.1563 -0.2373
24323DOPC   PO430337  21.560   0.525  11.838 -0.3815  0.0265 -0.1470
24323DOPC   GL130338  21.301   0.724  12.045 -0.3011  0.0600 -0.1158
24323DOPC   GL230339  21.323   0.988  12.129  0.1565  0.0603  0.1766
24323DOPC   C1A30340  21.175   0.558  12.403  0.0149 -0.2334  0.1307
24323DOPC   D2A30341  20.940   0.746  12.810 -0.1998  0.0817  0.0822
24323DOPC   C3A30342  20.579   0.868  13.061 -0.1228 -0.0397 -0.1390
24323DOPC   C4A30343  20.221   0.790  13.394 -0.0182  0.2135 -0.0079
24323DOPC   C1B30344  21.068   1.128  12.468  0.1225  0.2145  0.0255
24323DOPC   D2B30345  21.052   1.239  12.973  0.1265  0.2791  0.1351
24323DOPC   C3B30346  21.159   1.653  13.143  0.1262 -0.0248 -0.1604
24323DOPC   C4B30347  21.144   2.107  13.032 -0.0725  0.0306 -0.0898
24324DOPC   NC330348   7.300   1.910  11.152 -0.0681  0.1073  0.0607
24324DOPC   PO430349   7.243   1.583  11.370  0.0718 -0.3118 -0.0232
24324DOPC   GL130350   7.169   1.594  11.768  0.0053 -0.0142 -0.1488
24324DOPC   GL230351   7.064   1.247  11.728 -0.0460  0.2643 -0.0383
24324DOPC   C1A30352   6.831   1.798  11.970  0.1930  0.0751 -0.1401
24324DOPC   D2A30353   6.681   2.135  12.188  0.1933 -0.1065  0.4329
24324DOPC   C3A30354   6.255   2.280  12.229 -0.3489 -0.0719 -0.2273
24324DOPC   C4A30355   5.759   2.388  12.328 -0.2100 -0.1929 -0.0760
24324DOPC   C1B30356   7.091   1.079  12.151 -0.0919 -0.1067  0.0006
24324DOPC   D2B30357   6.991   1.080  12.629 -0.0886 -0.0053  0.0534
24324DOPC   C3B30358   7.273   0.817  12.885  0.0917 -0.0155 -0.1108
24324DOPC   C4B30359   7.582   0.445  13.126 -0.0159  0.0476  0.1694
24325DOPC   NC330360  18.044   4.526  10.766  0.2332  0.0196 -0.2861
24325DOPC   PO430361  17.887   4.848  10.932 -0.2994  0.0601 -0.2173
24325DOPC   GL130362  17.672   4.878  11.356 -0.1531  0.1326 -0.2108
24325DOPC   GL230363  17.448   4.793  11.246 -0.1013  0.1468  0.0251
24325DOPC   C1A30364  17.608   4.945  11.797 -0.0187 -0.0106 -0.2046
24325DOPC   D2A30365  17.655   5.404  12.080 -0.0267  0.0941 -0.2628
24325DOPC   C3A30366  17.477   5.259  12.441  0.0415  0.1051  0.1993
24325DOPC   C4A30367  17.539   5.054  12.922  0.1474  0.0848  0.1193
24325DOPC   C1B30368  17.148   5.033  11.422 -0.1910  0.0864 -0.0038
24325DOPC   D2B30369  17.184   5.135  11.959  0.0329 -0.2926 -0.0270
24325DOPC   C3B30370  17.079   5.476  12.201  0.1814  0.1564  0.3320
24325DOPC   C4B30371  16.977   5.518  12.684  0.0035 -0.1852 -0.3384
24326DOPC   NC330372  27.436   1.698  11.405  0.1624 -0.2855  0.0628
24326DOPC   PO430373  27.223   1.990  11.297  0.0258 -0.2798 -0.0557
24326DOPC   GL130374  27.060   2.298  11.661 -0.1356 -0.0054  0.1997
24326DOPC   GL230375  27.345   2.289  11.669  0.0462  0.3310  0.0019
24326DOPC   C1A30376  26.843   2.395  12.045 -0.0383 -0.0914  0.1360
24326DOPC   D2A30377  27.013   2.500  12.524  0.0157  0.1160  0.0307
24326DOPC   C3A30378  27.151   2.345  13.018  0.1100 -0.3097 -0.7042
24326DOPC   C4A30379  27.059   1.948  13.318  0.0977 -0.2172  0.0844
24326DOPC   C1B30380  27.312   2.037  12.005  0.1748  0.4020  0.1298
24326DOPC   D2B30381  27.367   1.789  12.418 -0.0379  0.0057 -0.1791
24326DOPC   C3B30382  26.933   2.019  12.507  0.2017 -0.1411  0.1653
24326DOPC   C4B30383  26.705   2.108  12.923  0.0247  0.1501 -0.1103
24327DOPC   NC330384  21.699   4.372  10.984  0.0672 -0.2295  0.0460
24327DOPC   PO430385  21.938   4.262  11.256  0.0015  0.0541 -0.3537
24327DOPC   GL130386  21.983   4.339  11.698 -0.1126  0.1300  0.5699
24327DOPC   GL230387  21.840   4.557  11.630 -0.1658 -0.0706  0.0215
24327DOPC   C1A30388  22.062   4.250  12.146 -0.1991  0.2773 -0.0420
24327DOPC   D2A30389  22.030   4.158  12.597 -0.2070 -0.3251 -0.0129
24327DOPC   C3A30390  21.896   4.081  13.068  0.2202  0.1118  0.0734
24327DOPC   C4A30391  21.998   4.201  13.522 -0.1831  0.1883  0.1296
24327DOPC   C1B30392  21.512   4.600  11.909  0.1097 -0.0918  0.0052
24327DOPC   D2B30393  21.248   4.531  12.293 -0.1286  0.2701 -0.1534
24327DOPC   C3B30394  21.050   4.647  12.704 -0.1719  0.1801  0.1126
24327DOPC   C4B30395  21.025   4.777  13.155 -0.1637  0.1556  0.0769
24328DOPC   NC330396   0.208   6.458  11.054 -0.0990  0.0296 -0.2296
24328DOPC   PO430397   0.577   6.287  11.145  0.3014  0.0586 -0.0541
24328DOPC   GL130398   0.550   6.192  11.546  0.7209 -0.1774  0.0664
24328DOPC   GL230399   0.237   6.190  11.444 -0.1493  0.1409  0.3177
24328DOPC   C1A30400   0.630   6.217  12.028 -0.1101 -0.0405  0.2424
24328DOPC   D2A30401   0.727   6.021  12.428  0.0407  0.1831 -0.0068
24328DOPC   C3A30402   0.615   5.763  12.796  0.1093  0.0825  0.0584
24328DOPC   C4A30403   0.461   5.622  13.233 -0.0070  0.2527  0.1582
24328DOPC   C1B30404   0.180   6.035  11.805  0.0227  0.0441 -0.0707
24328DOPC   D2B30405   0.082   6.178  12.285  0.1131 -0.3429 -0.2378
24328DOPC   C3B30406  -0.036   6.307  12.723 -0.2257  0.0192  0.0130
24328DOPC   C4B30407  -0.260   6.194  13.171 -0.3260  0.3844  0.0141
24329DOPC   NC330408  23.273   1.341  11.724 -0.4885  0.3479  0.0424
24329DOPC   PO430409  23.642   1.182  11.744 -0.0057  0.1692  0.0074
24329DOPC   GL130410  23.709   1.087  12.209 -0.2427 -0.1595 -0.0670
24329DOPC   GL230411  23.959   1.186  12.125  0.2322  0.1497  0.0252
24329DOPC   C1A30412  23.440   0.668  12.309  0.2113  0.0283  0.1162
24329DOPC   D2A30413  23.447   0.401  12.749  0.1985  0.2622  0.0931
24329DOPC   C3A30414  23.196   0.153  13.019  0.1172 -0.0667 -0.0986
24329DOPC   C4A30415  22.906   0.093  13.456 -0.2014 -0.2121 -0.4172
24329DOPC   C1B30416  24.157   1.010  12.426 -0.1397 -0.3885  0.0348
24329DOPC   D2B30417  24.434   1.040  12.870  0.1295 -0.0588  0.1954
24329DOPC   C3B30418  24.367   0.886  13.283  0.0589  0.1093 -0.0925
24329DOPC   C4B30419  24.584   0.958  13.720  0.1698 -0.0080  0.3607
24330DOPC   NC330420  12.522   7.128  10.403 -0.3077 -0.3527 -0.3293
24330DOPC   PO430421  12.817   7.033  10.658 -0.3279  0.1640  0.0979
24330DOPC   GL130422  12.842   7.008  11.078  0.1475 -0.1767  0.3153
24330DOPC   GL230423  13.081   6.995  11.164 -0.1564  0.1644  0.1573
24330DOPC   C1A30424  12.755   6.976  11.507 -0.0645  0.0914  0.2925
24330DOPC   D2A30425  12.543   7.164  11.897  0.0373  0.1622 -0.1001
24330DOPC   C3A30426  12.676   7.197  12.392 -0.1757  0.1799 -0.3320
24330DOPC   C4A30427  12.759   7.354  12.837  0.4224  0.1078  0.2223
24330DOPC   C1B30428  13.226   6.982  11.582 -0.2368 -0.1764 -0.2492
24330DOPC   D2B30429  13.643   7.030  11.941 -0.1063 -0.0576  0.3753
24330DOPC   C3B30430  13.797   6.998  12.395  0.0238 -0.0591  0.0694
24330DOPC   C4B30431  14.112   6.986  12.806 -0.1452  0.0195 -0.0497
24331DOPC   NC330432   9.207   4.852  11.464  0.1628  0.3223 -0.2810
24331DOPC   PO430433   9.376   4.524  11.300 -0.1080  0.1477  0.2035
24331DOPC   GL130434   9.705   4.601  11.524  0.1269  0.4836 -0.3004
24331DOPC   GL230435   9.701   4.866  11.416  0.0072 -0.3280 -0.0800
24331DOPC   C1A30436   9.918   4.658  11.847  0.0534  0.2629 -0.0067
24331DOPC   D2A30437  10.220   4.697  12.226 -0.1573 -0.0746 -0.0340
24331DOPC   C3A30438  10.353   4.305  12.432  0.1136  0.3423  0.1192
24331DOPC   C4A30439  10.223   4.160  12.881 -0.0542 -0.1165 -0.0928
24331DOPC   C1B30440   9.551   5.134  11.708  0.0115  0.3258  0.1886
24331DOPC   D2B30441   9.308   5.449  12.035  0.0316 -0.0490  0.1785
24331DOPC   C3B30442   9.352   5.913  12.120  0.0210 -0.3275  0.0779
24331DOPC   C4B30443   9.091   6.308  12.315 -0.0722  0.1392 -0.1231
24332DOPC   NC330444  13.485   7.501  10.459  0.0743  0.2536 -0.0866
24332DOPC   PO430445  13.633   7.890  10.545  0.1635 -0.0697 -0.0842
24332DOPC   GL130446  13.777   7.915  10.953 -0.2182  0.0907 -0.2157
24332DOPC   GL230447  13.485   7.931  11.088 -0.0139 -0.1332  0.0042
24332DOPC   C1A30448  13.946   8.206  11.293 -0.0523  0.2765 -0.0572
24332DOPC   D2A30449  14.236   8.226  11.760 -0.2865  0.1346 -0.3613
24332DOPC   C3A30450  14.685   8.147  11.975 -0.1729 -0.0217 -0.2482
24332DOPC   C4A30451  15.003   8.236  12.347 -0.0732 -0.0374  0.0812
24332DOPC   C1B30452  13.396   7.984  11.548  0.2140  0.2575 -0.3377
24332DOPC   D2B30453  13.234   7.904  11.986  0.3952  0.1815 -0.1015
24332DOPC   C3B30454  13.163   7.518  12.263  0.1405 -0.3970 -0.0054
24332DOPC   C4B30455  13.307   7.128  12.410  0.0516 -0.3378  0.2925
24333DOPC   NC330456  25.401   2.928  11.010 -0.2006 -0.0230  0.0900
24333DOPC   PO430457  25.772   3.040  11.119  0.0813 -0.0599  0.0926
24333DOPC   GL130458  25.516   3.169  11.431 -0.2147  0.0489  0.0744
24333DOPC   GL230459  25.749   3.253  11.573 -0.0557 -0.2695 -0.1926
24333DOPC   C1A30460  25.440   3.131  11.859 -0.3142  0.0606 -0.5218
24333DOPC   D2A30461  25.298   2.985  12.274  0.1551  0.0351 -0.0606
24333DOPC   C3A30462  25.086   2.833  12.711  0.4334 -0.2041 -0.1805
24333DOPC   C4A30463  25.034   3.007  13.178  0.0276 -0.2502  0.0362
24333DOPC   C1B30464  26.079   3.062  11.757 -0.2702  0.0044  0.0591
24333DOPC   D2B30465  26.320   2.887  12.197 -0.0438  0.0129  0.1237
24333DOPC   C3B30466  26.596   2.866  12.607  0.1064 -0.1143  0.0830
24333DOPC   C4B30467  26.729   2.610  12.967 -0.3025 -0.1252  0.1444
24334DOPC   NC330468  11.933   5.104  10.675 -0.0810 -0.1873 -0.3073
24334DOPC   PO430469  12.239   5.270  10.855 -0.1416 -0.1976  0.3294
24334DOPC   GL130470  12.300   5.496  11.177 -0.0202 -0.0232  0.0070
24334DOPC   GL230471  12.391   5.730  11.075 -0.1263  0.1974  0.2645
24334DOPC   C1A30472  12.220   5.465  11.569  0.3335 -0.1055  0.1618
24334DOPC   D2A30473  11.911   5.377  11.985 -0.0814 -0.0566 -0.1543
24334DOPC   C3A30474  11.988   5.254  12.440 -0.0272  0.0818  0.0424
24334DOPC   C4A30475  12.134   5.469  12.872 -0.0769  0.4281 -0.0059
24334DOPC   C1B30476  12.271   5.909  11.420 -0.2185  0.1225  0.2185
24334DOPC   D2B30477  12.381   6.118  11.871  0.2192 -0.1312  0.1963
24334DOPC   C3B30478  12.781   6.207  12.008  0.0194  0.3538  0.0577
24334DOPC   C4B30479  13.188   6.168  12.275  0.1323 -0.0181  0.0227
24335DOPC   NC330480   8.928   0.471  11.413 -0.0624  0.2023 -0.1882
24335DOPC   PO430481   8.709   0.316  11.155  0.0707  0.2043 -0.1181
24335DOPC   GL130482   8.649   0.068  11.485 -0.0999 -0.1557 -0.3800
24335DOPC   GL230483   8.774  -0.173  11.482  0.1390  0.0090 -0.0317
24335DOPC   C1A30484   8.643   0.371  11.829 -0.0610  0.0496 -0.1606
24335DOPC   D2A30485   8.709   0.442  12.358 -0.1727 -0.0447 -0.2677
24335DOPC   C3A30486   8.773   0.636  12.832  0.3811  0.2676  0.1489
24335DOPC   C4A30487   9.032   0.945  13.193 -0.1754  0.2922 -0.1644
24335DOPC   C1B30488   8.797  -0.427  11.797 -0.0619 -0.1063 -0.1000
24335DOPC   D2B30489   8.579  -0.463  12.211 -0.0999  0.2324 -0.2016
24335DOPC   C3B30490   8.628  -0.642  12.621 -0.0546  0.1137  0.2010
24335DOPC   C4B30491   8.811  -0.824  13.076  0.1212  0.2998  0.0070
24336DOPC   NC330492  15.591   0.207  10.480 -0.2176 -0.1152  0.0586
24336DOPC   PO430493  15.301   0.492  10.548 -0.2628 -0.3173 -0.1385
24336DOPC   GL130494  15.002   0.425  10.849  0.4466  0.0278 -0.3674
24336DOPC   GL230495  15.127   0.719  11.007  0.0701  0.1178 -0.0243
24336DOPC   C1A30496  15.235   0.325  11.203 -0.2573 -0.0528  0.0096
24336DOPC   D2A30497  15.526   0.124  11.660  0.1109 -0.0201  0.0232
24336DOPC   C3A30498  15.421   0.161  12.114 -0.0077 -0.0753  0.1207
24336DOPC   C4A30499  15.400   0.155  12.623  0.2350  0.1555  0.2901
24336DOPC   C1B30500  15.124   0.861  11.419  0.0057  0.2845  0.0201
24336DOPC   D2B30501  14.727   0.837  11.718 -0.0237 -0.1740 -0.1249
24336DOPC   C3B30502  14.647   0.799  12.186  0.0049  0.2525 -0.1803
24336DOPC   C4B30503  14.583   0.526  12.539 -0.1243 -0.2721 -0.0937
24337DOPC   NC330504  14.690   0.020  10.724  0.0936  0.1421 -0.0927
24337DOPC   PO430505  14.509   0.351  10.575 -0.0968  0.0756 -0.0118
24337DOPC   GL130506  14.436   0.430  10.895  0.3291 -0.3766 -0.2620
24337DOPC   GL230507  14.293   0.265  11.011  0.3055 -0.1904 -0.3540
24337DOPC   C1A30508  14.325   0.653  11.193 -0.0430 -0.2444 -0.1499
24337DOPC   D2A30509  14.127   0.912  11.558  0.0392  0.1840 -0.1457
24337DOPC   C3A30510  14.049   0.844  11.996 -0.2657  0.0427  0.1939
24337DOPC   C4A30511  14.121   0.564  12.332  0.0275  0.2062 -0.0597
24337DOPC   C1B30512  14.432   0.116  11.411  0.3758 -0.0718 -0.0917
24337DOPC   D2B30513  14.454  -0.070  11.894  0.1710  0.1523  0.2188
24337DOPC   C3B30514  14.609  -0.011  12.319  0.2130  0.0371 -0.2739
24337DOPC   C4B30515  14.891   0.149  12.715 -0.0715 -0.1106  0.1819
24338DOPC   NC330516  17.336   3.711  10.709  0.1616  0.0095 -0.0190
24338DOPC   PO430517  17.612   3.683  11.014 -0.2728 -0.1287  0.0690
24338DOPC   GL130518  17.447   3.579  11.386  0.0664  0.0180  0.1004
24338DOPC   GL230519  17.527   3.335  11.372 -0.0489  0.0676 -0.2323
24338DOPC   C1A30520  17.149   3.715  11.727  0.0990 -0.1158  0.1717
24338DOPC   D2A30521  16.699   3.836  11.927  0.0251  0.2139 -0.2506
24338DOPC   C3A30522  16.677   3.784  12.352 -0.1539 -0.2361 -0.0052
24338DOPC   C4A30523  16.554   3.778  12.842  0.0171  0.2590  0.0184
24338DOPC   C1B30524  17.760   3.179  11.672 -0.3153  0.2080 -0.0622
24338DOPC   D2B30525  18.180   3.138  11.924  0.0585  0.2848 -0.0943
24338DOPC   C3B30526  18.232   3.046  12.369  0.0967  0.0916 -0.0923
24338DOPC   C4B30527  18.386   2.943  12.797  0.1113 -0.0465 -0.3639
24339DOPC   NC330528  21.515   3.555  10.858  0.0498  0.1531 -0.1123
24339DOPC   PO430529  21.632   3.911  10.937 -0.1284 -0.3238 -0.2089
24339DOPC   GL130530  21.536   4.032  11.326  0.0359  0.2624  0.1695
24339DOPC   GL230531  21.392   3.782  11.377  0.2831  0.1908  0.1206
24339DOPC   C1A30532  21.577   4.101  11.778  0.0217  0.0018  0.3128
24339DOPC   D2A30533  21.571   4.118  12.274 -0.1059  0.1867 -0.3568
24339DOPC   C3A30534  21.537   4.394  12.685 -0.7168 -0.4203  0.0228
24339DOPC   C4A30535  21.589   4.690  13.106 -0.0232 -0.3340  0.1782
24339DOPC   C1B30536  21.123   3.790  11.765 -0.0162 -0.1561  0.2644
24339DOPC   D2B30537  21.166   3.780  12.278  0.2002  0.1401  0.0855
24339DOPC   C3B30538  21.241   4.041  12.678  0.0874 -0.0434  0.0301
24339DOPC   C4B30539  21.255   4.302  13.087  0.0482 -0.1603  0.1568
24340DOPA   PO430540  26.392   4.376  11.579 -0.1047 -0.0732  0.0413
24340DOPA   GL130541  26.498   4.362  11.972 -0.0934  0.3279  0.0939
24340DOPA   GL230542  26.649   4.625  11.923 -0.0423 -0.1274 -0.1132
24340DOPA   C1A30543  26.520   4.150  12.332 -0.0436  0.4521 -0.0056
24340DOPA   D2A30544  26.570   4.079  12.781  0.2440 -0.0152  0.0538
24340DOPA   C3A30545  26.391   4.232  13.235  0.2257  0.3177 -0.1666
24340DOPA   C4A30546  26.542   4.134  13.769  0.1406 -0.4243  0.3066
24340DOPA   C1B30547  26.793   4.567  12.278 -0.0688  0.0422  0.2219
24340DOPA   D2B30548  26.655   4.667  12.803 -0.0208  0.3302 -0.1144
24340DOPA   C3B30549  26.516   4.712  13.183  0.1847  0.0415 -0.1272
24340DOPA   C4B30550  26.455   4.801  13.620  0.0694  0.1643  0.1287
24341DOPA   PO430551   6.027   2.713  10.935 -0.3337  0.2565 -0.0107
24341DOPA   GL130552   6.147   2.643  11.394  0.0711 -0.1373 -0.0491
24341DOPA   GL230553   6.078   2.959  11.431 -0.2008  0.3397 -0.1178
24341DOPA   C1A30554   6.000   2.592  11.830 -0.2564 -0.1073 -0.3116
24341DOPA   D2A30555   6.052   2.766  12.286 -0.1357 -0.2121 -0.0897
24341DOPA   C3A30556   6.190   2.499  12.671 -0.1170 -0.2909 -0.0666
24341DOPA   C4A30557   6.278   2.310  13.081 -0.3822  0.5154  0.1688
24341DOPA   C1B30558   6.092   3.071  11.873  0.0451 -0.1509  0.2860
24341DOPA   D2B30559   5.838   3.201  12.252  0.2212 -0.1801 -0.4181
24341DOPA   C3B30560   5.760   3.020  12.650  0.0785  0.4973  0.2487
24341DOPA   C4B30561   5.658   2.937  13.152  0.0883 -0.2957 -0.2139
24342DOPA   PO430562  10.618   0.183  11.213 -0.1003  0.1637 -0.4386
24342DOPA   GL130563  10.297   0.275  11.442 -0.0573 -0.5371 -0.2432
24342DOPA   GL230564  10.205   0.041  11.397 -0.2992  0.2852  0.1421
24342DOPA   C1A30565  10.475   0.430  11.779 -0.2582  0.1834  0.0870
24342DOPA   D2A30566  10.761   0.744  12.098  0.0185 -0.2134  0.1617
24342DOPA   C3A30567  10.919   0.822  12.556 -0.1090 -0.1146 -0.0635
24342DOPA   C4A30568  10.925   0.926  13.046 -0.0848 -0.0808 -0.1616
24342DOPA   C1B30569   9.945   0.236  11.752  0.1806  0.4143 -0.1550
24342DOPA   D2B30570   9.970  -0.037  12.180  0.1540  0.0497 -0.1224
24342DOPA   C3B30571  10.312  -0.070  12.521  0.1525  0.4433  0.1501
24342DOPA   C4B30572  10.727  -0.303  12.577 -0.0225  0.0510  0.1863
24343DOPA   PO430573  16.862   1.997  10.785 -0.0698  0.0164  0.1428
24343DOPA   GL130574  16.896   1.921  11.195  0.1214  0.0033 -0.3894
24343DOPA   GL230575  17.151   2.069  11.332 -0.1840 -0.2981 -0.1348
24343DOPA   C1A30576  16.591   1.895  11.532 -0.1352 -0.1267  0.0727
24343DOPA   D2A30577  16.559   1.673  11.978  0.1810  0.1797  0.0577
24343DOPA   C3A30578  16.309   1.471  12.340  0.0977  0.0662  0.1406
24343DOPA   C4A30579  15.916   1.193  12.443  0.1358 -0.0391 -0.1284
24343DOPA   C1B30580  17.136   2.011  11.799 -0.0267  0.0607  0.0344
24343DOPA   D2B30581  17.130   2.107  12.238 -0.2837 -0.0544  0.0685
24343DOPA   C3B30582  17.195   1.838  12.620  0.1014 -0.1358 -0.2664
24343DOPA   C4B30583  17.240   1.632  13.051 -0.1546 -0.1476 -0.0499
24344DOPA   PO430584  17.800   7.104  11.363  0.1561  0.2523 -0.1187
24344DOPA   GL130585  17.682   7.058  11.804  0.1221  0.0015 -0.0139
24344DOPA   GL230586  17.697   7.321  11.850 -0.3133 -0.4883 -0.1147
24344DOPA   C1A30587  17.435   6.754  12.043  0.1679 -0.0514 -0.3860
24344DOPA   D2A30588  17.215   6.361  12.156  0.0247  0.2288  0.3758
24344DOPA   C3A30589  16.800   6.307  12.082 -0.0068 -0.0904 -0.3631
24344DOPA   C4A30590  16.325   6.311  12.178 -0.0959 -0.3232  0.3679
24344DOPA   C1B30591  17.323   7.278  12.061 -0.0795 -0.1365 -0.2325
24344DOPA   D2B30592  17.020   7.236  12.450  0.0423 -0.0900  0.0850
24344DOPA   C3B30593  16.957   7.344  12.957  0.1002 -0.1179  0.1129
24344DOPA   C4B30594  17.131   7.665  13.297 -0.1732  0.0706  0.0338
24345DOPA   PO430595   7.417   4.291  11.390 -0.2704 -0.0900  0.2217
24345DOPA   GL130596   7.171   4.312  11.724  0.2621 -0.0260 -0.0933
24345DOPA   GL230597   6.941   4.461  11.560  0.3420  0.0634  0.0967
24345DOPA   C1A30598   7.114   4.290  12.170  0.0217  0.0703 -0.1979
24345DOPA   D2A30599   6.894   4.210  12.670  0.4959 -0.1991  0.0570
24345DOPA   C3A30600   6.705   4.000  13.047 -0.2162 -0.1069  0.3964
24345DOPA   C4A30601   6.326   4.114  13.378  0.1967 -0.0750 -0.3281
24345DOPA   C1B30602   6.617   4.585  11.840  0.0630  0.0312 -0.3701
24345DOPA   D2B30603   6.411   4.808  12.212  0.0498  0.0547  0.0891
24345DOPA   C3B30604   6.540   4.905  12.698 -0.0062  0.1433  0.0761
24345DOPA   C4B30605   6.378   4.876  13.196 -0.2165  0.0481 -0.0916
24346DOPA   PO430606  18.838   0.436  11.428 -0.2820 -0.0757 -0.1262
24346DOPA   GL130607  19.238   0.542  11.760  0.0773 -0.0136 -0.0097
24346DOPA   GL230608  19.013   0.475  11.938  0.2572  0.2656 -0.4236
24346DOPA   C1A30609  19.134   0.949  11.977 -0.2561 -0.5035 -0.0544
24346DOPA   D2A30610  19.118   1.247  12.310 -0.1966  0.1818  0.1296
24346DOPA   C3A30611  18.843   1.514  12.573 -0.0824  0.4288 -0.0169
24346DOPA   C4A30612  18.776   1.899  12.746  0.2530 -0.1139  0.0974
24346DOPA   C1B30613  18.980   0.680  12.388  0.1930 -0.0376 -0.4577
24346DOPA   D2B30614  18.942   0.860  12.853 -0.0544  0.1517  0.1152
24346DOPA   C3B30615  18.648   0.918  13.151  0.2234  0.0330  0.1277
24346DOPA   C4B30616  18.279   0.978  13.407  0.3271  0.1941  0.2371
24347DOPA   PO430617  25.322   4.340  11.570 -0.0640  0.6641  0.1068
24347DOPA   GL130618  25.461   4.236  11.937  0.2677  0.2910 -0.0893
24347DOPA   GL230619  25.269   4.341  12.120 -0.1590  0.2851 -0.0150
24347DOPA   C1A30620  25.546   3.938  12.279  0.3077  0.0659  0.3341
24347DOPA   D2A30621  25.807   3.649  12.648  0.1567  0.0326  0.0148
24347DOPA   C3A30622  25.910   3.320  13.025 -0.1459 -0.3784 -0.3690
24347DOPA   C4A30623  26.071   3.009  13.407  0.0032 -0.0240 -0.1749
24347DOPA   C1B30624  25.227   4.227  12.545 -0.0180 -0.0625 -0.0493
24347DOPA   D2B30625  25.518   3.994  12.858  0.0107  0.0464  0.2277
24347DOPA   C3B30626  25.770   4.238  13.168 -0.1790  0.0328 -0.2218
24347DOPA   C4B30627  26.064   4.609  13.353  0.0186  0.1511 -0.0512
24348DOPA   PO430628   7.796   3.366  11.383  0.1172 -0.1267 -0.0113
24348DOPA   GL130629   7.636   3.172  11.728 -0.1319 -0.1265  0.2413
24348DOPA   GL230630   7.681   3.462  11.860  0.0042 -0.0014  0.1803
24348DOPA   C1A30631   7.550   2.929  12.115 -0.1744  0.1157  0.0528
24348DOPA   D2A30632   7.647   3.008  12.575  0.2610  0.1128  0.1761
24348DOPA   C3A30633   7.399   2.936  13.002  0.2910  0.1388  0.0681
24348DOPA   C4A30634   7.419   2.769  13.470 -0.1043 -0.2566  0.2309
24348DOPA   C1B30635   7.534   3.550  12.253  0.3862  0.1430 -0.1620
24348DOPA   D2B30636   7.414   3.392  12.717  0.0628 -0.1264  0.0986
24348DOPA   C3B30637   7.399   3.402  13.124  0.0124  0.2357 -0.0868
24348DOPA   C4B30638   7.239   3.611  13.535 -0.0605 -0.1342 -0.1720
24349DOPA   PO430639  28.846   1.217  11.220 -0.0616  0.0875 -0.0793
24349DOPA   GL130640  28.771   1.267  11.634  0.2468 -0.1910  0.1931
24349DOPA   GL230641  28.742   1.492  11.706  0.2431 -0.1740  0.1629
24349DOPA   C1A30642  28.556   0.997  11.843 -0.1927 -0.1120  0.0360
24349DOPA   D2A30643  28.576   1.025  12.343 -0.2322  0.0141  0.1594
24349DOPA   C3A30644  28.257   0.953  12.608 -0.0494  0.0487 -0.0808
24349DOPA   C4A30645  27.871   0.884  12.937  0.0290  0.1089  0.2328
24349DOPA   C1B30646  28.884   1.424  12.145  0.1490 -0.3158 -0.1118
24349DOPA   D2B30647  28.674   1.391  12.641  0.1915 -0.3999 -0.1032
24349DOPA   C3B30648  28.825   1.746  12.850 -0.0495 -0.1808  0.1371
24349DOPA   C4B30649  29.040   2.155  13.151  0.1172 -0.1323  0.0645
24350DOPA   PO430650   2.213   2.187  11.187  0.1723  0.1346 -0.1668
24350DOPA   GL130651   1.992   2.029  11.512 -0.3643 -0.2331  0.0268
24350DOPA   GL230652   2.130   1.824  11.635 -0.3048  0.2315 -0.0685
24350DOPA   C1A30653   1.841   2.201  11.884 -0.0225  0.2026 -0.2272
24350DOPA   D2A30654   1.603   2.337  12.299 -0.1433  0.0996  0.0987
24350DOPA   C3A30655   1.230   2.447  12.471 -0.1749 -0.1542  0.0193
24350DOPA   C4A30656   0.786   2.459  12.616 -0.0556  0.1144 -0.0818
24350DOPA   C1B30657   2.284   1.989  12.041  0.1246 -0.0400 -0.1541
24350DOPA   D2B30658   2.367   1.983  12.501 -0.1295  0.0864 -0.2986
24350DOPA   C3B30659   2.678   1.980  12.878  0.2546 -0.2198 -0.2427
24350DOPA   C4B30660   2.845   2.038  13.307  0.1124  0.0995  0.0182
24351DOPA   PO430661  14.439   2.875  10.555 -0.1334  0.2236 -0.1565
24351DOPA   GL130662  14.472   2.905  10.963  0.4649 -0.1576  0.0916
24351DOPA   GL230663  14.144   2.795  10.972 -0.3140  0.0519 -0.2071
24351DOPA   C1A30664  14.593   3.057  11.386  0.0918 -0.1731 -0.3032
24351DOPA   D2A30665  14.751   3.311  11.777  0.0126  0.1274 -0.0808
24351DOPA   C3A30666  14.707   3.298  12.230  0.2591 -0.0086 -0.4243
24351DOPA   C4A30667  14.332   3.173  12.695 -0.1502  0.0471  0.0727
24351DOPA   C1B30668  14.081   2.915  11.381  0.1024 -0.2359 -0.0205
24351DOPA   D2B30669  13.998   3.055  11.861  0.0964 -0.0824  0.2814
24351DOPA   C3B30670  14.333   2.965  12.157 -0.0708 -0.1031  0.1651
24351DOPA   C4B30671  14.727   2.792  12.337 -0.2108 -0.0847  0.3876
24352DOPA   PO430672  10.848   0.971  11.012  0.0874 -0.1304 -0.1329
24352DOPA   GL130673  10.926   1.137  11.480  0.1838 -0.1180 -0.1246
24352DOPA   GL230674  10.631   1.229  11.358 -0.0475  0.0240  0.0830
24352DOPA   C1A30675  11.139   1.022  11.830  0.0603 -0.1222 -0.0478
24352DOPA   D2A30676  11.277   1.011  12.286  0.2845 -0.1146 -0.0530
24352DOPA   C3A30677  11.188   1.231  12.721 -0.2326 -0.0899  0.3827
24352DOPA   C4A30678  11.467   1.477  13.026  0.0506 -0.1767  0.1761
24352DOPA   C1B30679  10.191   1.297  11.513 -0.0836  0.0913 -0.0955
24352DOPA   D2B30680   9.822   1.451  11.750 -0.0631  0.1005  0.0010
24352DOPA   C3B30681   9.581   1.609  12.082  0.2406 -0.0905 -0.0245
24352DOPA   C4B30682   9.366   1.680  12.575  0.2097  0.0165  0.3062
24353DOPA   PO430683   4.460   1.169  11.056  0.2842  0.2676 -0.0344
24353DOPA   GL130684   4.762   0.990  11.349  0.5047 -0.0853  0.0561
24353DOPA   GL230685   4.737   1.209  11.482 -0.0171  0.4068 -0.0569
24353DOPA   C1A30686   4.640   0.688  11.684 -0.0080 -0.1048 -0.0494
24353DOPA   D2A30687   4.772   0.621  12.212 -0.1217 -0.3199 -0.0314
24353DOPA   C3A30688   4.817   0.709  12.644  0.0122 -0.0792  0.0514
24353DOPA   C4A30689   5.019   0.739  13.189 -0.2859 -0.0238 -0.1514
24353DOPA   C1B30690   4.842   1.185  11.941  0.0209  0.0959 -0.0052
24353DOPA   D2B30691   4.860   1.365  12.401 -0.1130 -0.0831 -0.0427
24353DOPA   C3B30692   5.023   1.143  12.769 -0.2430 -0.2934 -0.3244
24353DOPA   C4B30693   5.403   0.963  13.008 -0.1952 -0.0679 -0.0238
24354DOPA   PO430694  17.082   4.573  10.985  0.0736  0.3121 -0.1117
24354DOPA   GL130695  17.218   4.470  11.390  0.0270 -0.1568  0.1733
24354DOPA   GL230696  17.035   4.288  11.379 -0.1224 -0.2615 -0.0715
24354DOPA   C1A30697  17.280   4.627  11.767  0.1000 -0.1917  0.0684
24354DOPA   D2A30698  17.343   4.802  12.242  0.1804  0.0753 -0.4086
24354DOPA   C3A30699  17.177   4.894  12.626 -0.2636  0.0178  0.2661
24354DOPA   C4A30700  17.043   5.084  13.033 -0.1890  0.1310 -0.1053
24354DOPA   C1B30701  16.823   4.647  11.527  0.1196 -0.0922 -0.1163
24354DOPA   D2B30702  16.525   4.893  11.843  0.0223  0.0141 -0.0410
24354DOPA   C3B30703  16.342   4.803  12.245  0.0673  0.2337  0.2915
24354DOPA   C4B30704  16.157   4.731  12.706 -0.1897 -0.1008 -0.1928
24355DOPA   PO430705   5.037   5.911  10.850  0.0203 -0.0069 -0.2205
24355DOPA   GL130706   5.106   6.244  11.114 -0.3053 -0.1324 -0.2557
24355DOPA   GL230707   4.955   6.009  11.307 -0.0801 -0.3114  0.0093
24355DOPA   C1A30708   5.314   6.423  11.422 -0.0359  0.0598 -0.3075
24355DOPA   D2A30709   5.688   6.394  11.756  0.0181  0.0912 -0.0281
24355DOPA   C3A30710   5.667   6.679  12.190 -0.0984  0.0979  0.0223
24355DOPA   C4A30711   5.661   7.035  12.475  0.0705  0.2235 -0.0026
24355DOPA   C1B30712   5.154   5.932  11.646  0.1128 -0.0023 -0.3325
24355DOPA   D2B30713   5.260   5.715  12.102 -0.2610 -0.1321 -0.2335
24355DOPA   C3B30714   5.390   5.742  12.503  0.0432 -0.2450  0.1859
24355DOPA   C4B30715   5.532   5.768  12.976  0.0425 -0.3931 -0.1003
24356DOPA   PO430716  27.109   2.611  11.334  0.0388  0.0163 -0.0721
24356DOPA   GL130717  27.385   2.689  11.703 -0.0255  0.6216  0.1484
24356DOPA   GL230718  27.257   2.975  11.683 -0.0130 -0.1705  0.0951
24356DOPA   C1A30719  27.384   2.545  12.097 -0.2556 -0.0866 -0.1988
24356DOPA   D2A30720  27.466   2.324  12.508  0.1164  0.2121  0.3200
24356DOPA   C3A30721  27.333   1.979  12.842  0.0317 -0.0743  0.2045
24356DOPA   C4A30722  27.186   1.512  13.034  0.2922  0.0637 -0.0061
24356DOPA   C1B30723  27.430   3.047  12.070  0.3405 -0.2874  0.0347
24356DOPA   D2B30724  27.390   2.842  12.502  0.2916  0.2689 -0.0518
24356DOPA   C3B30725  27.313   2.813  12.955  0.1077 -0.0912  0.1102
24356DOPA   C4B30726  27.620   2.933  13.302 -0.1056  0.0635  0.0342
24357DOPA   PO430727   6.053   5.855  10.518  0.0434 -0.1702  0.1135
24357DOPA   GL130728   6.122   6.065  10.817 -0.2307 -0.0493  0.0550
24357DOPA   GL230729   5.879   6.173  10.854  0.2089 -0.1682 -0.1286
24357DOPA   C1A30730   6.265   5.861  11.187  0.0640  0.1065  0.1493
24357DOPA   D2A30731   6.293   5.632  11.658 -0.0594 -0.2370 -0.0997
24357DOPA   C3A30732   6.293   5.511  12.131 -0.1200  0.1581  0.2410
24357DOPA   C4A30733   6.236   5.469  12.585  0.2468 -0.1313 -0.0377
24357DOPA   C1B30734   5.800   6.085  11.273 -0.3189 -0.0447 -0.0289
24357DOPA   D2B30735   5.716   5.870  11.695  0.1154 -0.1882  0.1255
24357DOPA   C3B30736   5.695   6.065  12.120  0.0037 -0.2212  0.2756
24357DOPA   C4B30737   5.776   6.358  12.537  0.2321  0.1912 -0.0925
24358DOPA   PO430738   2.798   3.020  11.228 -0.1203 -0.0377 -0.4787
24358DOPA   GL130739   2.518   2.981  11.530 -0.3342 -0.3791 -0.0371
24358DOPA   GL230740   2.312   2.737  11.450 -0.0918  0.1489 -0.1668
24358DOPA   C1A30741   2.510   3.221  11.907 -0.1096 -0.3962  0.0416
24358DOPA   D2A30742   2.753   3.287  12.296 -0.1903  0.4026 -0.1203
24358DOPA   C3A30743   2.569   3.360  12.713  0.1364  0.0153  0.1980
24358DOPA   C4A30744   2.564   3.483  13.216 -0.0631 -0.2229 -0.0916
24358DOPA   C1B30745   2.275   2.586  11.925  0.1594  0.1576 -0.0799
24358DOPA   D2B30746   2.164   2.532  12.450 -0.0835 -0.3264  0.0958
24358DOPA   C3B30747   2.077   2.864  12.820  0.0426 -0.0144  0.0704
24358DOPA   C4B30748   2.080   3.259  13.054 -0.2933 -0.2257 -0.1503
24359DOPA   PO430749  13.913   1.350  10.732  0.1819 -0.3034 -0.3565
24359DOPA   GL130750  13.674   1.397  11.062  0.2838  0.1179  0.0529
24359DOPA   GL230751  13.933   1.522  11.176  0.1993 -0.2917  0.1678
24359DOPA   C1A30752  13.577   1.176  11.439  0.0215  0.0450 -0.1949
24359DOPA   D2A30753  13.760   1.233  11.926  0.1056  0.3697  0.0848
24359DOPA   C3A30754  13.947   1.096  12.344 -0.2181  0.0351  0.2499
24359DOPA   C4A30755  14.068   0.986  12.769  0.3891  0.0700  0.2494
24359DOPA   C1B30756  14.034   1.447  11.588 -0.3889  0.2344  0.2799
24359DOPA   D2B30757  14.287   1.249  11.992 -0.0810  0.2080 -0.3423
24359DOPA   C3B30758  14.409   1.344  12.458  0.1513 -0.1370  0.1730
24359DOPA   C4B30759  14.546   1.409  12.938 -0.0338  0.0731 -0.1806
24360DOPA   PO430760  17.756   2.103  10.635 -0.0382  0.1159 -0.0711
24360DOPA   GL130761  17.707   1.872  11.066 -0.2020  0.0911  0.0465
24360DOPA   GL230762  17.754   1.613  10.989  0.1788  0.1845 -0.0961
24360DOPA   C1A30763  17.613   2.124  11.424 -0.0264  0.3696  0.1154
24360DOPA   D2A30764  17.550   2.276  11.962  0.1977  0.1633  0.0789
24360DOPA   C3A30765  17.379   2.451  12.407  0.1533 -0.3288 -0.0132
24360DOPA   C4A30766  17.380   2.628  12.899 -0.2557  0.1210 -0.1109
24360DOPA   C1B30767  17.749   1.336  11.342  0.2815 -0.1463  0.0658
24360DOPA   D2B30768  17.538   1.062  11.728 -0.1098  0.5748  0.1794
24360DOPA   C3B30769  17.400   1.124  12.134  0.2245  0.0009  0.1346
24360DOPA   C4B30770  17.423   1.336  12.633 -0.3801 -0.1611  0.0431
24361DOPA   PO430771  25.012   2.506  11.367  0.0539  0.2269 -0.0650
24361DOPA   GL130772  24.808   2.790  11.608  0.0869 -0.0316  0.1899
24361DOPA   GL230773  24.581   2.796  11.631  0.2220  0.0929 -0.1455
24361DOPA   C1A30774  24.954   3.056  11.946  0.0590  0.4373  0.2078
24361DOPA   D2A30775  25.116   3.522  12.075  0.1064 -0.0504 -0.1225
24361DOPA   C3A30776  24.962   3.794  12.464  0.0324 -0.1884 -0.3226
24361DOPA   C4A30777  25.073   3.877  12.958 -0.2151  0.0440  0.0406
24361DOPA   C1B30778  24.571   2.616  12.003 -0.0256  0.0091 -0.0323
24361DOPA   D2B30779  24.901   2.556  12.339  0.1392 -0.1181  0.1379
24361DOPA   C3B30780  24.825   2.346  12.790  0.2105 -0.3109  0.1397
24361DOPA   C4B30781  25.131   2.411  13.232  0.3067  0.2738  0.0556
24362DOPA   PO430782  19.934   2.262  11.320  0.1462  0.0752 -0.0173
24362DOPA   GL130783  19.912   2.498  11.648 -0.1048 -0.1492 -0.0304
24362DOPA   GL230784  20.137   2.612  11.629 -0.1919  0.0621 -0.1150
24362DOPA   C1A30785  19.651   2.765  11.867  0.3928  0.0550 -0.1239
24362DOPA   D2A30786  19.372   3.141  12.051  0.0680 -0.1557  0.3006
24362DOPA   C3A30787  19.071   3.508  12.138  0.0349 -0.1685 -0.2887
24362DOPA   C4A30788  18.759   3.883  12.424 -0.2249  0.0512  0.1561
24362DOPA   C1B30789  20.441   2.351  11.840 -0.1130  0.1012 -0.1815
24362DOPA   D2B30790  20.425   2.198  12.324 -0.0458 -0.2661 -0.1695
24362DOPA   C3B30791  20.064   1.927  12.504  0.1263 -0.0875  0.1550
24362DOPA   C4B30792  19.862   1.870  12.939 -0.0077 -0.1856  0.1363
24363DOPA   PO430793  22.992   2.699  11.620 -0.2184 -0.1112  0.1571
24363DOPA   GL130794  23.124   2.895  11.971  0.3179  0.1055 -0.1269
24363DOPA   GL230795  22.874   3.004  12.019 -0.0716  0.1819 -0.3437
24363DOPA   C1A30796  23.180   2.992  12.377 -0.0051  0.0626 -0.0035
24363DOPA   D2A30797  23.343   3.031  12.843  0.0153 -0.1794 -0.2549
24363DOPA   C3A30798  23.300   2.931  13.245 -0.0429  0.1555 -0.2508
24363DOPA   C4A30799  23.226   3.149  13.696 -0.1863 -0.1221 -0.0252
24363DOPA   C1B30800  22.689   2.871  12.453  0.0175 -0.1279 -0.1727
24363DOPA   D2B30801  22.493   3.173  12.813 -0.0631 -0.1449  0.3048
24363DOPA   C3B30802  22.659   3.076  13.251  0.2894 -0.1778  0.0269
24363DOPA   C4B30803  22.629   2.789  13.705 -0.3478 -0.0385  0.1435
24364DOPA   PO430804   9.755   1.229  10.918  0.3896 -0.1657 -0.1961
24364DOPA   GL130805   9.677   1.153  11.289 -0.0998  0.1149  0.0581
24364DOPA   GL230806   9.472   1.289  11.455 -0.1465  0.1279  0.1771
24364DOPA   C1A30807   9.724   0.930  11.657  0.0032 -0.0738 -0.0043
24364DOPA   D2A30808   9.829   1.062  12.123 -0.0376  0.1516 -0.4944
24364DOPA   C3A30809   9.866   1.287  12.481 -0.1352  0.0662  0.1776
24364DOPA   C4A30810   9.793   1.562  12.880 -0.4496  0.0252  0.1158
24364DOPA   C1B30811   9.396   1.170  11.891  0.0735 -0.1326 -0.0965
24364DOPA   D2B30812   9.315   1.220  12.382 -0.1093  0.4086 -0.2313
24364DOPA   C3B30813   8.887   1.035  12.554 -0.2231 -0.2720 -0.2229
24364DOPA   C4B30814   8.528   1.111  12.917 -0.0028 -0.0660 -0.0523
24365W        W30815  10.296   2.382  17.645 -0.1905 -0.0116  0.1581
24366W        W30816  14.998   4.959   1.303 -0.0442  0.0980 -0.1643
24367W        W30817  14.826   6.357   6.579 -0.1178 -0.2083 -0.1949
24368W        W30818  28.437   6.981  17.444  0.3194  0.0850  0.0821
24369W        W30819  18.896   4.371   4.531 -0.0947 -0.1806  0.0697
24370W        W30820  26.747   1.777   5.720  0.2385  0.0799 -0.2334
24371W        W30821  26.774   1.811  26.365  0.1064  0.0134 -0.3224
24372W        W30822  25.955   5.227  25.624 -0.2393  0.2975  0.1508
24373W        W30823  11.723   1.854   3.588  0.2392  0.1819 -0.1908
24374W        W30824   4.593   2.933  15.485 -0.2104  0.2806  0.1538
24375W        W30825  24.437   3.759   7.549  0.2430 -0.2076  0.1082
24376W        W30826   2.637   7.700   7.660  0.1491  0.0624  0.0332
24377W        W30827  12.569   6.384  17.008  0.0503  0.2693  0.0158
24378W        W30828  11.992   0.971   2.168  0.0437  0.0211 -0.2199
24379W        W30829  10.786   5.961  21.161  0.0596 -0.1384 -0.1066
24380W        W30830  26.303   1.537  18.516  0.0953  0.0058  0.1923
24381W        W30831  18.211   7.191  22.302  0.2465  0.0285  0.1131
24382W        W30832  18.309   2.821  22.455  0.1260 -0.1739  0.4010
24383W        W30833   6.031   2.470   8.981 -0.0074 -0.0306  0.1266
24384W        W30834   8.656   5.100   6.254 -0.3063  0.0425 -0.2541
24385W        W30835  11.910   2.150  18.905  0.0719  0.0353 -0.2130
24386W        W30836   7.443   2.710  23.050  0.1333  0.0375  0.0712
24387W        W30837   2.750   1.817   9.315 -0.2235  0.0286  0.2479
24388W        W30838  21.271   7.207   6.162 -0.0281 -0.3657  0.1559
24389W        W30839  27.973   1.949  18.853 -0.1823 -0.2475  0.0906
24390W        W30840  21.294   3.865  22.016 -0.0728 -0.0677  0.0973
24391W        W30841   7.396   1.456  22.431  0.0080 -0.0128 -0.0966
24392W        W30842  21.935   2.953   5.534 -0.1358  0.3101 -0.2841
24393W        W30843  16.126   3.044   6.894  0.0085  0.0678 -0.0200
24394W        W30844   4.480   7.549   8.758 -0.1084  0.3401  0.1443
24395W        W30845  24.749   5.263   7.793 -0.0333  0.2709 -0.1765
24396W        W30846   3.288   6.174   7.105  0.1143 -0.2980  0.0634
24397W        W30847   2.613   0.131  25.193  0.3058  0.2495 -0.3043
24398W        W30848  10.373   3.474   7.194  0.1466  0.0896  0.4887
24399W        W30849   5.033   5.364   7.121 -0.0658  0.0314 -0.0682
24400W        W30850  10.972   4.839   5.192 -0.0469  0.2712 -0.0254
24401W        W30851   0.427   4.898   3.802  0.1949  0.0844 -0.3890
24402W        W30852  10.663   7.114   0.641 -0.1770  0.0379 -0.1674
24403W        W30853   4.592   7.252  21.068  0.3615 -0.3494  0.0857
24404W        W30854  24.001   3.595  10.308  0.2111 -0.0124 -0.0381
24405W        W30855  21.382   5.627  16.854 -0.1722 -0.1420  0.0087
24406W        W30856  28.383   7.271  22.141  0.0482 -0.0606 -0.0424
24407W        W30857  24.044   5.910   9.636  0.1041 -0.3010  0.0578
24408W        W30858   4.127   5.626   7.544  0.2356 -0.0557  0.1196
24409W        W30859  29.835   7.243  24.324 -0.1257  0.0772 -0.4024
24410W        W30860  24.295   0.058   6.702  0.1435 -0.0609  0.3736
24411W        W30861   4.447   3.320   9.227 -0.1264  0.1821  0.2086
24412W        W30862   5.476   4.884   0.864  0.0849  0.1695 -0.1935
24413W        W30863   2.505   0.275  21.034  0.0349 -0.1198 -0.1528
24414W        W30864  20.909   4.865   6.321 -0.0167  0.0120 -0.2793
24415W        W30865  20.808   3.937  21.258  0.0754  0.1773 -0.2043
24416W        W30866  15.258   1.688  25.408  0.2940  0.0614 -0.2802
24417W        W30867  17.931   1.204  22.396  0.0577  0.2823  0.1650
24418W        W30868   7.263   1.780   9.567 -0.3595  0.3867 -0.2465
24419W        W30869   5.671   4.701   6.136 -0.0595 -0.0422 -0.3893
24420W        W30870   9.321   2.158  15.382 -0.1518  0.1979 -0.1003
24421W        W30871   2.658   5.133  17.843 -0.0909  0.0597 -0.1088
24422W        W30872  22.804   0.347  25.719 -0.2770  0.1259  0.2736
24423W        W30873  13.219   7.045   2.825  0.0113  0.1156  0.1984
24424W        W30874  13.809   2.157  20.398  0.0175 -0.0169 -0.1829
24425W        W30875  17.415   3.941  14.981  0.1940  0.2518  0.0046
24426W        W30876  15.347   0.003  19.096 -0.1489 -0.1220 -0.3541
24427W        W30877   6.450   6.767   2.239 -0.0498 -0.0381  0.1770
24428W        W30878  27.318   4.888   7.226  0.1019 -0.2781 -0.2864
24429W        W30879  23.560   4.578   1.183  0.2232 -0.0151 -0.0214
24430W        W30880  24.491   6.565   7.479 -0.1311 -0.0013 -0.0018
24431W        W30881   4.076   4.644   4.027  0.0435 -0.0193  0.2001
24432W        W30882   2.100   3.201  23.524 -0.0364  0.1422 -0.3816
24433W        W30883   6.147   2.304  20.812 -0.0506 -0.2213  0.1289
24434W        W30884  25.791   6.300  17.207  0.1517  0.0818 -0.0088
24435W        W30885  20.939   4.862  22.976 -0.1521 -0.1002  0.0035
24436W        W30886   8.077   3.490   4.200  0.0210 -0.6841 -0.0735
24437W        W30887  23.086   5.091  24.344  0.1786  0.1676 -0.0450
24438W        W30888  13.059   0.978   1.311  0.0395 -0.2265  0.0917
24439W        W30889  18.092   5.463  25.331 -0.0835 -0.3787  0.0115
24440W        W30890  23.142   3.856   2.035 -0.1144 -0.0096  0.1517
24441W        W30891   2.804   5.021   4.916 -0.1249  0.2168  0.0532
24442W        W30892  25.063   5.397   0.727 -0.1880  0.0708 -0.0011
24443W        W30893  20.407   3.950  16.554 -0.3483  0.1268 -0.3328
24444W        W30894   5.582   4.936  10.723 -0.1922  0.3407 -0.0239
24445W        W30895  23.644   5.372  22.141 -0.0567  0.1214 -0.0390
24446W        W30896  20.953   0.932  17.166  0.2898 -0.3220  0.1933
24447W        W30897  17.031   1.404  15.692 -0.1252  0.1325  0.2392
24448W        W30898   4.744   6.316   2.337 -0.1024  0.0008 -0.0906
24449W        W30899  27.727   4.319   9.487  0.1530 -0.2117  0.1866
24450W        W30900   2.517   4.365   8.112  0.1947 -0.0862 -0.2405
24451W        W30901  11.254   4.981   2.236 -0.3374  0.1336 -0.1458
24452W        W30902   3.791   6.723   4.901  0.1124 -0.0027 -0.0444
24453W        W30903  19.481   4.135   8.422  0.1361 -0.1439 -0.0872
24454W        W30904  19.554   1.108  15.861  0.0273  0.0671 -0.2912
24455W        W30905  23.665   3.480  23.123 -0.0390  0.1083  0.0181
24456W        W30906   6.924   5.348  21.061  0.2860  0.1006 -0.2298
24457W        W30907   7.757   5.522   7.496 -0.2756  0.1807  0.2032
24458W        W30908  12.827   1.990  10.780 -0.1559  0.3807  0.0137
24459W        W30909   0.592   5.619   7.933 -0.0886  0.1136  0.0829
24460W        W30910  26.431   0.088   7.151  0.1093 -0.0126 -0.1939
24461W        W30911   0.211   1.750   2.842  0.0252 -0.0295 -0.0678
24462W        W30912  26.615   0.477   5.616  0.4950 -0.2884 -0.3128
24463W        W30913  22.796   7.412  21.069 -0.0026  0.1796  0.4455
24464W        W30914  23.029   4.895  19.854 -0.0152  0.0059  0.0891
24465W        W30915   2.454   6.164  21.913 -0.0381 -0.2229  0.1538
24466W        W30916   0.326   4.811  23.487 -0.2276 -0.1163 -0.1660
24467W        W30917   3.330   3.569  18.944  0.0939  0.1074 -0.3226
24468W        W30918  14.631   1.629   7.188  0.1700 -0.0853 -0.3437
24469W        W30919   7.697   6.483   0.527  0.3271 -0.0087 -0.1259
24470W        W30920  27.979   2.150   6.675 -0.0631  0.0707 -0.0407
24471W        W30921   4.832   3.659   2.240 -0.3867 -0.1495 -0.1369
24472W        W30922   8.818   2.881   2.569 -0.0752  0.1558  0.1867
24473W        W30923   3.446   7.683  19.243 -0.3850  0.4042 -0.1457
24474W        W30924   7.269   3.049  25.237  0.1034 -0.0432  0.0661
24475W        W30925   9.618   7.159   5.210  0.1087  0.0124  0.0975
24476W        W30926  10.733   2.345  16.230 -0.2723 -0.2326 -0.0013
24477W        W30927   5.267   0.598  20.011  0.0616 -0.1288 -0.2429
24478W        W30928  24.696   7.173  15.946  0.2671 -0.2837  0.0239
24479W        W30929   4.760   3.161   8.897  0.1276 -0.0436  0.1541
24480W        W30930  23.784   0.738   3.731 -0.2318 -0.1335  0.0431
24481W        W30931   7.125   5.415  17.374 -0.1823 -0.2493  0.1026
24482W        W30932   2.300   0.393   7.767  0.2764  0.1663 -0.2239
24483W        W30933  17.365   0.602  21.943  0.3241  0.1276  0.4069
24484W        W30934   6.879   0.981   9.884 -0.1351 -0.0535  0.3719
24485W        W30935   7.333   0.620  22.921 -0.1226  0.1080 -0.0414
24486W        W30936  10.786   4.137   3.801 -0.0565  0.4084 -0.1608
24487W        W30937  15.288   7.142  20.777 -0.0558  0.3182  0.2076
24488W        W30938   0.649   2.749   5.957 -0.1607  0.3329 -0.2417
24489W        W30939  30.041   4.201  17.126  0.2375  0.0974  0.0137
24490W        W30940  15.945   3.921   0.094 -0.1854 -0.0492  0.1093
24491W        W30941  19.143   2.865  24.719  0.0418  0.1556  0.4054
24492W        W30942  14.933   6.205  26.259  0.0124  0.1482 -0.0001
24493W        W30943   4.099   5.860   6.024 -0.0659  0.0382  0.0308
24494W        W30944  22.141   7.131  22.190  0.0819 -0.1463 -0.1213
24495W        W30945   4.842   3.265   4.101  0.1818  0.2683 -0.0487
24496W        W30946  18.853   0.259  20.472  0.0018  0.0383 -0.0663
24497W        W30947  15.663   6.274  22.444 -0.2444 -0.2708  0.2154
24498W        W30948  16.318   2.412   9.701 -0.0530  0.0977 -0.2227
24499W        W30949  11.790   7.376   7.250 -0.3416  0.1765  0.0769
24500W        W30950  28.242   4.104   0.467  0.0278  0.0253 -0.0932
24501W        W30951  27.280   6.138  26.407 -0.0034 -0.2366  0.1216
24502W        W30952  17.673   5.362  20.039 -0.0124  0.1053 -0.0513
24503W        W30953   8.350   6.530  16.087  0.0339 -0.1414  0.3318
24504W        W30954  16.294   0.086  10.359  0.1072 -0.0284  0.0903
24505W        W30955   5.776   6.653   6.119  0.0697  0.0280 -0.2054
24506W        W30956   9.304   2.139   1.366 -0.1613  0.1939 -0.1927
24507W        W30957  10.330   4.180  16.504  0.1971  0.0717  0.0214
24508W        W30958  10.390   2.731  20.030  0.1497  0.2018  0.0952
24509W        W30959  13.555   5.396  24.752  0.0485 -0.1208  0.3074
24510W        W30960  21.734   0.028  11.279 -0.0381  0.0320 -0.1286
24511W        W30961  15.109   0.920   6.055 -0.1212  0.5502  0.0411
24512W        W30962   4.384   2.708   2.974 -0.0462  0.2163  0.3420
24513W        W30963  20.731   7.328   4.083 -0.0138  0.2031  0.1513
24514W        W30964  30.353   0.645  17.994 -0.1090 -0.1279  0.0843
24515W        W30965  20.634   1.986  19.766 -0.1158  0.0638  0.3677
24516W        W30966  17.563   3.290  16.421  0.0862 -0.0112 -0.1219
24517W        W30967   8.176   1.432  23.660  0.0925 -0.0948  0.0126
24518W        W30968   3.901   5.920  22.982  0.0385  0.0140 -0.0417
24519W        W30969  11.197   7.518   1.558 -0.2036  0.0922 -0.2170
24520W        W30970  17.880   7.384  15.585 -0.1830  0.1600  0.2288
24521W        W30971  19.386   7.014   4.280  0.0815  0.0320  0.2186
24522W        W30972   2.887   6.367  17.611 -0.2816 -0.1883  0.1056
24523W        W30973   9.445   5.032  23.895 -0.1098 -0.2436  0.0769
24524W        W30974  13.628   0.514   9.286  0.1078 -0.2469 -0.2953
24525W        W30975  21.581   0.293  22.676  0.1283  0.1906  0.3272
24526W        W30976  19.653   3.629   7.538 -0.0488 -0.0007 -0.2229
24527W        W30977   1.519   0.481  23.266  0.0582  0.1235  0.0838
24528W        W30978  10.682   1.244   5.349  0.0460 -0.1357  0.1301
24529W        W30979  31.001   0.624  18.339 -0.1182 -0.2805 -0.3044
24530W        W30980  14.132   2.436   1.403 -0.0026 -0.0718 -0.4209
24531W        W30981  26.590   3.505  15.913 -0.0324 -0.0125  0.2207
24532W        W30982   9.541   0.157   9.358  0.3076 -0.2176  0.1138
24533W        W30983  11.618   3.892  16.798  0.1199  0.2088 -0.1561
24534W        W30984  13.023   2.295   7.901  0.0099 -0.0821  0.2357
24535W        W30985   0.775   7.464  24.183  0.0005  0.0635  0.1370
24536W        W30986  14.504   7.412  23.543 -0.4224  0.1222 -0.2348
24537W        W30987  26.733   0.445  17.120  0.2324 -0.1586 -0.1109
24538W        W30988  13.638   7.583  22.174  0.0768  0.0358  0.1816
24539W        W30989   6.294   3.048   5.427 -0.0595  0.0914  0.2452
24540W        W30990  10.997   7.109   5.426  0.0773 -0.0489  0.2186
24541W        W30991  17.368   5.748  19.709  0.3415  0.1898  0.1008
24542W        W30992  18.487   7.216  18.510  0.0201 -0.0241 -0.1359
24543W        W30993  22.599   2.850  20.041  0.1507  0.2763  0.2842
24544W        W30994  21.918   7.697  19.757 -0.2949 -0.1671 -0.1369
24545W        W30995  15.056   3.010  24.404 -0.1103 -0.0077  0.0008
24546W        W30996  10.655   3.106  10.012  0.1218  0.1379  0.0974
24547W        W30997  11.705   1.077  24.829  0.0089 -0.1210  0.1399
24548W        W30998   3.500   4.360   5.243  0.1024 -0.2817 -0.2282
24549W        W30999  21.065   7.177   2.297 -0.0637 -0.1132 -0.1613
24550W        W31000  15.815   5.317   0.339 -0.3103  0.1389  0.4778
24551W        W31001  29.816   6.819  16.737 -0.0915 -0.0838 -0.3735
24552W        W31002   8.191   1.465  15.905 -0.1742  0.1768  0.1071
24553W        W31003   8.854   4.640  23.313  0.3441 -0.0728 -0.1065
24554W        W31004  14.274   1.667  25.884 -0.0672  0.0447  0.1736
24555W        W31005  16.106   7.584   7.510  0.1023 -0.2544 -0.0566
24556W        W31006   2.896   3.711  18.594  0.2281 -0.0286  0.1071
24557W        W31007  11.075   7.557  18.803 -0.2929  0.0055 -0.0441
24558W        W31008   1.659   1.598   2.676  0.3261  0.0948  0.1107
24559W        W31009  18.265   0.884   5.377  0.3696 -0.1893 -0.0448
24560W        W31010  29.595   0.511   1.408 -0.0053  0.2692 -0.2521
24561W        W31011  22.784   6.141  23.774 -0.0652  0.0028 -0.0929
24562W        W31012  11.137   3.433   5.225 -0.0177  0.1455  0.0412
24563W        W31013   0.938   0.610   0.827  0.1725  0.0855 -0.2635
24564W        W31014  23.982   1.901   5.361 -0.1637 -0.0956  0.0246
24565W        W31015  19.086   1.395   4.435  0.1361 -0.0537  0.0757
24566W        W31016  10.831   0.197   8.152  0.0578  0.0241  0.1816
24567W        W31017  12.371   4.208  20.865 -0.2329 -0.2488  0.0380
24568W        W31018  13.603   5.526   2.882 -0.1098  0.2722 -0.1093
24569W        W31019   7.243   2.853   8.383  0.0818  0.2044 -0.1404
24570W        W31020  13.274   4.365   3.851  0.1585 -0.2436  0.2154
24571W        W31021  20.108   2.871  21.937  0.0225  0.0265  0.1629
24572W        W31022  23.381   5.103  20.200  0.0624 -0.2030 -0.0469
24573W        W31023  17.021   3.942   4.705 -0.2162 -0.2438  0.2884
24574W        W31024   2.441   5.699  21.930 -0.0208 -0.2159 -0.2444
24575W        W31025  17.438   4.400   7.612 -0.0082 -0.3819 -0.2859
24576W        W31026  19.313   0.544   7.965  0.0670  0.0560  0.1855
24577W        W31027   9.819   5.598  18.538 -0.1029  0.3343 -0.0256
24578W        W31028  11.821   5.827  26.395 -0.1427 -0.1917 -0.2027
24579W        W31029  20.193   1.070  21.404 -0.0094  0.0824 -0.0851
24580W        W31030  13.227   4.894   7.281  0.0051  0.0069 -0.1247
24581W        W31031  25.697   6.322   1.634  0.1281 -0.0668 -0.1368
24582W        W31032   9.884   5.358  22.546  0.2096 -0.1503  0.2632
24583W        W31033  27.295   1.599  24.711 -0.0739  0.2900  0.0726
24584W        W31034   4.456   2.455   6.194 -0.0391  0.2774  0.2556
24585W        W31035  12.748   5.498  18.383 -0.0569 -0.2392  0.0378
24586W        W31036  30.041   7.298   9.973  0.1350  0.1428 -0.1655
24587W        W31037  16.268   1.388  20.368 -0.1849 -0.2784 -0.0166
24588W        W31038  26.754   6.552  20.652 -0.0121  0.0092 -0.2147
24589W        W31039  24.575   0.354  17.666 -0.1621  0.0066 -0.2436
24590W        W31040  21.246   6.796   3.221 -0.3292  0.1188  0.1385
24591W        W31041  15.871   1.073  20.261 -0.1568  0.3287 -0.3544
24592W        W31042  11.464   3.479   7.872  0.1633  0.0575 -0.3457
24593W        W31043   8.271   0.421   9.148 -0.0263  0.0357  0.0487
24594W        W31044  18.592   6.365   7.565 -0.0157 -0.0909 -0.0641
24595W        W31045   2.284   1.213   7.921 -0.0288  0.2410  0.3754
24596W        W31046  20.992   4.735   7.211  0.0161 -0.1956  0.2249
24597W        W31047  19.963   6.269   1.162 -0.0049 -0.2710  0.1717
24598W        W31048   0.668   1.790  18.975 -0.2698 -0.1927 -0.1918
24599W        W31049  23.071   6.981  17.237 -0.1208 -0.3529 -0.1462
24600W        W31050   6.882   2.888  19.492  0.0527 -0.1508  0.1527
24601W        W31051  18.033   5.106   5.756  0.1565 -0.0062 -0.1521
24602W        W31052   3.650   5.164  23.116 -0.0862 -0.0585  0.1539
24603W        W31053  15.682   2.738   0.928 -0.0989  0.1916 -0.1973
24604W        W31054  24.060   1.893  24.676  0.0456  0.0394  0.0153
24605W        W31055  14.266   0.031  23.325  0.1252  0.3700 -0.2445
24606W        W31056   9.233   0.908  26.067  0.1751 -0.2131 -0.0029
24607W        W31057  10.310   2.831  18.080  0.0152  0.1463  0.2613
24608W        W31058  24.698   4.750   8.702 -0.0629 -0.1408  0.0910
24609W        W31059  16.913   4.934  21.279 -0.0873 -0.0611  0.0154
24610W        W31060   4.214   6.344  17.350 -0.0800 -0.0520  0.0037
24611W        W31061  10.407   0.790   0.987  0.0969  0.4740 -0.0243
24612W        W31062  13.107   7.141   8.749 -0.1574  0.1098  0.1767
24613W        W31063   4.633   2.261  24.143  0.1096  0.3538 -0.0780
24614W        W31064  18.557   2.329   3.950 -0.5041 -0.3497  0.0003
24615W        W31065  10.365   2.191   6.191 -0.0063  0.0574  0.0515
24616W        W31066   9.637   7.017   3.256  0.1165 -0.1806  0.2762
24617W        W31067  23.330   5.090  20.795  0.0399  0.0263  0.0873
24618W        W31068   8.723   4.528  17.212  0.1006  0.1728  0.3242
24619W        W31069  14.879   2.952   8.477  0.0941 -0.2729  0.0087
24620W        W31070  19.412   1.312  18.408 -0.3475  0.1585  0.0474
24621W        W31071  20.200   7.281  11.347 -0.0906 -0.0945  0.0054
24622W        W31072  26.098   2.186   5.064  0.1635  0.2790 -0.0439
24623W        W31073   9.454   1.020   3.743  0.3371 -0.2014 -0.1354
24624W        W31074  12.132   5.208  10.119 -0.0852 -0.2420  0.0320
24625W        W31075  25.218   2.567   0.869 -0.0234  0.0335 -0.2110
24626W        W31076  20.662   6.700   7.462  0.1985 -0.1010 -0.1940
24627W        W31077  12.668   2.824  21.114 -0.3329  0.1403  0.2563
24628W        W31078  25.218   1.451  22.864  0.0848 -0.1110 -0.0716
24629W        W31079  12.563   7.139   8.068 -0.1021 -0.0434 -0.0906
24630W        W31080  17.747   0.188  21.719 -0.2178 -0.1060  0.0123
24631W        W31081  25.207   4.599  10.083 -0.1773 -0.0488  0.1113
24632W        W31082  14.143   1.781   0.182  0.1199 -0.1276 -0.1049
24633W        W31083  24.324   6.029  17.633  0.1917  0.0110 -0.0263
24634W        W31084   6.876   5.173   3.295 -0.2061 -0.0940  0.1828
24635W        W31085   0.023   5.748   1.902 -0.1648  0.1317 -0.0725
24636W        W31086  30.375   0.665  20.768 -0.3663 -0.0346  0.4189
24637W        W31087  28.200   3.352   5.274 -0.1777  0.0811  0.2670
24638W        W31088  10.256   6.999  21.949 -0.1560  0.3156 -0.1702
24639W        W31089   3.244   5.640  10.931 -0.2916 -0.2790 -0.1007
24640W        W31090  25.846   0.068   0.012  0.0662 -0.0053 -0.1411
24641W        W31091  11.161   4.138   3.322 -0.0706  0.1091  0.0416
24642W        W31092  18.404   5.939   2.717 -0.0005  0.0193 -0.0768
24643W        W31093   0.333   5.175   7.039 -0.0710  0.1534 -0.1490
24644W        W31094   4.005   6.840   6.988 -0.0826  0.0903  0.3664
24645W        W31095  16.173   4.469  26.364 -0.1140  0.1164 -0.1250
24646W        W31096   5.851   4.878  17.252  0.1900 -0.1909 -0.2499
24647W        W31097  30.966   2.057   6.864  0.0290 -0.0883  0.0929
24648W        W31098   3.401   4.499  26.297  0.3834  0.2456 -0.4537
24649W        W31099   3.193   6.193  20.157 -0.3577 -0.1426 -0.0410
24650W        W31100   0.930   6.917   5.282 -0.0320  0.0920 -0.1895
24651W        W31101  18.957   2.432  20.603  0.0653 -0.0968 -0.0680
24652W        W31102  27.983   3.804  10.738 -0.2433 -0.1232 -0.2624
24653W        W31103  18.777   7.683  18.106  0.0159  0.0444 -0.2882
24654W        W31104   3.002   3.326  24.222 -0.0864 -0.0111  0.0219
24655W        W31105   1.656   6.503   6.218 -0.1027  0.1089  0.1276
24656W        W31106  23.372   6.076  20.258  0.2746 -0.1190  0.1682
24657W        W31107  23.427   1.975   7.890  0.1344  0.3091  0.1993
24658W        W31108   1.148   0.874  10.078 -0.1889  0.0233  0.1101
24659W        W31109  12.642   1.856  14.917  0.1898 -0.2376  0.2975
24660W        W31110   9.238   2.088   8.882  0.0880 -0.0847  0.0003
24661W        W31111  20.734   4.157   9.387 -0.2482 -0.1906 -0.0761
24662W        W31112  13.012   7.239   6.538  0.1462 -0.0962 -0.0144
24663W        W31113  23.329   3.007  10.342  0.1647  0.2683 -0.0757
24664W        W31114  22.992   4.007  15.642  0.2925 -0.1705 -0.0198
24665W        W31115   2.050   0.645  10.001 -0.0749  0.2934 -0.0877
24666W        W31116   7.327   3.295   6.549 -0.0309  0.3317 -0.1172
24667W        W31117   9.455   3.024   1.543  0.1696  0.2736  0.1208
24668W        W31118   3.689   1.247  24.225  0.0045  0.1015  0.0408
24669W        W31119   3.057   7.639  20.429  0.0475 -0.1030 -0.0114
24670W        W31120  16.388   7.590  22.964  0.0406 -0.1921  0.1567
24671W        W31121  14.497   3.498  23.714  0.1249 -0.1063 -0.1965
24672W        W31122  29.484   0.073   2.084 -0.1104 -0.1173  0.1479
24673W        W31123  24.868   1.569  23.650 -0.2499  0.0350 -0.1692
24674W        W31124  24.784   5.791   7.858 -0.1496  0.1843 -0.1835
24675W        W31125  12.670   2.856  20.266 -0.0124 -0.0768 -0.1701
24676W        W31126  14.682   5.356   5.076  0.0624  0.2896 -0.2846
24677W        W31127  22.624   2.133   8.279 -0.2339  0.0822 -0.0224
24678W        W31128  19.972   6.444  22.130  0.2109  0.0821  0.0051
24679W        W31129   1.228   2.782  25.024 -0.1292  0.1946 -0.1880
24680W        W31130  11.209   2.293  25.881 -0.0334  0.0729 -0.2504
24681W        W31131  27.201   0.317   5.063 -0.2190 -0.0465 -0.0000
24682W        W31132   3.569   6.079   9.487 -0.2022 -0.0254 -0.0975
24683W        W31133  10.130   1.527   4.361  0.2415 -0.0197  0.0815
24684W        W31134   6.374   0.463   8.130  0.1147 -0.1047  0.1810
24685W        W31135  30.408   5.120   4.202  0.2441  0.1260 -0.1767
24686W        W31136  28.929   2.568  23.449  0.0549  0.2693 -0.2201
24687W        W31137  18.287   3.978  17.501 -0.1082  0.0757 -0.4331
24688W        W31138  12.254   1.127  10.900  0.0779 -0.1485  0.0684
24689W        W31139  17.720   4.583  25.733  0.0042 -0.1190  0.4229
24690W        W31140  17.446   0.343  26.334 -0.0211  0.1002 -0.1286
24691W        W31141   1.750   1.768  22.699  0.1333  0.0873 -0.0140
24692W        W31142   1.058   5.343   4.662  0.0461  0.0527  0.1621
24693W        W31143  29.766   3.590  24.250  0.1115  0.2683 -0.2674
24694W        W31144  22.122   7.028  23.541 -0.0025 -0.1405 -0.0904
24695W        W31145   4.849   0.127   2.075 -0.2514 -0.0426  0.1831
24696W        W31146   0.636   1.544  18.171  0.2700 -0.4070  0.3176
24697W        W31147   5.181   1.523  21.504  0.0642 -0.0200  0.2196
24698W        W31148   8.648   7.686  25.777 -0.1241  0.3079 -0.0305
24699W        W31149   4.276   0.012  18.646  0.1117  0.1629 -0.1852
24700W        W31150  16.097   6.646   5.115 -0.1447 -0.2257  0.5440
24701W        W31151   9.627   3.341  26.167 -0.0896 -0.2872 -0.0496
24702W        W31152   6.728   4.146  16.823  0.3215  0.1683  0.0498
24703W        W31153  20.528   4.063  20.274 -0.0025 -0.2734 -0.1128
24704W        W31154  31.078   5.221   7.320 -0.0228 -0.1369  0.3203
24705W        W31155  24.111   6.957   7.339 -0.2032  0.1015 -0.0090
24706W        W31156  10.093   3.879  10.982 -0.2870 -0.1057  0.3481
24707W        W31157  27.568   7.345  15.809  0.1432 -0.0407  0.2679
24708W        W31158   5.448   5.704   1.323 -0.1423 -0.0913 -0.0632
24709W        W31159  31.065   4.830  16.059  0.0563 -0.0845 -0.0290
24710W        W31160   6.834   6.594   3.267  0.1714 -0.0823  0.0939
24711W        W31161   4.123   3.227   6.582 -0.0796 -0.1125  0.1111
24712W        W31162   6.758   4.019   2.925  0.3389 -0.3693  0.1743
24713W        W31163  31.167   4.415  10.812  0.0009 -0.3162  0.3843
24714W        W31164  20.013   6.505  20.367  0.2108 -0.1274 -0.0539
24715W        W31165   7.666   4.754   5.386 -0.0373  0.0877  0.0052
24716W        W31166  27.914   1.326  10.110 -0.0139  0.5138 -0.0419
24717W        W31167  19.493   7.371  21.245 -0.0008 -0.1324 -0.0669
24718W        W31168  12.363   5.258   9.298 -0.0520 -0.0251  0.0941
24719W        W31169  21.451   1.508  24.308 -0.2332  0.2714 -0.1115
24720W        W31170  15.388   4.027   5.502 -0.0127  0.0909 -0.0435
24721W        W31171  14.609   0.876   5.813 -0.2475 -0.0045  0.1526
24722W        W31172  27.411   3.247  22.018  0.2098  0.0001  0.0398
24723W        W31173   0.247   7.651   4.503 -0.1030 -0.0637 -0.1862
24724W        W31174  14.848   5.369   4.113  0.3098  0.2833  0.3663
24725W        W31175  20.162   6.145  19.352 -0.2142 -0.3367  0.1775
24726W        W31176  21.059   6.702   7.142 -0.0833  0.2382 -0.0898
24727W        W31177  12.247   0.942   3.443  0.2855 -0.1231 -0.0044
24728W        W31178  17.993   7.136   1.394  0.2235 -0.3336 -0.2637
24729W        W31179  16.682   1.745  15.451 -0.1871 -0.0032  0.2301
24730W        W31180  18.170   6.799  21.916 -0.3494 -0.0745  0.2429
24731W        W31181  28.530   1.129  19.900 -0.2364  0.1085  0.0212
24732W        W31182   8.826   1.089   2.624  0.3042  0.0835  0.2679
24733W        W31183  26.948   0.096   1.523  0.0644 -0.2262  0.1703
24734W        W31184  12.565   0.436  22.535  0.3992 -0.3810  0.0434
24735W        W31185   9.690   3.891  16.662  0.1164 -0.0126 -0.0589
24736W        W31186   5.415   5.175   6.538 -0.0270 -0.1513  0.1609
24737W        W31187  26.124   2.742  17.479 -0.2324 -0.1002  0.1480
24738W        W31188   3.985   6.258  15.503 -0.0799 -0.1186  0.1816
24739W        W31189  27.113   5.379   9.285  0.2334  0.0497  0.0986
24740W        W31190  22.201   1.213   9.072  0.0165  0.0882 -0.0161
24741W        W31191   7.584   6.420  25.457  0.0424 -0.2364 -0.0808
24742W        W31192  18.438   1.890  17.749 -0.1324 -0.0186  0.1610
24743W        W31193  23.329   7.010   2.282 -0.0453 -0.2182  0.0998
24744W        W31194  11.487   0.206   8.647  0.1548  0.0228  0.0136
24745W        W31195  25.183   1.887   8.388 -0.1058  0.0001  0.0959
24746W        W31196  12.310   1.962   6.546  0.1518 -0.3104  0.1787
24747W        W31197  26.441   6.213   2.175  0.0493  0.0023 -0.1162
24748W        W31198   5.236   6.516  24.991 -0.1270 -0.1390  0.0238
24749W        W31199  15.825   0.385  22.667 -0.0410  0.3139  0.2202
24750W        W31200  19.998   3.458   5.767 -0.0062 -0.1870  0.2717
24751W        W31201   9.649   3.685  17.956  0.0694 -0.0982 -0.3466
24752W        W31202  25.320   6.954  25.416 -0.0951  0.0849 -0.3898
24753W        W31203   6.963   2.019  21.704 -0.2298 -0.1638 -0.0189
24754W        W31204  29.410   5.277   6.443 -0.1109  0.0306 -0.3461
24755W        W31205  19.824   3.225   2.099 -0.0352  0.2100  0.0836
24756W        W31206  17.827   5.619  17.851  0.1071 -0.0966  0.0406
24757W        W31207  10.109   6.153  21.525  0.2395 -0.2102 -0.0208
24758W        W31208   6.514   3.503   5.464  0.1515 -0.1517 -0.0179
24759W        W31209   3.588   4.229  23.511 -0.0179 -0.0893 -0.0449
24760W        W31210   1.926   5.509  15.135  0.2628 -0.3369  0.0944
24761W        W31211  24.586   3.439   9.999  0.0349 -0.0183 -0.1209
24762W        W31212  20.438   1.052  19.999  0.2811 -0.2186  0.0789
24763W        W31213  11.252   6.606   1.571  0.0791 -0.1388 -0.0469
24764W        W31214  12.634   7.406  11.176 -0.4661  0.1244  0.4111
24765W        W31215  11.101   1.128  23.176  0.2259  0.2362 -0.1111
24766W        W31216  30.460   1.599  25.304  0.0895  0.0139 -0.1603
24767W        W31217  21.339   6.644   1.487  0.2039 -0.1001 -0.3081
24768W        W31218   8.518   3.573  25.313  0.0974  0.0930  0.0136
24769W        W31219  23.416   7.345  19.352  0.0475 -0.0108  0.1695
24770W        W31220  27.224   6.069   7.461  0.0650  0.0385 -0.0074
24771W        W31221  14.808   3.183  16.079  0.3354 -0.1086  0.2388
24772W        W31222  19.455   0.605  23.187 -0.3018  0.0475  0.1080
24773W        W31223   3.578   2.389   2.562 -0.2172  0.1457 -0.0919
24774W        W31224   9.454   6.110   7.406 -0.0450  0.0788  0.2634
24775W        W31225  21.409   3.891  18.272 -0.0235 -0.0632 -0.1231
24776W        W31226   8.265   6.396   2.124  0.0461 -0.0706  0.0990
24777W        W31227   2.043   1.092   2.132  0.0694  0.0645 -0.0433
24778W        W31228   3.533   5.870  25.039 -0.3195 -0.0868 -0.1581
24779W        W31229  14.942   0.510  24.440 -0.0036 -0.2281  0.0359
24780W        W31230   1.713   6.122   6.864 -0.3074  0.0764  0.0392
24781W        W31231  18.530   2.627   4.974  0.1101 -0.1695 -0.3839
24782W        W31232  22.811   2.319  16.349 -0.2061  0.1247 -0.0030
24783W        W31233  12.239   6.070   0.831  0.1290 -0.1028  0.3426
24784W        W31234  30.685   6.095  26.137  0.2807 -0.0212  0.1496
24785W        W31235  25.092   0.474   3.219 -0.0065  0.1840  0.2352
24786W        W31236  13.002   4.493  15.916  0.1508 -0.0009 -0.2252
24787W        W31237  23.100   4.505  15.692  0.0074  0.0165 -0.2783
24788W        W31238   4.815   1.180   4.721  0.1899 -0.0900 -0.4600
24789W        W31239  15.632   4.614   0.697  0.1509  0.4339 -0.1782
24790W        W31240  27.933   0.989  23.638 -0.3489 -0.2734  0.2463
24791W        W31241   7.014   4.248   6.503  0.0288  0.0469  0.2271
24792W        W31242   9.856   0.955  22.969  0.2950  0.0990  0.5772
24793W        W31243   7.867   2.494   1.485 -0.3595  0.2729  0.0932
24794W        W31244   1.684   6.662   2.012  0.0416  0.2534  0.1771
24795W        W31245  17.959   3.771  21.618 -0.1432  0.0134 -0.1108
24796W        W31246  30.499   1.918   2.383 -0.2358  0.0932 -0.0183
24797W        W31247  21.200   1.170   3.096 -0.0732  0.4401 -0.0814
24798W        W31248  21.495   3.747  25.136 -0.1855  0.0424  0.2238
24799W        W31249   2.595   6.144   2.720  0.0822 -0.1984  0.1427
24800W        W31250  21.313   5.387   5.488 -0.2298  0.2756 -0.1636
24801W        W31251  27.926   6.542  10.693 -0.0200  0.0927 -0.2289
24802W        W31252  27.241   0.813  17.477  0.2309 -0.0540  0.4275
24803W        W31253  10.679   2.689  17.687 -0.1194 -0.0466 -0.1535
24804W        W31254  15.788   4.758  15.704  0.1141  0.1180 -0.0691
24805W        W31255  24.978   0.481  21.663 -0.1856 -0.0469  0.1872
24806W        W31256  18.534   0.821   9.113  0.2352 -0.1305 -0.1808
24807W        W31257   0.043   5.735   9.097 -0.0979  0.3374 -0.2193
24808W        W31258  30.204   4.089  18.666  0.3512 -0.1786  0.0445
24809W        W31259  10.294   2.018  23.684  0.1515 -0.1725  0.0425
24810W        W31260   6.322   2.152  16.568  0.0703  0.2320  0.4223
24811W        W31261   6.054   4.553  25.230 -0.3550 -0.0195  0.2277
24812W        W31262  11.122   5.417   1.370 -0.0031 -0.0503 -0.1026
24813W        W31263  18.569   6.747  21.189 -0.3633 -0.2322  0.0893
24814W        W31264  23.065   5.168  23.160  0.0953  0.1876  0.2196
24815W        W31265  23.352   2.019  23.917 -0.1843  0.2626 -0.1206
24816W        W31266   0.613   4.226   3.146  0.3672  0.0819 -0.0496
24817W        W31267   2.436   3.570   3.798 -0.0702  0.1379  0.3853
24818W        W31268  20.941   0.829  23.726  0.2536 -0.2325  0.1420
24819W        W31269  21.360   7.461  11.156 -0.2285 -0.0631 -0.0312
24820W        W31270  27.308   0.353  18.342 -0.1566 -0.2501 -0.0743
24821W        W31271  21.198   7.637  10.670 -0.0142 -0.2397 -0.2208
24822W        W31272  12.512   5.645   8.859 -0.1315  0.2568 -0.3542
24823W        W31273  12.694   5.449  22.401  0.1435  0.0464 -0.1595
24824W        W31274  29.470   4.499  24.893 -0.1663 -0.2500  0.1211
24825W        W31275   2.654   6.049  23.540 -0.2388  0.1242  0.0669
24826W        W31276   9.900   0.048   8.735  0.3961 -0.1591 -0.0447
24827W        W31277   5.722   4.739   5.120  0.1435  0.1332  0.0461
24828W        W31278  15.321   0.679  16.778  0.1917  0.0707 -0.1575
24829W        W31279  25.304   2.231  26.340 -0.3809 -0.2494 -0.0645
24830W        W31280  28.576   3.741   0.663 -0.1487  0.2922 -0.1457
24831W        W31281  16.900   0.848  14.949  0.1685  0.1216  0.2766
24832W        W31282  23.358   4.650   9.585  0.3088 -0.0537  0.0329
24833W        W31283  11.589   3.313  21.291 -0.2234  0.1429  0.0106
24834W        W31284  20.302   3.845  17.347 -0.0491  0.0626 -0.0937
24835W        W31285   3.479   0.362   0.408  0.0086 -0.2105  0.1057
24836W        W31286  18.370   7.233  21.794 -0.1083 -0.1532 -0.2115
24837W        W31287  20.324   1.207   2.036  0.0197 -0.0764 -0.1580
24838W        W31288  21.097   3.767   3.503 -0.0438  0.0123 -0.1358
24839W        W31289   6.039   6.075   5.156 -0.2157 -0.0071  0.1731
24840W        W31290   1.419   2.340  25.035 -0.1551  0.1264  0.0261
24841W        W31291   4.901   7.508  23.124 -0.1044  0.1517  0.0526
24842W        W31292  13.845   7.789   9.499  0.2082  0.0832 -0.1266
24843W        W31293  14.503   3.167  23.336 -0.1159 -0.1223  0.0808
24844W        W31294  24.317   7.776  20.198 -0.2507 -0.2060  0.0022
24845W        W31295  17.839   4.519   6.130  0.2632 -0.0034  0.2219
24846W        W31296  31.144   4.063  19.041 -0.4852  0.0712  0.1401
24847W        W31297  18.917   2.553  20.141  0.0117  0.0206  0.0766
24848W        W31298   7.485   7.114  24.207 -0.1472 -0.3457 -0.0626
24849W        W31299   3.954   3.957   2.647 -0.3953  0.1684 -0.1268
24850W        W31300  24.622   6.720   9.906 -0.0970  0.1706  0.0989
24851W        W31301  28.275   7.154  19.307 -0.1322 -0.1136  0.1213
24852W        W31302  29.707   1.828  15.346  0.0416  0.0671  0.2903
24853W        W31303   7.533   1.909   6.468  0.2848 -0.1360  0.0957
24854W        W31304  12.692   2.970   3.842 -0.2317  0.0129  0.1554
24855W        W31305  25.769   5.106  18.080 -0.2921 -0.1178  0.0222
24856W        W31306  19.615   4.557   4.619  0.3834  0.1441 -0.2921
24857W        W31307  13.213   3.482   6.578 -0.0082  0.2277 -0.2703
24858W        W31308  17.967   6.769  17.891 -0.1988 -0.0881  0.0069
24859W        W31309  25.588   1.873  23.569  0.1661 -0.1148  0.0535
24860W        W31310  15.735   6.656   9.674 -0.0499  0.0760  0.0055
24861W        W31311  12.406   2.464   6.410 -0.0025  0.0741  0.0347
24862W        W31312  16.545   5.805   6.810 -0.0701 -0.0324 -0.1562
24863W        W31313  23.916   0.900  22.806 -0.1011 -0.2308 -0.1526
24864W        W31314  17.198   6.827   8.718  0.0348  0.0659  0.1827
24865W        W31315  11.438   1.865   3.123 -0.1891  0.5003 -0.1408
24866W        W31316   7.932   3.714   0.734  0.0541 -0.1845  0.0162
24867W        W31317  14.999   4.143   4.574 -0.1609  0.0151  0.0297
24868W        W31318   4.268   6.164  16.873  0.0237  0.1551 -0.2106
24869W        W31319  15.287   6.532   7.625 -0.2285  0.2078  0.3241
24870W        W31320  19.830   5.968  24.986  0.0603 -0.2249  0.0876
24871W        W31321  30.742   7.375   6.864 -0.0310 -0.0995  0.3273
24872W        W31322  20.915   7.034   1.449  0.0206 -0.1318  0.3476
24873W        W31323  18.696   4.688   9.175  0.0799 -0.0184 -0.1683
24874W        W31324  28.596   2.954   1.973 -0.3167 -0.1607  0.2501
24875W        W31325  30.151   5.178   7.474  0.3194  0.1924  0.0503
24876W        W31326   4.103   7.631  10.520  0.0348  0.0760 -0.1578
24877W        W31327  20.327   4.251  22.713  0.0842 -0.0475 -0.5728
24878W        W31328   3.542   0.532  25.286  0.0587 -0.0203 -0.1514
24879W        W31329   2.190   7.244   3.377  0.0818  0.2113  0.0385
24880W        W31330  27.652   5.598   6.725  0.2852  0.3430  0.0482
24881W        W31331   8.414   2.393  20.492  0.0384  0.0331 -0.2347
24882W        W31332   9.393   1.086   6.059  0.2844 -0.3457 -0.1729
24883W        W31333   4.485   5.004  19.981 -0.1847 -0.0656 -0.3503
24884W        W31334   9.093   5.326  24.360 -0.0772 -0.0570  0.3091
24885W        W31335  10.947   5.518   4.751 -0.0469 -0.4040 -0.0122
24886W        W31336  10.994   7.153  15.510  0.3610  0.1123  0.2236
24887W        W31337  21.332   6.818   6.670  0.0785 -0.2247 -0.2758
24888W        W31338  17.162   7.134   5.619  0.2924 -0.1334  0.3205
24889W        W31339  23.729   0.694   9.200 -0.0280  0.1618 -0.0684
24890W        W31340  23.267   0.316   7.541  0.0170 -0.1012  0.1870
24891W        W31341   7.935   0.110   8.962  0.1285  0.0398 -0.0516
24892W        W31342  14.100   6.230   9.349  0.0870  0.2944 -0.1918
24893W        W31343  17.370   7.378   6.943 -0.1481  0.2743  0.0834
24894W        W31344  11.445   0.084  20.690 -0.1598  0.1547  0.1337
24895W        W31345  19.967   1.221   4.702  0.1279  0.2435 -0.1406
24896W        W31346   3.760   1.754  26.005  0.1943 -0.0676  0.2382
24897W        W31347   3.263   5.294   5.149  0.3042  0.1965 -0.2845
24898W        W31348  24.251   5.058   3.500 -0.0016 -0.0668  0.0289
24899W        W31349  13.074   2.676   5.225  0.0967  0.1204 -0.2824
24900W        W31350   8.946   2.905   1.720  0.2332 -0.2030  0.4357
24901W        W31351  15.124   6.231  19.299 -0.1036  0.1242  0.0637
24902W        W31352  30.186   4.832   3.177  0.1091  0.3366 -0.1055
24903W        W31353   8.981   2.659  11.205  0.1783 -0.0903 -0.0065
24904W        W31354   2.682   2.616  21.397 -0.1377  0.0347 -0.1595
24905W        W31355  14.411   1.486   3.985  0.0738 -0.1865  0.1172
24906W        W31356  23.958   5.487  20.382 -0.1524  0.0536  0.0507
24907W        W31357  26.173   7.701   2.028 -0.0638 -0.0405  0.1848
24908W        W31358  11.592   7.658  16.239  0.0071  0.0282 -0.0178
24909W        W31359  22.423   6.522  20.533 -0.1361 -0.2365 -0.1119
24910W        W31360  10.090   6.711  23.773 -0.0385 -0.1713 -0.1567
24911W        W31361   7.779   3.968   4.909 -0.1022  0.0756 -0.0256
24912W        W31362  12.186   7.727   7.235  0.1298 -0.1392  0.1048
24913W        W31363  25.078   1.753   4.876 -0.0847 -0.0241  0.1791
24914W        W31364  25.010   4.024  18.615  0.2096  0.0789  0.0403
24915W        W31365  19.276   6.481  10.239  0.2331  0.0310  0.0996
24916W        W31366   8.101   5.461   9.363  0.2968  0.2742  0.3176
24917W        W31367  30.077   1.144  21.025 -0.1108  0.1906  0.0929
24918W        W31368  10.073   4.348   2.950 -0.2045  0.0028 -0.1082
24919W        W31369  21.292   5.450  23.676  0.1023  0.1100 -0.1971
24920W        W31370  14.750   0.922  25.070  0.2191 -0.3453 -0.0537
24921W        W31371   9.697   6.264  17.556 -0.0912 -0.1799 -0.0351
24922W        W31372   1.081   6.175  20.987 -0.2043  0.0668 -0.0635
24923W        W31373  28.063   5.716  18.603  0.2676 -0.1210 -0.0545
24924W        W31374  17.201   7.604  21.298  0.0339 -0.0989 -0.1905
24925W        W31375  16.530   3.699   7.358 -0.1329 -0.1209 -0.1185
24926W        W31376  15.618   5.746   5.533  0.0008  0.0694  0.0865
24927W        W31377   3.803   6.921  15.927  0.3131  0.1079 -0.0460
24928W        W31378   7.840   3.771  17.922  0.1054 -0.3174  0.1008
24929W        W31379  24.581   1.895  23.401  0.0207 -0.1486 -0.0929
24930W        W31380  10.444   7.269  22.392  0.0308 -0.0312  0.0017
24931W        W31381   3.284   0.100   6.376 -0.0224  0.1998 -0.0414
24932W        W31382   2.284   6.862  15.701  0.0539  0.1448 -0.0930
24933W        W31383  30.001   7.113   7.889 -0.0951 -0.0176  0.0630
24934W        W31384  10.511   4.154   2.766  0.2040  0.3825 -0.0834
24935W        W31385  11.676   4.571   4.917 -0.1996  0.2263  0.0513
24936W        W31386  29.714   6.150  18.301  0.1004 -0.1093  0.1051
24937W        W31387  16.635   7.367   1.203  0.4145 -0.0700  0.0541
24938W        W31388  16.469   2.021   4.792  0.0832  0.1381 -0.1431
24939W        W31389   9.312   3.440  22.364  0.1915  0.4189 -0.1484
24940W        W31390  19.574   2.789  21.134  0.2343 -0.0788  0.2204
24941W        W31391  19.237   7.138   0.075 -0.2909  0.1003  0.1919
24942W        W31392  20.150   4.354  21.128  0.1105 -0.2799 -0.2517
24943W        W31393  30.545   3.293   6.779  0.1150 -0.2794  0.1525
24944W        W31394  24.940   1.117   2.912 -0.1639  0.3588  0.1185
24945W        W31395  17.517   1.010  15.756 -0.1007 -0.0604  0.0320
24946W        W31396   6.326   4.368   9.082 -0.3050 -0.1191  0.1443
24947W        W31397  15.410   3.463   1.465  0.1618  0.2745 -0.0280
24948W        W31398  11.907   6.184   9.448  0.1255 -0.0350 -0.0918
24949W        W31399  20.286   0.778   4.699  0.0896  0.0013 -0.0135
24950W        W31400  26.497   2.022   2.237 -0.0455  0.0769  0.3652
24951W        W31401  14.253   1.321   8.789  0.0692  0.1703  0.1224
24952W        W31402  24.726   5.888  23.937  0.1615  0.0129  0.2330
24953W        W31403   3.606   4.478   3.835  0.0161 -0.1562 -0.0054
24954W        W31404  10.564   6.395  22.733  0.3368  0.0779  0.0548
24955W        W31405   8.566   5.064   8.173  0.1381 -0.1254 -0.0989
24956W        W31406   1.492   6.145  21.287 -0.1776  0.1613  0.0971
24957W        W31407  21.521   6.231  19.861  0.1482 -0.1159 -0.1803
24958W        W31408  27.854   0.419   0.309  0.0764 -0.2392  0.0364
24959W        W31409  19.169   2.178  23.973  0.2037 -0.2742 -0.2009
24960W        W31410   6.225   7.075  22.612 -0.1436  0.0713 -0.0016
24961W        W31411  27.396   0.721   6.892  0.1324 -0.2510  0.1783
24962W        W31412   9.700   1.935  24.882 -0.0282 -0.0948 -0.1169
24963W        W31413   5.102   0.121   9.285  0.0332 -0.0420  0.0474
24964W        W31414  27.515   7.067   0.006 -0.0910 -0.1976 -0.0118
24965W        W31415  19.857   1.644   5.567  0.1057  0.2226 -0.1912
24966W        W31416   7.826   5.835  10.068 -0.3067  0.1410  0.0591
24967W        W31417  29.093   7.212  20.188 -0.0220  0.0347 -0.1160
24968W        W31418  28.289   3.224  21.474  0.1850  0.1518  0.1979
24969W        W31419  19.512   3.549   9.807 -0.0240 -0.2553  0.1143
24970W        W31420  28.488   4.915  21.172  0.0552  0.3371  0.0867
24971W        W31421  24.476   6.477  22.214 -0.0827 -0.0226  0.3194
24972W        W31422  12.828   2.457  15.754 -0.2462  0.1416  0.0539
24973W        W31423   5.028   4.494   9.612 -0.0189 -0.0523 -0.1921
24974W        W31424   6.672   1.224  15.708 -0.2720 -0.0296  0.0988
24975W        W31425   7.656   4.782  18.193 -0.0706  0.1726 -0.2768
24976W        W31426   9.234   4.688  18.027  0.1059  0.2666 -0.3005
24977W        W31427  29.898   3.545   1.693 -0.0024  0.0559 -0.2134
24978W        W31428   9.283   0.721   0.445  0.2729 -0.2210  0.0090
24979W        W31429  12.627   4.657   8.782 -0.0395  0.0821  0.0431
24980W        W31430  30.651   5.292  10.107 -0.0207 -0.0433  0.0138
24981W        W31431  21.047   0.631  25.297 -0.0804 -0.0340 -0.1268
24982W        W31432   1.492   4.145   9.332 -0.4297 -0.3581 -0.1719
24983W        W31433   5.994   0.366  15.850  0.1605  0.1531 -0.3092
24984W        W31434  13.055   5.141  24.663 -0.1270  0.4479  0.0754
24985W        W31435  18.887   1.982   7.881 -0.3057 -0.3124  0.0276
24986W        W31436  14.654   4.500   2.031 -0.0355 -0.1472 -0.0549
24987W        W31437  25.399   5.954  10.777 -0.0340  0.0363 -0.1373
24988W        W31438  22.000   0.509  20.481  0.3330 -0.0608  0.1925
24989W        W31439  16.430   1.407  18.095  0.2896 -0.3132 -0.1713
24990W        W31440   0.792   7.723  23.139  0.2795  0.1287 -0.2551
24991W        W31441  15.673   5.998  16.803 -0.1127  0.1758 -0.1385
24992W        W31442  22.842   6.014   1.533  0.0802  0.1381 -0.0684
24993W        W31443   1.262   7.373   3.117 -0.0052 -0.0032  0.1234
24994W        W31444  28.775   0.836   1.722  0.3076  0.0046 -0.5685
24995W        W31445  19.442   1.572   4.768 -0.0384  0.1908 -0.1940
24996W        W31446   9.243   2.041  21.015 -0.0746  0.1456  0.0567
24997W        W31447   1.756   3.895  21.617 -0.2013 -0.2487 -0.3482
24998W        W31448   9.843   1.752   7.845 -0.2816  0.1521  0.0927
24999W        W31449  15.269   2.115   9.501 -0.3905  0.1595 -0.1818
25000W        W31450  23.964   4.025   7.539 -0.0299 -0.4015  0.2901
25001W        W31451  29.539   2.579   6.548 -0.1051 -0.0739 -0.1076
25002W        W31452   3.531   7.128  26.047  0.0467 -0.2069  0.0849
25003W        W31453  16.489   6.015   8.800 -0.2723  0.1777  0.1503
25004W        W31454  14.863   3.343   8.907 -0.0787  0.0222 -0.1148
25005W        W31455   4.145   4.918   8.037  0.2031 -0.1456  0.2166
25006W        W31456   6.908   0.288  24.338  0.1273 -0.2240 -0.0787
25007W        W31457  22.403   7.206   2.148  0.1355 -0.0184  0.1178
25008W        W31458   2.903   6.232   6.637  0.1089  0.2209 -0.2688
25009W        W31459  24.390   6.480   1.844  0.3193  0.0681 -0.1066
25010W        W31460   2.324   5.296  10.788  0.1518  0.1096 -0.2203
25011W        W31461  16.037   7.329  23.248  0.2847  0.3308 -0.3159
25012W        W31462  15.618   3.776  25.133 -0.0976 -0.3006 -0.1466
25013W        W31463  15.282   6.102  10.356 -0.3027 -0.1771 -0.0068
25014W        W31464  25.568   1.464   8.147  0.0628  0.2854  0.2216
25015W        W31465  16.860   5.118   7.577 -0.0694  0.2001  0.1101
25016W        W31466  21.266   2.566  18.072 -0.2518  0.2162 -0.0885
25017W        W31467   7.684   3.708  15.829  0.0641  0.1563 -0.0236
25018W        W31468  24.161   2.137   8.442  0.2546 -0.1863  0.4354
25019W        W31469   4.657   5.969  16.395 -0.0491 -0.1019  0.0416
25020W        W31470  17.555   3.935   0.502 -0.1424  0.2585  0.0261
25021W        W31471   3.020   6.512  24.198 -0.1177 -0.1369 -0.0352
25022W        W31472  17.148   5.796   8.988 -0.1953  0.0725  0.1808
25023W        W31473  18.876   2.051   0.904  0.2154 -0.1288  0.0187
25024W        W31474   8.284   1.852   9.643 -0.2527 -0.0346 -0.0418
25025W        W31475  10.226   4.952   8.616  0.0346  0.1282 -0.0702
25026W        W31476  23.893   1.114   8.472 -0.1953  0.2387 -0.2974
25027W        W31477  13.136   5.200  20.224  0.1667 -0.0395  0.2117
25028W        W31478  18.112   6.034  15.440  0.2415 -0.0596  0.2282
25029W        W31479  18.623   2.793  24.957  0.2179 -0.0165  0.0224
25030W        W31480  20.962   2.170  19.479  0.3050  0.1747  0.2120
25031W        W31481  19.121   0.691   1.779  0.1199  0.0448 -0.0382
25032W        W31482   1.837   5.035   0.411  0.3040  0.1537  0.3150
25033W        W31483   9.048   0.280  17.549 -0.2277 -0.1410 -0.1280
25034W        W31484  14.038   4.544   4.288 -0.0413  0.2314  0.0528
25035W        W31485  22.922   6.627  19.546 -0.0760  0.3079  0.0348
25036W        W31486  23.867   4.741  25.986 -0.0448  0.1564  0.0027
25037W        W31487  27.103   2.030  10.403 -0.0853 -0.2242  0.0206
25038W        W31488  29.719   7.435  24.764 -0.2731 -0.0560  0.0606
25039W        W31489  22.311   5.599   7.574 -0.1169  0.0771  0.3352
25040W        W31490   4.769   6.591  10.200 -0.1790  0.1006  0.2184
25041W        W31491  29.561   1.941  25.382 -0.0079 -0.0900 -0.0744
25042W        W31492  12.477   2.403  10.238 -0.2108  0.2676  0.1910
25043W        W31493   6.904   4.198  22.527  0.1590 -0.0534  0.2637
25044W        W31494  28.570   0.567  18.364  0.0519  0.1344  0.0884
25045W        W31495  20.355   0.159   7.407 -0.0955  0.2499 -0.2408
25046W        W31496  10.337   0.040  24.439 -0.1052  0.0084  0.0770
25047W        W31497  19.866   6.880  24.019 -0.0322 -0.0713 -0.1225
25048W        W31498   2.519   5.830   7.578  0.0703 -0.0331  0.1338
25049W        W31499  12.369   3.019   0.571 -0.0751  0.3576  0.2880
25050W        W31500   1.986   3.442  20.089 -0.0566  0.2679  0.3087
25051W        W31501  25.283   1.404   0.907  0.0324  0.3371 -0.5263
25052W        W31502  13.321   3.458   0.654 -0.1001  0.3390 -0.3827
25053W        W31503   2.648   4.597   2.988 -0.1011 -0.0986  0.0715
25054W        W31504  13.487   7.383  17.573 -0.0289  0.2106 -0.1479
25055W        W31505   3.847   1.918  16.332 -0.0400  0.0898 -0.2281
25056W        W31506  23.331   6.891   8.060  0.2191 -0.1707  0.1319
25057W        W31507  17.057   3.999  22.658  0.0028 -0.1585 -0.4214
25058W        W31508  22.057   3.921  20.421  0.0510  0.2594 -0.1237
25059W        W31509  21.268   7.195  18.733  0.1468  0.0035  0.2182
25060W        W31510  19.757   1.939  21.659 -0.2063 -0.1377 -0.2663
25061W        W31511  24.883   7.637  26.311 -0.0173 -0.0536 -0.0786
25062W        W31512  19.430   7.057  16.340 -0.0035  0.1486 -0.0072
25063W        W31513  13.481   7.407   7.611 -0.0451 -0.1040  0.0409
25064W        W31514   7.968   5.454   0.512  0.1327 -0.1353 -0.1020
25065W        W31515  17.018   6.243  10.138 -0.2787  0.3354 -0.3759
25066W        W31516  11.147   4.367  22.786 -0.0566 -0.0558  0.2559
25067W        W31517  25.309   2.611  22.800 -0.0687  0.4032 -0.0534
25068W        W31518  30.253   6.153  24.315  0.1372 -0.0704  0.2125
25069W        W31519   8.270   6.933   5.677 -0.1094 -0.1623  0.1467
25070W        W31520   7.293   2.234  21.286  0.0968  0.1017  0.1148
25071W        W31521  20.757   2.937   3.260  0.3341  0.1750 -0.0708
25072W        W31522  10.120   7.444   2.537 -0.2138 -0.0682  0.0662
25073W        W31523  13.502   2.320  19.730  0.1498 -0.0809 -0.0592
25074W        W31524  14.803   4.547   4.281  0.2600  0.0421  0.1153
25075W        W31525   3.204   6.608  25.590  0.2710  0.3200  0.1658
25076W        W31526  21.621   0.125   7.067  0.0286  0.1375  0.1494
25077W        W31527  15.164   6.006   6.882 -0.0015 -0.0554 -0.1213
25078W        W31528  24.838   6.880  25.669  0.0626 -0.3235 -0.0635
25079W        W31529   6.903   3.033  17.500  0.1767  0.1474 -0.2341
25080W        W31530  21.498   2.052   3.020  0.1419 -0.1126 -0.0793
25081W        W31531   9.686   4.508   3.619  0.1791  0.2972 -0.5662
25082W        W31532  15.439   2.221   0.989  0.1379  0.2498  0.1390
25083W        W31533   6.558   1.427   3.276  0.1616  0.1647  0.0438
25084W        W31534   2.151   6.871   5.840  0.2071 -0.1273 -0.0695
25085W        W31535  10.406   4.820   4.154  0.0255  0.1270  0.2532
25086W        W31536  15.534   6.234   1.312 -0.1697  0.2516  0.0161
25087W        W31537  12.824   1.111  20.769 -0.1358  0.0463 -0.0587
25088W        W31538  15.556   0.031   4.252  0.2720 -0.0300 -0.0753
25089W        W31539  13.636   3.055  15.677 -0.1396  0.2477 -0.2319
25090W        W31540  10.132   1.372  19.525  0.1570  0.3188  0.3130
25091W        W31541  18.173   3.965  24.393  0.1974 -0.0488 -0.2485
25092W        W31542  23.845   0.523   4.221  0.0481 -0.0675  0.0813
25093W        W31543  14.446   6.442  23.085  0.4933  0.1818  0.2948
25094W        W31544  13.505   7.164   8.440 -0.0319 -0.1636  0.1341
25095W        W31545  25.362   0.974  24.764  0.1897  0.1737 -0.1502
25096W        W31546  20.166   7.197  19.124  0.0355  0.2925  0.0159
25097W        W31547   7.717   7.489  22.315 -0.4511 -0.1227  0.1038
25098W        W31548  15.566   7.151   9.620  0.0665 -0.1341  0.1157
25099W        W31549  27.845   1.292   3.769  0.2672 -0.1441  0.1407
25100W        W31550  26.329   3.141   3.155  0.2201  0.0499 -0.1423
25101W        W31551  29.224   5.879  10.461 -0.0983  0.3204  0.0447
25102W        W31552  28.989   2.994   7.233  0.0356  0.0439  0.1695
25103W        W31553  23.423   4.348   3.095 -0.1345 -0.1328 -0.0115
25104W        W31554  19.952   0.983  20.469 -0.2353  0.4833  0.1845
25105W        W31555  19.771   5.116  22.397 -0.0194  0.2039 -0.4233
25106W        W31556  19.475   1.567   5.955 -0.1298 -0.1478 -0.0921
25107W        W31557  22.696   4.571  19.080 -0.0565 -0.2359  0.0740
25108W        W31558  24.623   7.648  10.390 -0.0836 -0.0603 -0.3612
25109W        W31559  14.431   7.228   1.629 -0.2165 -0.1476  0.0421
25110W        W31560   7.597   6.015   4.003 -0.3846  0.0003 -0.0605
25111W        W31561  17.774   7.268   8.497 -0.1012 -0.0746  0.2172
25112W        W31562   3.925   7.578  19.365  0.2037  0.0027 -0.1784
25113W        W31563  18.560   2.132  23.177 -0.0268 -0.3750 -0.1239
25114W        W31564  12.705   4.719  17.779  0.2094 -0.1794  0.0091
25115W        W31565  13.696   3.077  24.949 -0.0321 -0.0686  0.3529
25116W        W31566  15.029   2.962  20.226 -0.1874 -0.0799  0.0451
25117W        W31567  26.762   2.972  16.713 -0.2024  0.0037  0.1401
25118W        W31568   5.030   7.551   0.643  0.3266 -0.0921  0.1013
25119W        W31569  25.225   3.488   0.083  0.2114 -0.0804  0.1041
25120W        W31570  20.705   2.830   9.445 -0.0939 -0.1884  0.2541
25121W        W31571   9.989   1.268  25.507 -0.1508 -0.4041 -0.1234
25122W        W31572  12.717   5.866  23.438 -0.1499 -0.0036  0.0546
25123W        W31573  14.414   0.973  15.662 -0.1869  0.2250  0.1465
25124W        W31574  14.518   0.852  21.391 -0.1847  0.0267  0.1017
25125W        W31575  19.856   3.909  18.784  0.1049  0.1064 -0.0784
25126W        W31576  23.597   6.701   9.003  0.4919 -0.3558 -0.0872
25127W        W31577  24.310   4.263  25.126 -0.2105  0.1096  0.1986
25128W        W31578  11.162   7.704  22.240 -0.1758 -0.1599 -0.1591
25129W        W31579  21.764   7.090   0.437  0.3825 -0.1779  0.1436
25130W        W31580  21.094   7.323  20.585  0.0601  0.1496  0.1218
25131W        W31581  19.704   4.016  20.324  0.3129 -0.0822 -0.0971
25132W        W31582  10.696   6.680   6.664  0.0822 -0.1455  0.2284
25133W        W31583  28.725   1.743   2.471  0.0710  0.1654 -0.2544
25134W        W31584   0.351   6.439  15.411 -0.0478 -0.0147  0.0252
25135W        W31585   2.332   1.394   2.510  0.0864 -0.0371  0.2049
25136W        W31586  25.741   5.170  10.130  0.0869 -0.1011 -0.1261
25137W        W31587   6.585   0.368  10.393  0.4092  0.0706  0.0761
25138W        W31588  15.822   2.755  22.698 -0.0350  0.1086 -0.1763
25139W        W31589  19.927   5.435  22.045 -0.0001  0.1174  0.1563
25140W        W31590  10.279   6.592   3.860  0.0994  0.0133 -0.0309
25141W        W31591  11.993   5.089   1.598 -0.1485  0.1082 -0.0214
25142W        W31592   1.527   4.796  22.062  0.2569 -0.1248  0.1636
25143W        W31593  22.437   1.180   2.620  0.2596 -0.0797  0.0957
25144W        W31594  29.712   6.556  20.221  0.0166 -0.1025  0.0221
25145W        W31595   2.973   6.172  23.143 -0.2960  0.0801 -0.2962
25146W        W31596   8.361   5.557   7.105 -0.2649  0.2841 -0.1336
25147W        W31597   2.545   0.553   3.529  0.2451 -0.0003 -0.1099
25148W        W31598  10.383   6.771  18.173 -0.1400  0.2527  0.0453
25149W        W31599  16.412   2.073   6.195 -0.2723 -0.1248 -0.1211
25150W        W31600   2.956   1.959   5.944 -0.3936 -0.0568 -0.0569
25151W        W31601   5.658   3.262   2.434  0.0040 -0.1524  0.2691
25152W        W31602  24.698   0.801  18.230 -0.0688  0.0579  0.3566
25153W        W31603   1.551   6.087  22.631 -0.1445 -0.0517  0.1900
25154W        W31604  20.584   3.503  15.767 -0.3875 -0.0886  0.1661
25155W        W31605   2.152   6.935  10.435  0.0939  0.0161 -0.2650
25156W        W31606   7.891   4.433  20.524 -0.0870  0.0458 -0.0068
25157W        W31607  15.393   2.646  22.510  0.3239 -0.1005 -0.1764
25158W        W31608  25.943   6.050   0.418 -0.1076 -0.0376  0.0993
25159W        W31609  17.201   7.449   6.506 -0.2485 -0.1321  0.1184
25160W        W31610  11.931   0.736  23.532  0.0081  0.2011 -0.3540
25161W        W31611  14.346   2.152  21.660 -0.2531 -0.2098  0.0532
25162W        W31612  24.348   3.477  22.193  0.0432  0.0498 -0.0239
25163W        W31613  23.119   5.566  20.989  0.1630 -0.0470  0.0575
25164W        W31614   7.549   5.665  24.808 -0.1526 -0.0315 -0.3449
25165W        W31615  11.505   7.794   0.606  0.2076  0.3080  0.0568
25166W        W31616  17.629   5.376  15.854  0.0675 -0.0233 -0.1740
25167W        W31617   4.847   7.223  10.958  0.2470  0.0268  0.2645
25168W        W31618  16.610   7.645  20.223 -0.0034 -0.0625  0.0837
25169W        W31619  19.527   0.588   3.002 -0.4014 -0.0607  0.2181
25170W        W31620  28.181   2.056  16.687  0.3022 -0.0919 -0.0107
25171W        W31621  24.570   2.104   1.231  0.3944  0.0706  0.0607
25172W        W31622  26.780   6.065   7.053 -0.1503 -0.0781  0.4273
25173W        W31623   9.394   1.656   2.009  0.0594  0.0911  0.2493
25174W        W31624   8.433   7.292   8.808  0.0621  0.3595  0.2870
25175W        W31625   9.103   6.618   6.554 -0.1647  0.0523 -0.0903
25176W        W31626  26.414   7.109   3.968 -0.2104  0.0359  0.2944
25177W        W31627  30.268   1.754   4.399  0.0038  0.2744  0.0360
25178W        W31628  27.234   7.137  10.770 -0.1111  0.1278  0.4712
25179W        W31629  12.911   0.443   1.628  0.0061  0.1785 -0.0369
25180W        W31630  25.681   5.047   3.921  0.0202 -0.2523 -0.2912
25181W        W31631  20.005   1.517  25.405 -0.1522 -0.0303 -0.1251
25182W        W31632  11.081   6.460   8.856 -0.0921  0.0641 -0.5156
25183W        W31633  24.349   0.410  16.502  0.1683 -0.1436 -0.1337
25184W        W31634  13.387   3.120   8.191  0.1238  0.0799 -0.2760
25185W        W31635   9.115   2.423  23.266  0.0484  0.0899 -0.2148
25186W        W31636   5.338   1.520  19.043 -0.0969 -0.0274  0.0914
25187W        W31637  30.265   3.108   6.354  0.0211 -0.1033 -0.2283
25188W        W31638  24.748   2.804   7.376  0.2366  0.2116 -0.0795
25189W        W31639  27.907   1.110   3.236 -0.1910 -0.0776 -0.0217
25190W        W31640   4.207   4.351   3.631  0.1738 -0.0776  0.2920
25191W        W31641   7.348   2.341   3.807 -0.0601 -0.0054 -0.1757
25192W        W31642  17.781   2.404   7.383 -0.2184 -0.1775  0.0623
25193W        W31643  15.392   5.305  19.246  0.2760  0.2190 -0.0872
25194W        W31644   1.268   5.985   7.537 -0.0147  0.1394  0.0637
25195W        W31645   3.960   7.292   5.315 -0.2390 -0.3793 -0.1178
25196W        W31646   0.335   3.933  25.975  0.1152  0.0534 -0.1282
25197W        W31647   9.042   1.163  17.060 -0.1543 -0.1796 -0.2244
25198W        W31648   2.912   5.763  16.023 -0.1344  0.0720 -0.1932
25199W        W31649  25.156   0.583  22.106  0.0586 -0.1678  0.0860
25200W        W31650  21.913   1.707   0.988 -0.1280  0.3821 -0.2222
25201W        W31651   5.089   5.779  24.581 -0.1732  0.3135 -0.1990
25202W        W31652  11.116   1.637  15.912 -0.4204 -0.0912  0.1856
25203W        W31653  29.884   6.116   8.541 -0.1631 -0.3195  0.2303
25204W        W31654   4.502   7.129   6.128 -0.1035  0.1467 -0.1062
25205W        W31655   1.760   6.549  17.599  0.1497 -0.1288 -0.0136
25206W        W31656  30.365   5.453  15.583 -0.1112 -0.1178  0.2005
25207W        W31657   7.897   4.753   7.409  0.1929 -0.2785  0.0217
25208W        W31658  29.284   4.464   1.811 -0.0351 -0.0381 -0.2763
25209W        W31659   2.801   6.434  20.267  0.1518  0.1194  0.3254
25210W        W31660  27.597   6.660   2.941  0.0444  0.0597  0.0170
25211W        W31661  10.979   4.547  16.057 -0.0405  0.0447 -0.2410
25212W        W31662   0.623   0.929  15.158 -0.1800 -0.1568  0.0257
25213W        W31663   1.855   4.084  10.769 -0.1118 -0.1336 -0.2030
25214W        W31664  24.457   5.423   3.180  0.2430  0.0043  0.0400
25215W        W31665  23.434   2.306   9.758 -0.1015  0.1810  0.3074
25216W        W31666   5.105   4.861  18.515  0.0364  0.0551 -0.1857
25217W        W31667  17.299   7.517   7.903  0.0225  0.0249 -0.5450
25218W        W31668   7.388   7.162   0.327  0.0980 -0.0285 -0.0315
25219W        W31669  23.195   3.368  24.923  0.0177  0.1778 -0.0422
25220W        W31670  17.186   0.427   8.710 -0.0769 -0.2312 -0.1733
25221W        W31671  17.702   5.300  18.196  0.3596  0.3564 -0.1162
25222W        W31672   9.148   2.608  20.523  0.2595  0.0323  0.0115
25223W        W31673  13.900   5.864  15.702  0.3599 -0.1665 -0.0366
25224W        W31674  27.788   5.277   3.686 -0.2921  0.1621 -0.0721
25225W        W31675  27.772   4.802   7.422 -0.1148 -0.1242 -0.1957
25226W        W31676   4.722   0.255  19.817  0.3697  0.0172 -0.4373
25227W        W31677   3.953   4.558   5.379 -0.2216  0.0586 -0.2673
25228W        W31678  29.413   3.610  10.855  0.0355 -0.0875 -0.0140
25229W        W31679   0.731   1.665  17.113 -0.1279 -0.1274  0.1079
25230W        W31680  14.824   0.485  22.435  0.0319 -0.0998 -0.0026
25231W        W31681   8.985   6.644   5.178  0.1784  0.1367 -0.0182
25232W        W31682  17.719   4.908   7.639  0.0716  0.0317  0.0447
25233W        W31683   9.482   7.505  19.985  0.1235  0.0011 -0.3596
25234W        W31684   3.839   5.926   8.723  0.1905  0.2036  0.1733
25235W        W31685  21.315   1.139   8.733  0.0289  0.2923 -0.0044
25236W        W31686  12.047   7.621  19.994 -0.1184 -0.0985  0.4478
25237W        W31687   5.353   2.803   7.898  0.1780  0.1373 -0.0803
25238W        W31688  17.626   3.872   5.401  0.0902 -0.0703 -0.2060
25239W        W31689   4.126   4.344  25.600  0.0275  0.0449  0.2205
25240W        W31690  28.866   3.335   6.753  0.1055 -0.1912 -0.0249
25241W        W31691   3.973   7.489   2.205 -0.3832 -0.3913  0.4181
25242W        W31692  30.290   0.783   1.241  0.2573 -0.0467  0.0267
25243W        W31693  10.089   6.309  16.445 -0.1938  0.1631 -0.0108
25244W        W31694  14.852   6.518  19.704  0.4414 -0.2541 -0.3018
25245W        W31695   8.556   4.055  23.924 -0.1232  0.3355 -0.2342
25246W        W31696  13.423   5.546  14.503 -0.0197  0.2821  0.0008
25247W        W31697  14.353   5.992  18.147  0.2715  0.0652  0.2988
25248W        W31698   6.230   0.029  21.607 -0.0048  0.1501  0.1424
25249W        W31699  24.118   5.313  25.680  0.2243  0.0743 -0.1328
25250W        W31700  14.761   7.320  10.908  0.1196 -0.0751 -0.0458
25251W        W31701  12.762   0.763   4.805 -0.1652 -0.0970 -0.0563
25252W        W31702  24.251   5.598   8.774  0.0293 -0.1333  0.0515
25253W        W31703   9.134   4.695  10.451 -0.1586 -0.1256  0.1819
25254W        W31704  20.724   7.090  23.487  0.3760 -0.0649  0.1034
25255W        W31705  30.508   3.756  25.840  0.1526 -0.2278 -0.0713
25256W        W31706   0.045   5.694   6.153 -0.0279 -0.1350  0.1022
25257W        W31707  14.252   0.418  14.770 -0.1228 -0.0036  0.0767
25258W        W31708   3.154   7.130  21.281 -0.4174 -0.1197 -0.1576
25259W        W31709   3.883   6.796  10.740  0.1602  0.1192  0.0074
25260W        W31710  20.935   0.261   4.301 -0.0154  0.2712  0.1372
25261W        W31711  22.176   6.162  25.571  0.2333  0.0851  0.0957
25262W        W31712  12.261   2.869  21.384  0.0427  0.0944 -0.0499
25263W        W31713  17.821   2.548  21.046 -0.0048 -0.2185  0.1705
25264W        W31714  12.178   4.955   3.896  0.3170  0.0302  0.1173
25265W        W31715   2.802   0.100  19.682 -0.0361  0.1126 -0.0222
25266W        W31716  19.303   3.235  21.881  0.1652  0.0298  0.3218
25267W        W31717   1.670   5.518  16.718  0.0566 -0.0249 -0.0738
25268W        W31718  26.125   1.535   0.829  0.1479  0.1493 -0.0647
25269W        W31719   7.565   5.882   2.493 -0.1184  0.1653  0.1677
25270W        W31720  26.473   5.344  21.767 -0.0106 -0.1367 -0.1423
25271W        W31721  11.181   1.399   7.437 -0.0938  0.3776  0.3256
25272W        W31722  27.927   3.999   8.165 -0.0020  0.1297 -0.3688
25273W        W31723  17.247   2.479  23.725 -0.1979 -0.1119 -0.0114
25274W        W31724   0.492   0.064   0.403  0.2868 -0.3402 -0.2106
25275W        W31725  14.268   7.194   9.710  0.1682 -0.1209 -0.1509
25276W        W31726   4.907   0.639   3.851  0.0407 -0.1389  0.1502
25277W        W31727  20.131   6.946   4.520  0.1077  0.0694 -0.3025
25278W        W31728  12.035   4.069  16.628 -0.0135 -0.3455  0.0210
25279W        W31729  22.159   7.556   3.024 -0.1587  0.0656  0.1606
25280W        W31730   7.186   6.638  17.486 -0.1614  0.0348  0.0296
25281W        W31731  13.875   1.220  22.445 -0.1000 -0.1199 -0.1325
25282W        W31732  24.505   0.573   4.941  0.3376 -0.1096  0.1269
25283W        W31733  21.917   7.717  19.174 -0.0784  0.3517  0.2298
25284W        W31734  11.932   2.140  21.067 -0.1766 -0.1181  0.1908
25285W        W31735  22.551   1.256  16.076 -0.0362 -0.1377  0.1215
25286W        W31736   7.278   2.400   8.161  0.0749 -0.0478  0.2797
25287W        W31737   4.763   4.608  20.150  0.1215 -0.3617  0.0648
25288W        W31738   0.036   0.325   5.815  0.2842  0.0211  0.0813
25289W        W31739  16.910   3.956  24.692 -0.0723 -0.3447  0.0428
25290W        W31740  11.687   6.503   1.879  0.3435  0.0324 -0.0922
25291W        W31741  22.276   0.633   3.902 -0.1189 -0.1565 -0.0590
25292W        W31742  22.916   5.806   7.246 -0.1137  0.1248 -0.3232
25293W        W31743  14.392   2.198   4.636 -0.0360  0.0203  0.2138
25294W        W31744  14.260   7.424  20.523 -0.2517 -0.1469 -0.0277
25295W        W31745  27.323   4.018   4.760  0.1834 -0.0232  0.0425
25296W        W31746  30.777   7.232  18.063 -0.0946  0.0458 -0.1806
25297W        W31747   6.516   2.164  19.697 -0.0541 -0.3244  0.4403
25298W        W31748  25.159   0.337  26.366 -0.1949 -0.0533 -0.0420
25299W        W31749  17.985   0.289  22.146  0.0420  0.1538 -0.0761
25300W        W31750  12.441   5.238   5.391  0.0780  0.0258 -0.0477
25301W        W31751  11.542   5.259  25.564 -0.3716 -0.3171  0.0422
25302W        W31752  22.217   1.139  11.257 -0.1559 -0.0074  0.0033
25303W        W31753  12.403   6.837  21.054  0.0340 -0.1307  0.1976
25304W        W31754  10.332   1.584   5.327 -0.1113 -0.1830  0.0523
25305W        W31755  19.044   6.576   6.907 -0.2096  0.1539 -0.0908
25306W        W31756  29.591   3.230  20.541  0.1873 -0.0549  0.0884
25307W        W31757  13.531   6.760   6.312 -0.1297 -0.3538 -0.0388
25308W        W31758  23.856   1.344  16.137  0.0749  0.0199  0.0628
25309W        W31759   1.918   4.560  25.698  0.3345 -0.0919 -0.1030
25310W        W31760   0.663   4.291   0.359 -0.2119  0.2265 -0.0092
25311W        W31761  15.373   1.869   7.857  0.1981 -0.1912  0.1292
25312W        W31762  11.821   2.314  19.489 -0.0155 -0.1224  0.1707
25313W        W31763  12.212   4.014   0.732 -0.1097  0.0132  0.0903
25314W        W31764   9.060   2.667  17.403  0.2165  0.2548 -0.0931
25315W        W31765  24.444   6.898   1.574  0.0095  0.1131  0.1463
25316W        W31766  23.467   4.178  11.023 -0.3220  0.1812  0.0491
25317W        W31767  29.997   0.332  20.652  0.1692  0.2131 -0.2378
25318W        W31768  10.232   6.585  26.388 -0.2906  0.2022 -0.0224
25319W        W31769  20.127   6.110   9.312 -0.2090  0.3218  0.1340
25320W        W31770  10.510   5.681   5.824  0.0849 -0.2019 -0.3193
25321W        W31771  24.324   1.672  16.236  0.1047  0.0542 -0.1525
25322W        W31772  17.837   4.760   0.795 -0.1527  0.0663 -0.0712
25323W        W31773   0.061   6.668   9.900  0.2062  0.0570  0.2723
25324W        W31774  17.573   2.410   3.905  0.1963  0.0643  0.2873
25325W        W31775  17.742   7.073   0.640 -0.1682 -0.3120 -0.1073
25326W        W31776  22.529   2.079   9.805  0.2217  0.0860  0.0329
25327W        W31777  13.671   7.117  22.059 -0.0512  0.3950 -0.0830
25328W        W31778  14.540   0.987   8.508 -0.0290 -0.1715  0.0201
25329W        W31779  12.698   6.844   6.331  0.0337 -0.3275 -0.2808
25330W        W31780  21.578   1.587  23.439  0.1505 -0.0530 -0.1594
25331W        W31781  28.944   0.498  24.812 -0.2758 -0.0279 -0.3525
25332W        W31782  24.951   1.865  10.662 -0.2140 -0.1288  0.2323
25333W        W31783  12.633   0.083  18.360  0.2981  0.1381  0.0138
25334W        W31784  21.098   0.610  20.906 -0.1176 -0.0166 -0.0792
25335W        W31785  18.010   7.626   4.347  0.0655  0.0334  0.0225
25336W        W31786  28.115   6.150   3.528  0.0568 -0.0610  0.1961
25337W        W31787  29.028   1.531   9.101 -0.0327 -0.0381  0.1102
25338W        W31788  21.280   6.599  26.210  0.1253  0.1924 -0.1003
25339W        W31789   4.756   1.170   6.764 -0.1741 -0.0366 -0.3897
25340W        W31790   3.198   4.920  23.039  0.1885 -0.4069  0.2700
25341W        W31791  23.325   3.503   5.001  0.2574 -0.0053  0.1993
25342W        W31792  27.249   7.594  24.384 -0.1237  0.2344  0.1694
25343W        W31793  17.522   3.263  17.763 -0.0951  0.2197  0.1785
25344W        W31794  25.833   6.428   0.098 -0.2859 -0.0526  0.0874
25345W        W31795  26.684   5.143  18.415  0.0647 -0.0963  0.0668
25346W        W31796  21.442   0.685   0.038 -0.2476  0.1285  0.1294
25347W        W31797  27.174   2.153  16.960 -0.0934 -0.0717  0.0861
25348W        W31798  26.543   2.419   9.697  0.0899  0.0988 -0.0679
25349W        W31799  21.760   2.240   6.880  0.0871 -0.1262 -0.0008
25350W        W31800   7.358   5.366   6.744  0.0381 -0.0889  0.0628
25351W        W31801  23.565   1.534  11.325 -0.0201 -0.0956 -0.0623
25352W        W31802  15.352   2.666   2.086  0.0740 -0.0331 -0.3304
25353W        W31803   8.305   2.928  16.221 -0.1379  0.0018  0.0287
25354W        W31804   5.608   2.276   4.559 -0.2178 -0.1769 -0.0458
25355W        W31805  19.218   7.447   2.932  0.1438 -0.1293  0.3852
25356W        W31806  11.517   6.056   1.689 -0.0855  0.1905  0.1224
25357W        W31807  10.982   4.025   2.349 -0.1740 -0.4620  0.0766
25358W        W31808  25.924   1.035  24.840  0.2918  0.0238 -0.1460
25359W        W31809  30.798   0.385  10.792  0.0206  0.1053  0.3437
25360W        W31810  23.405   6.502  20.541  0.0868  0.1539 -0.2538
25361W        W31811   6.794   7.596  18.442  0.0941  0.4043 -0.1928
25362W        W31812  18.017   2.721  19.915 -0.2018 -0.1475  0.0728
25363W        W31813  21.807   2.234   3.561 -0.1464 -0.2149  0.1618
25364W        W31814  26.527   2.051  16.388 -0.2517  0.0054 -0.0002
25365W        W31815  24.770   3.673  15.806 -0.2953 -0.0072 -0.1423
25366W        W31816  30.715   4.823  24.776 -0.0257  0.0061 -0.0003
25367W        W31817  21.618   0.915   5.168  0.1155 -0.0953  0.0629
25368W        W31818  11.249   4.035   0.379  0.2644  0.1403  0.3313
25369W        W31819   5.351   1.950   5.779 -0.0941 -0.0757 -0.5796
25370W        W31820  28.022   3.182   2.735 -0.1632  0.0161  0.0244
25371W        W31821  13.456   0.736  16.883 -0.1392 -0.0771 -0.2544
25372W        W31822   6.604   3.405  17.285 -0.0570 -0.0245  0.0665
25373W        W31823   4.057   2.374  21.803 -0.0539 -0.1210  0.0609
25374W        W31824  10.192   0.024   6.349  0.2309 -0.0016 -0.2451
25375W        W31825   7.481   1.762   3.221  0.0725 -0.4730 -0.0282
25376W        W31826  17.737   4.880  19.519  0.0637 -0.0941  0.0408
25377W        W31827   1.222   7.439   3.605 -0.1881 -0.0649  0.1165
25378W        W31828  10.376   3.389   4.650  0.2060 -0.1654  0.0335
25379W        W31829  20.419   3.671   4.105 -0.3043 -0.2064  0.1625
25380W        W31830   3.366   5.983   6.401 -0.0787  0.1585 -0.2782
25381W        W31831   9.873   3.673  25.796  0.1512 -0.1901 -0.1812
25382W        W31832  15.295   3.163  24.830 -0.2595 -0.0096 -0.1302
25383W        W31833   8.215   2.206  10.768 -0.0664 -0.0661  0.1541
25384W        W31834  10.123   1.056   1.321 -0.1403 -0.1181  0.5145
25385W        W31835  12.711   3.050   7.652 -0.1965 -0.1990 -0.0319
25386W        W31836  15.948   7.540  24.453  0.3847 -0.2029  0.0564
25387W        W31837   3.306   7.250  25.253 -0.0644 -0.2717  0.2022
25388W        W31838   5.958   0.577  26.226  0.0956  0.1214 -0.0952
25389W        W31839   2.239   4.217   0.420  0.2604  0.1659 -0.0166
25390W        W31840   5.666   5.390   4.509 -0.2186 -0.1877 -0.1220
25391W        W31841   2.534   2.571   8.057 -0.2095  0.1911 -0.3397
25392W        W31842   5.916   2.401  16.421 -0.1197 -0.2534  0.1024
25393W        W31843  16.380   1.392   5.480  0.1973 -0.0450  0.0926
25394W        W31844  24.974   4.670  19.513 -0.0934  0.0993  0.0562
25395W        W31845  26.155   3.219  25.395  0.2956  0.0004 -0.1485
25396W        W31846  18.123   5.225  25.899  0.2354  0.0501  0.1034
25397W        W31847   6.611   6.830  25.701  0.0659 -0.0491 -0.0384
25398W        W31848  21.080   1.131   1.703 -0.0759  0.3696 -0.1210
25399W        W31849  21.679   4.364   3.565 -0.1408  0.2559 -0.1435
25400W        W31850   7.570   1.315  18.019 -0.2077 -0.0683  0.0318
25401W        W31851  23.330   5.445   9.798 -0.0584 -0.1739 -0.0217
25402W        W31852  14.872   4.581   2.462 -0.2952  0.0532  0.1343
25403W        W31853   8.000   6.547  18.123  0.0714 -0.0818  0.0074
25404W        W31854  19.772   7.667  22.832  0.2277  0.1756  0.2208
25405W        W31855   6.713   1.202  24.577 -0.0089 -0.0721  0.0235
25406W        W31856  21.698   0.816  23.070  0.0368  0.1026  0.0543
25407W        W31857  12.527   5.391  15.740 -0.1465  0.0001 -0.2444
25408W        W31858  30.551   1.673   1.180  0.0361  0.3419  0.3124
25409W        W31859  23.926   1.316  18.212  0.0893 -0.4649  0.2753
25410W        W31860   9.989   0.635  23.878  0.0340  0.3322 -0.2687
25411W        W31861  14.584   4.988   9.099 -0.0787 -0.2578  0.1200
25412W        W31862  18.272   5.803   6.363 -0.2375  0.0495 -0.0058
25413W        W31863   4.278   7.577   3.137  0.1670  0.1596  0.0556
25414W        W31864  10.021   4.914   0.884  0.1534  0.1616 -0.2581
25415W        W31865  18.989   6.425  21.645  0.0690  0.0371 -0.2419
25416W        W31866   2.167   0.715  19.596  0.3093 -0.0333 -0.1539
25417W        W31867   6.829   6.817  16.445  0.0213 -0.1161 -0.1398
25418W        W31868  22.217   0.850  20.145 -0.0177  0.0494 -0.0908
25419W        W31869  10.647   6.774  23.630 -0.0982 -0.1630  0.2368
25420W        W31870   2.121   5.123   3.730 -0.2426  0.1419 -0.0594
25421W        W31871  31.024   6.569   6.782 -0.0581  0.0036 -0.1665
25422W        W31872  24.283   1.461   0.680 -0.1785 -0.0387  0.1832
25423W        W31873   4.784   1.338   7.220  0.0363 -0.0663 -0.0365
25424W        W31874   2.728   1.893  26.406  0.2010  0.0790 -0.0350
25425W        W31875   9.379   0.692  17.053 -0.1031  0.0801 -0.0832
25426W        W31876   6.698   5.021  19.782 -0.2364 -0.3495  0.0271
25427W        W31877   1.934   7.141  17.356  0.0605  0.0320  0.1170
25428W        W31878  29.524   0.215   2.554 -0.1515  0.1019 -0.0584
25429W        W31879  24.557   4.927   0.113 -0.0084  0.1151  0.0834
25430W        W31880  25.797   1.462   9.566  0.0054 -0.1811 -0.1893
25431W        W31881  26.559   6.442  10.635 -0.2471 -0.2003 -0.1094
25432W        W31882  26.519   4.018  22.043 -0.0374  0.0359 -0.2756
25433W        W31883  17.877   1.438   4.988 -0.2300  0.1626  0.1283
25434W        W31884   7.923   0.286   1.249 -0.0723  0.1829 -0.2235
25435W        W31885   0.213   1.785  19.938 -0.0596  0.2689 -0.2087
25436W        W31886  11.215   7.307   4.802  0.0485 -0.0939  0.1841
25437W        W31887  14.989   3.859  16.946  0.3126  0.0486 -0.2626
25438W        W31888  22.939   3.203   8.747  0.0317  0.1297 -0.0712
25439W        W31889  24.276   2.435   2.836  0.2815  0.0163  0.0561
25440W        W31890   7.373   5.385   1.197  0.2473  0.0025 -0.2067
25441W        W31891   7.443   7.021  20.802 -0.3404  0.0457 -0.3654
25442W        W31892   8.442   0.629   0.558  0.1021 -0.2479 -0.3097
25443W        W31893  27.196   4.716  22.332 -0.4492 -0.1532  0.1709
25444W        W31894  16.975   5.851   1.933 -0.2064  0.3888 -0.1866
25445W        W31895  24.754   4.066  17.342  0.0354 -0.0324 -0.0276
25446W        W31896  31.135   3.244  24.000  0.0009 -0.0914  0.0050
25447W        W31897   8.198   1.106  20.577 -0.2772  0.0767 -0.1750
25448W        W31898  16.777   2.292  16.183  0.1584  0.1389  0.1128
25449W        W31899  20.047   0.068  22.480 -0.0478  0.4895  0.1693
25450W        W31900  27.791   3.845   4.530  0.1987  0.4426  0.1747
25451W        W31901  26.112   5.072  17.029 -0.1269 -0.1897  0.1654
25452W        W31902  26.180   2.639  18.841  0.1948  0.1244  0.1128
25453W        W31903  27.295   3.971  10.195  0.1439  0.2247 -0.0280
25454W        W31904  26.208   3.333  19.349 -0.3763  0.0376  0.0115
25455W        W31905  16.706   7.381  18.045 -0.0219  0.0750  0.1735
25456W        W31906  23.259   7.547   9.405 -0.4342  0.1601 -0.1052
25457W        W31907   1.066   6.599   9.391 -0.2944  0.1056 -0.1637
25458W        W31908  26.844   0.610   5.165 -0.2907 -0.1064 -0.0289
25459W        W31909  20.753   1.525  25.030  0.1727  0.1306  0.3160
25460W        W31910   4.701   3.464  10.832  0.1511 -0.1171 -0.1907
25461W        W31911  25.066   3.153   9.928 -0.2736  0.1427 -0.1216
25462W        W31912  29.675   4.550   6.351  0.0689  0.0367 -0.2695
25463W        W31913  12.174   0.455  21.224  0.0354  0.2207 -0.3041
25464W        W31914  14.653   1.986   3.820 -0.2149 -0.0376  0.0240
25465W        W31915   9.564   6.482  21.517  0.2460  0.0747  0.1684
25466W        W31916  14.631   2.534   5.100 -0.1123  0.0970 -0.3302
25467W        W31917   1.479   1.963  18.658 -0.2335  0.1020 -0.2969
25468W        W31918  16.240   4.533  10.235 -0.3527 -0.0203  0.3118
25469W        W31919   7.671   2.798  11.463  0.3410  0.1746 -0.1003
25470W        W31920   3.116   2.902  10.076 -0.1139  0.2304 -0.2408
25471W        W31921  15.748   5.167   3.901  0.0402 -0.0564 -0.0746
25472W        W31922   9.254   7.098  24.774  0.3576 -0.1024 -0.2770
25473W        W31923   9.644   4.142  17.123  0.3279 -0.0091  0.2464
25474W        W31924  10.338   4.306   8.065  0.0413  0.2073  0.0625
25475W        W31925   6.835   5.488   2.846 -0.0080  0.0229  0.0615
25476W        W31926  15.561   4.219  21.661  0.1304 -0.3820  0.0242
25477W        W31927  20.642   0.927  17.647 -0.1229 -0.1545 -0.2130
25478W        W31928  30.997   2.522   7.822  0.3043 -0.0497 -0.2964
25479W        W31929  28.026   4.699  10.898 -0.3160 -0.2806  0.1388
25480W        W31930  29.365   0.554  20.912 -0.2615 -0.0281 -0.3374
25481W        W31931  10.092   0.793   5.329 -0.2497 -0.1475  0.0013
25482W        W31932  20.709   5.681  20.723 -0.0551 -0.3321  0.1758
25483W        W31933  27.312   4.098  23.331  0.0414  0.1446 -0.0526
25484W        W31934  10.462   4.388  17.385 -0.0545  0.0034 -0.0374
25485W        W31935  29.372   0.010  24.844  0.3417  0.1278 -0.4709
25486W        W31936  25.161   6.501   6.176 -0.1103  0.0362 -0.3030
25487W        W31937  26.881   1.912  17.322  0.2326  0.0906 -0.1190
25488W        W31938   1.164   4.775  18.456  0.0007 -0.1126  0.0373
25489W        W31939   7.225   1.318  19.214 -0.1974  0.1207  0.0111
25490W        W31940  22.498   0.398  17.271  0.0788  0.0858 -0.2394
25491W        W31941  29.991   3.541  16.438  0.1333  0.1682 -0.0821
25492W        W31942   7.328   6.349  15.429  0.0792  0.1158  0.0502
25493W        W31943  18.907   7.713   5.455  0.2363  0.0365  0.0796
25494W        W31944   8.650   5.607  21.475  0.1238  0.1010 -0.1122
25495W        W31945  13.435   2.802   1.186  0.0413  0.1122  0.1092
25496W        W31946  29.907   0.909  11.088  0.0816  0.0270  0.1305
25497W        W31947  13.692   0.662   3.963 -0.1229  0.5538  0.1440
25498W        W31948  30.236   1.059  20.448 -0.0074  0.1568  0.2969
25499W        W31949  11.721   7.536  20.915  0.1421 -0.2213  0.4984
25500W        W31950  18.696   6.756   2.662 -0.0587 -0.2212 -0.0864
25501W        W31951   7.153   2.339  23.617  0.0061  0.1966 -0.3150
25502W        W31952   7.947   5.327  10.273 -0.0775  0.1561  0.0133
25503W        W31953  17.510   2.118   5.997 -0.2874 -0.1261  0.0064
25504W        W31954  27.310   4.775  20.545  0.2864  0.1357  0.0325
25505W        W31955   3.464   2.100   9.751  0.2949 -0.2339  0.0888
25506W        W31956  16.886   1.802   4.909  0.0629  0.0503 -0.1416
25507W        W31957   2.221   5.499   8.951 -0.0739 -0.0786  0.0678
25508W        W31958  17.974   6.905  26.023 -0.3732 -0.0025 -0.1523
25509W        W31959   7.895   7.687  24.037 -0.2993 -0.1786  0.0039
25510W        W31960  19.169   6.996  16.731 -0.1732  0.0636  0.1275
25511W        W31961  27.793   3.124   2.274 -0.2109 -0.1578  0.0469
25512W        W31962  14.115   4.919   8.815 -0.2580  0.0986  0.0778
25513W        W31963   7.565   0.101   9.313 -0.0770 -0.2632 -0.0174
25514W        W31964   0.731   7.513   2.236 -0.2403  0.2267 -0.1835
25515W        W31965  29.278   3.617  24.288  0.1933  0.3626  0.2238
25516W        W31966  28.636   0.270  25.598 -0.1801 -0.1853  0.2828
25517W        W31967  20.896   6.293   4.181  0.1378 -0.0789 -0.0337
25518W        W31968  22.161   2.350  20.409  0.0631  0.0762  0.3823
25519W        W31969  15.022   5.402  23.720 -0.0804 -0.1262  0.0338
25520W        W31970   5.064   2.415   2.246 -0.1751 -0.1909  0.3273
25521W        W31971   4.232   0.673  15.995  0.0022 -0.2629  0.0960
25522W        W31972  13.178   7.750   2.305  0.0246  0.0253  0.0666
25523W        W31973   3.929   2.257  20.154 -0.2963 -0.0493  0.1532
25524W        W31974  29.016   1.489  22.762 -0.2155 -0.0509  0.0018
25525W        W31975   6.796   4.752  15.711 -0.1180 -0.0885 -0.1306
25526W        W31976  14.004   1.951  18.360 -0.3641  0.0434  0.3479
25527W        W31977   7.064   2.050  20.736 -0.2000 -0.0779 -0.1280
25528W        W31978  25.993   7.409  25.030 -0.5020  0.2105  0.0131
25529W        W31979  19.309   2.459  25.831  0.1838 -0.0130  0.0354
25530W        W31980  12.183   1.936  26.307  0.1375  0.2888  0.1396
25531W        W31981  13.124   3.313  16.973 -0.1589  0.2058 -0.0238
25532W        W31982  22.338   5.123   3.351 -0.0331 -0.0621  0.0286
25533W        W31983   9.097   0.541  24.966 -0.1979 -0.0444 -0.0086
25534W        W31984   4.857   6.179  23.109 -0.0455 -0.1710 -0.0150
25535W        W31985   7.882   6.980   0.393  0.1688 -0.0909  0.0087
25536W        W31986  18.108   6.695   9.329  0.0566 -0.0229  0.1521
25537W        W31987  26.456   0.302  20.377  0.1268  0.1210  0.0457
25538W        W31988  30.651   0.998   4.389 -0.1273 -0.1473 -0.1846
25539W        W31989  10.229   0.496  18.003 -0.0843 -0.0022 -0.0131
25540W        W31990  17.753   0.752   2.406  0.0634  0.3799  0.2099
25541W        W31991   3.001   0.700  10.977  0.0547 -0.0299  0.2889
25542W        W31992  29.535   5.880  21.624 -0.1291  0.1913 -0.0075
25543W        W31993  23.316   3.138  21.105  0.0295 -0.0965  0.2744
25544W        W31994  31.133   3.078  21.371 -0.1223 -0.0366 -0.1586
25545W        W31995  15.816   6.574  26.042 -0.2359  0.0136  0.1357
25546W        W31996   2.750   4.522  17.791 -0.0188 -0.3627 -0.2909
25547W        W31997   8.640   7.052  20.557  0.1072 -0.0922 -0.2411
25548W        W31998  10.983   2.473  15.685  0.3372  0.2136  0.1023
25549W        W31999  22.990   0.962   1.842 -0.3173 -0.2153 -0.0676
25550W        W32000  26.305   6.448  17.106 -0.1829 -0.4350 -0.0345
25551W        W32001  23.066   3.432   3.984  0.1797  0.1579  0.1724
25552W        W32002  30.976   7.129  20.296  0.2328  0.2894  0.0992
25553W        W32003  22.568   0.505   7.826  0.1733 -0.0874 -0.0232
25554W        W32004  14.884   5.873  22.776 -0.0935 -0.2006  0.1209
25555W        W32005   9.387   2.910   6.716  0.1429  0.1686  0.3387
25556W        W32006  12.283   4.951  19.291 -0.3570 -0.3580 -0.1444
25557W        W32007  15.910   1.864  21.288  0.0141 -0.2084  0.2029
25558W        W32008  28.751   3.757  16.890 -0.2760 -0.0734  0.1042
25559W        W32009  28.697   6.972  10.580  0.1843 -0.3688  0.1092
25560W        W32010  13.729   5.604  23.177  0.1790  0.1723 -0.1129
25561W        W32011  15.098   2.916  23.310  0.0581  0.3587  0.1613
25562W        W32012   4.857   7.195   7.875  0.2418  0.0037 -0.1341
25563W        W32013   5.762   0.070  24.918  0.1329 -0.0819  0.1891
25564W        W32014  18.241   4.057  19.758  0.1238 -0.0848  0.1559
25565W        W32015  21.457   5.379   4.976 -0.3680  0.1094  0.2446
25566W        W32016   7.758   5.052  26.019 -0.1555 -0.0449 -0.0432
25567W        W32017  24.977   2.880   2.869  0.0100 -0.4193  0.0886
25568W        W32018   2.055   2.454  19.960  0.2222  0.3349  0.1088
25569W        W32019  10.511   4.865  17.349 -0.1155  0.1463 -0.0042
25570W        W32020  15.954   7.108   5.289  0.0400  0.1515 -0.1009
25571W        W32021  30.667   5.004   6.045 -0.0820 -0.0889 -0.2626
25572W        W32022   1.183   7.717  19.084 -0.1282  0.0989  0.1452
25573W        W32023  24.345   3.643  25.486  0.3154  0.0619  0.2074
25574W        W32024  21.989   3.438   6.184  0.2797 -0.0860 -0.3313
25575W        W32025  28.417   5.623   6.108 -0.5140  0.3018 -0.0932
25576W        W32026   5.441   6.286   6.273  0.2069 -0.1237  0.0658
25577W        W32027  17.747   2.609  23.691 -0.1159  0.1092 -0.0333
25578W        W32028  20.407   4.131  21.991  0.1172 -0.2561 -0.1930
25579W        W32029   6.804   2.358  16.491  0.5065 -0.2220  0.1604
25580W        W32030   1.618   0.453  24.905 -0.2684 -0.1638 -0.2043
25581W        W32031   4.993   7.093   6.664  0.1023 -0.0081  0.0325
25582W        W32032  17.942   6.425  15.846 -0.0649 -0.0963  0.0865
25583W        W32033  30.691   3.847   3.252 -0.1399 -0.0393 -0.0996
25584W        W32034  29.960   0.706  25.282 -0.3750 -0.4415  0.0908
25585W        W32035  10.536   7.082  16.696 -0.0842  0.1044 -0.1063
25586W        W32036  11.334   2.469  24.834  0.0533  0.0528  0.4651
25587W        W32037  16.435   2.764  20.674 -0.1427  0.2960 -0.1979
25588W        W32038  26.300   3.542  24.963  0.0348 -0.2339 -0.2851
25589W        W32039   1.917   5.251   8.018  0.0035 -0.0796 -0.0044
25590W        W32040  16.238   3.444  19.414 -0.0299  0.1760  0.3142
25591W        W32041  26.784   6.853   4.206  0.2100  0.2910  0.0105
25592W        W32042  30.751   4.067  19.881 -0.1439  0.1608 -0.1129
25593W        W32043   8.476   5.060  19.472 -0.1305  0.2254  0.2267
25594W        W32044  21.571   2.804  23.736 -0.2290  0.2073  0.1192
25595W        W32045  31.135   7.232   5.866 -0.2116 -0.0154 -0.0543
25596W        W32046  13.787   6.164   2.852  0.1446  0.2559  0.2771
25597W        W32047  27.264   6.191   2.947 -0.0138  0.0893  0.0073
25598W        W32048   6.008   5.314   7.548 -0.0618  0.0744  0.1564
25599W        W32049  30.890   4.059   9.503  0.0382  0.0706  0.3020
25600W        W32050  19.582   6.573  19.647 -0.1787 -0.0456 -0.1267
25601W        W32051  19.693   5.939  11.521 -0.1025 -0.0631 -0.0496
25602W        W32052  16.273   1.994  18.718 -0.0491 -0.2018 -0.1489
25603W        W32053  21.937   4.146  10.620  0.0939 -0.1924  0.4620
25604W        W32054  20.915   5.598  16.125  0.0166 -0.0149  0.1085
25605W        W32055   5.046   7.736  15.674  0.0582 -0.0373  0.1044
25606W        W32056  17.018   6.827  22.003  0.0572  0.2314  0.2535
25607W        W32057  22.354   1.305  18.879  0.2182  0.0958  0.0707
25608W        W32058   3.247   2.708  22.574 -0.0435 -0.2211  0.0968
25609W        W32059   1.701   2.447   7.310 -0.1012  0.1528 -0.0335
25610W        W32060  17.101   1.205  24.039 -0.2052  0.0088 -0.2613
25611W        W32061  22.754   1.625  25.582  0.0099  0.4444  0.2397
25612W        W32062  27.290   2.764   9.081  0.2547  0.0142 -0.0606
25613W        W32063  28.744   7.568  17.913  0.0393  0.0390  0.0050
25614W        W32064   9.152   5.267  20.641 -0.2861  0.2044  0.0358
25615W        W32065  19.873   3.204   5.336 -0.3945 -0.4277 -0.1616
25616W        W32066  17.508   0.824  18.043  0.2605 -0.0999 -0.1741
25617W        W32067  18.966   4.426  11.312  0.1381 -0.0517 -0.1118
25618W        W32068  26.945   7.079   3.647  0.0526 -0.0057 -0.0585
25619W        W32069  23.598   0.856   8.076 -0.2461  0.0272 -0.1761
25620W        W32070  29.245   2.586   9.641 -0.1596 -0.2976  0.0719
25621W        W32071   6.717   0.141   0.171 -0.3640  0.2275  0.0211
25622W        W32072   7.991   7.705   3.876  0.2270  0.0450 -0.0647
25623W        W32073   9.478   0.776   4.587 -0.0295  0.0825 -0.3746
25624W        W32074   0.459   3.596  22.383 -0.2256  0.1992 -0.1263
25625W        W32075  27.428   0.372  19.007  0.0567  0.1544 -0.1403
25626W        W32076  27.896   1.010  26.054  0.2591  0.0758  0.1765
25627W        W32077   9.682   0.035  19.038 -0.0525  0.0054  0.0400
25628W        W32078   9.191   7.154   3.037 -0.0547  0.2128 -0.1077
25629W        W32079   5.276   7.611   6.508 -0.2121 -0.0184 -0.1149
25630W        W32080   7.309   0.369  20.026 -0.1516 -0.1623  0.3235
25631W        W32081  14.421   0.022   8.994  0.0694 -0.2258  0.1538
25632W        W32082   5.517   2.526   6.803 -0.2915 -0.1969  0.0564
25633W        W32083  27.241   3.982  18.966 -0.2724 -0.1865 -0.2413
25634W        W32084   6.927   4.435  25.159  0.0692 -0.0575  0.0913
25635W        W32085  23.472   6.418   6.571 -0.0170  0.0957  0.3461
25636W        W32086  27.985   2.377  21.209 -0.0335 -0.3055  0.1584
25637W        W32087  16.067   2.770  21.187  0.0066  0.1902  0.0715
25638W        W32088   1.272   0.978   2.717 -0.0713  0.1895  0.3651
25639W        W32089  30.571   4.025   2.145  0.1566  0.1525  0.0174
25640W        W32090  23.586   0.973  26.093  0.1590 -0.3615  0.2169
25641W        W32091   8.746   3.443  22.486 -0.1741 -0.0458  0.1184
25642W        W32092  23.081   1.996  18.329 -0.2161 -0.1068  0.0772
25643W        W32093   9.429   3.776  10.043  0.2503  0.1117  0.2816
25644W        W32094   2.802   2.419   7.677 -0.0196  0.0791 -0.0244
25645W        W32095  23.494   2.301   8.636 -0.0249  0.1535  0.0141
25646W        W32096  24.689   3.617   8.688 -0.0832  0.0914  0.3336
25647W        W32097  17.983   5.271  21.518  0.0376  0.0649 -0.1171
25648W        W32098   2.972   3.405   9.701  0.0466 -0.0537 -0.3121
25649W        W32099   2.674   7.595  20.087  0.1777  0.2585  0.0046
25650W        W32100  23.436   3.640   4.524 -0.0815  0.0642 -0.0195
25651W        W32101   5.772   4.071  10.873 -0.3291  0.0933  0.0469
25652W        W32102  12.965   3.036   6.447 -0.4284 -0.1327  0.1788
25653W        W32103   8.908   5.486  25.359  0.0007 -0.3670  0.1748
25654W        W32104  19.764   3.940  15.942 -0.0116  0.0298 -0.0019
25655W        W32105   9.919   5.878   3.189 -0.4349  0.0916  0.0514
25656W        W32106  13.073   3.261   3.927  0.0740 -0.1709  0.0510
25657W        W32107  27.731   6.198   8.849  0.0978  0.1374 -0.5248
25658W        W32108   0.255   7.150   1.503 -0.3514 -0.2156  0.2910
25659W        W32109   0.855   7.683   6.995 -0.0234  0.1024 -0.3084
25660W        W32110   4.394   1.170   4.096  0.2704 -0.1049  0.5410
25661W        W32111  18.652   3.484   2.652 -0.0375 -0.1139  0.0166
25662W        W32112   3.942   3.353  16.951  0.1189 -0.0562 -0.2536
25663W        W32113  29.365   0.141   9.865 -0.5212 -0.1567 -0.1434
25664W        W32114  24.069   4.444   1.270 -0.1225  0.0599  0.0796
25665W        W32115  20.692   6.217  10.451 -0.1645  0.1082  0.1244
25666W        W32116  18.445   4.344   9.393  0.0880 -0.0212 -0.1948
25667W        W32117  22.591   0.076  23.837  0.0069  0.2635  0.2333
25668W        W32118   3.419   6.816  23.465 -0.1479 -0.0967  0.2374
25669W        W32119   2.221   5.238   1.014 -0.0362 -0.2718  0.0236
25670W        W32120  15.329   6.341  20.239 -0.1529 -0.1987  0.2649
25671W        W32121   2.129   0.833   7.486 -0.0058 -0.0477  0.1856
25672W        W32122   8.409   6.571  26.074  0.2563  0.0789  0.0227
25673W        W32123  25.970   4.859  11.187  0.1773 -0.3327 -0.0324
25674W        W32124  10.307   5.913   0.686  0.0664 -0.1522  0.0090
25675W        W32125  26.497   7.050  23.680 -0.0724  0.0812 -0.3492
25676W        W32126  11.215   7.322  16.025 -0.1093  0.1014 -0.0627
25677W        W32127  28.063   1.965  24.955 -0.0862  0.2651  0.1336
25678W        W32128   9.505   2.887  20.207  0.5123 -0.0639  0.1708
25679W        W32129   0.946   4.411   4.932 -0.2613 -0.2900 -0.1966
25680W        W32130   5.509   7.310   8.428  0.0689 -0.0253 -0.0009
25681W        W32131   0.824   5.100   1.732  0.0988  0.3388  0.1000
25682W        W32132  27.746   5.571  23.396  0.2053 -0.0215  0.0294
25683W        W32133  19.700   3.904  11.056  0.4361  0.1121 -0.1003
25684W        W32134  24.390   4.645  16.842 -0.3862 -0.1939  0.0836
25685W        W32135  17.457   5.382  23.432  0.0716  0.0624  0.2646
25686W        W32136  21.718   1.453  23.855 -0.3733 -0.0555  0.0273
25687W        W32137   1.488   7.201  16.975  0.1945 -0.1374  0.1077
25688W        W32138  30.092   4.983  25.485  0.1135 -0.0616 -0.1741
25689W        W32139  13.167   1.790  16.713 -0.0637  0.2755  0.2875
25690W        W32140  16.377   6.074  22.012  0.2890 -0.0546  0.0063
25691W        W32141  31.120   3.386   3.767  0.3884 -0.5947  0.0660
25692W        W32142   1.882   3.484  11.445  0.1263 -0.1788  0.2042
25693W        W32143  22.835   5.060  26.023 -0.0587  0.2287  0.1122
25694W        W32144  15.294   4.169  23.163 -0.2643  0.0970 -0.0741
25695W        W32145  30.826   2.159  21.382  0.2050  0.0751 -0.2205
25696W        W32146  27.831   2.831   9.175 -0.2376  0.1881  0.2794
25697W        W32147  11.608   7.700  18.987 -0.2119 -0.0113 -0.1885
25698W        W32148   1.964   2.171   9.967 -0.2190  0.2193  0.0863
25699W        W32149  29.424   3.979  25.826  0.1414 -0.1633  0.1622
25700W        W32150  18.334   5.958  25.502 -0.0635  0.2206  0.2388
25701W        W32151  13.228   2.635  22.956 -0.0246 -0.0913 -0.0954
25702W        W32152  21.380   1.464  18.761  0.0207  0.0559 -0.0747
25703W        W32153  14.043   5.692   5.711  0.3242 -0.0254 -0.1701
25704W        W32154   7.975   0.628   0.343 -0.3082 -0.0640 -0.2942
25705W        W32155  29.602   0.651   0.080 -0.0888 -0.0859 -0.0629
25706W        W32156  13.276   3.394   7.740 -0.0125 -0.0094 -0.2861
25707W        W32157   2.981   4.360   7.896 -0.0638 -0.0211  0.0313
25708W        W32158  29.924   5.118   7.926 -0.0511 -0.0122  0.1691
25709W        W32159  26.907   3.569  25.739 -0.2702  0.2081  0.1650
25710W        W32160  17.135   0.306  22.357  0.0284  0.0453  0.1051
25711W        W32161  17.585   2.891   7.344 -0.1592  0.2541  0.1348
25712W        W32162  26.011   0.259  16.691  0.0326  0.0501  0.0266
25713W        W32163  28.998   0.914  25.073  0.0501 -0.0078 -0.0082
25714W        W32164  20.757   3.508  22.866 -0.0692  0.0528  0.1258
25715W        W32165  21.246   6.401  25.571  0.4478  0.0675 -0.1799
25716W        W32166  13.395   0.833   8.439  0.2869  0.3272  0.2543
25717W        W32167  15.884   4.429   8.460 -0.1216  0.3331  0.0887
25718W        W32168  22.510   6.794   3.115  0.2005  0.1333  0.0955
25719W        W32169  24.176   3.437   1.247  0.0271  0.3703 -0.3273
25720W        W32170  21.732   3.682  24.640 -0.0318  0.0781 -0.3175
25721W        W32171  14.437   1.602   6.261 -0.0281  0.1028 -0.0247
25722W        W32172   2.255   3.921   6.680 -0.0517 -0.1869  0.0907
25723W        W32173  27.904   1.294  15.337  0.1993  0.4762 -0.0812
25724W        W32174  16.477   7.019   5.018  0.1070  0.0381  0.2026
25725W        W32175  22.438   4.080   5.561  0.1630 -0.2297  0.0749
25726W        W32176   1.915   6.577  11.263  0.0789  0.0817  0.2486
25727W        W32177   7.625   6.437   3.593 -0.1864  0.1516  0.0952
25728W        W32178  13.324   4.069   0.280 -0.2992  0.1935 -0.2816
25729W        W32179  17.987   1.644   8.116  0.1267  0.2081  0.0751
25730W        W32180  25.749   4.143  20.928 -0.0493 -0.0232 -0.0170
25731W        W32181   3.398   1.372  25.867  0.0305 -0.0146 -0.0769
25732W        W32182  13.488   3.956   9.766  0.1793 -0.1115 -0.2021
25733W        W32183  22.767   5.976   0.068  0.0249 -0.2406 -0.0028
25734W        W32184  12.333   6.892   9.993  0.0521 -0.0452  0.0101
25735W        W32185  18.296   0.504  10.302  0.1837 -0.3562 -0.1495
25736W        W32186   3.496   7.751  21.933 -0.0368 -0.2338  0.1029
25737W        W32187   0.237   4.113   9.584 -0.0102  0.0804  0.0480
25738W        W32188   5.107   5.158   8.440  0.1980 -0.2526 -0.2498
25739W        W32189  23.837   6.106   8.152 -0.1941  0.0815  0.0977
25740W        W32190  15.124   4.330  15.404  0.0543  0.0685  0.2548
25741W        W32191   7.256   7.520   0.697  0.0618  0.1336  0.1067
25742W        W32192  17.071   1.444  19.321  0.0071  0.0526  0.0868
25743W        W32193   2.021   3.889   2.868 -0.1960 -0.0034  0.0882
25744W        W32194   5.521   1.939   9.660 -0.0943 -0.0466 -0.0724
25745W        W32195  13.141   2.344  16.795  0.2911 -0.4358 -0.1246
25746W        W32196  18.580   6.576   5.375  0.0632 -0.1161 -0.0171
25747W        W32197  19.378   0.687  16.593 -0.0341  0.1647  0.1411
25748W        W32198  28.667   3.642  18.903  0.1047 -0.3140 -0.2475
25749W        W32199  10.467   5.818  21.535  0.4393 -0.1892  0.0837
25750W        W32200   3.336   1.788  19.433 -0.1818 -0.0111 -0.2926
25751W        W32201   5.129   4.009   8.735 -0.2538 -0.0227 -0.4694
25752W        W32202   7.284   0.122  24.571  0.1157 -0.2090 -0.0264
25753W        W32203  22.165   5.399  24.205  0.0997  0.1514 -0.1473
25754W        W32204   7.495   4.415   6.721 -0.0162 -0.2098  0.3179
25755W        W32205  13.440   2.813  19.494  0.5148 -0.1202 -0.2542
25756W        W32206  29.781   1.731  10.566 -0.2806  0.2433  0.2157
25757W        W32207  11.236   5.050   8.765 -0.3289  0.1317 -0.0130
25758W        W32208   0.635   4.880  25.191 -0.1757  0.3124  0.1445
25759W        W32209  17.286   1.871  23.043 -0.5178 -0.0818  0.0859
25760W        W32210  10.654   3.080  23.849 -0.0017 -0.2122  0.0093
25761W        W32211   8.549   6.262  24.875 -0.4253  0.0082 -0.0342
25762W        W32212  25.080   5.878   9.138  0.2980 -0.2153  0.2551
25763W        W32213  14.072   1.122  10.234  0.0223  0.5975  0.0009
25764W        W32214   4.533   1.518  25.498  0.2587 -0.1553 -0.0829
25765W        W32215   3.803   1.391   8.326 -0.0191  0.0800  0.1351
25766W        W32216  24.615   0.977   1.965 -0.0624 -0.0201  0.1738
25767W        W32217  30.533   7.656  10.083  0.0801  0.1794 -0.1258
25768W        W32218   7.183   6.489  25.019  0.0140 -0.1362 -0.0947
25769W        W32219   8.438   1.858   2.433 -0.1132 -0.3140 -0.1284
25770W        W32220  23.370   0.960  19.121 -0.1837  0.0411  0.0340
25771W        W32221   6.475   0.570  19.261 -0.2627  0.1640  0.2459
25772W        W32222  20.680   3.931  18.141  0.0538 -0.0009 -0.0152
25773W        W32223  28.479   5.059   6.254  0.0790 -0.2044  0.0520
25774W        W32224  15.437   5.619  16.020  0.1884  0.0762  0.0004
25775W        W32225  15.953   4.489   6.906  0.0860 -0.1045  0.0937
25776W        W32226  25.320   3.690  20.414 -0.0429 -0.2111 -0.2119
25777W        W32227   3.657   4.628   9.421 -0.0559  0.1114  0.0716
25778W        W32228   3.884   0.636  15.576  0.1916 -0.0356 -0.0028
25779W        W32229  17.026   4.032  25.155  0.0356 -0.0793  0.3123
25780W        W32230  16.198   5.812   4.059 -0.1618  0.1540  0.2890
25781W        W32231  26.655   7.792  21.851  0.1486  0.2215 -0.0989
25782W        W32232   0.788   3.704   5.670 -0.1392 -0.3645  0.1616
25783W        W32233   9.514   6.624   7.576 -0.0247  0.0210 -0.0992
25784W        W32234   2.989   2.671  10.498 -0.1027  0.2097  0.0056
25785W        W32235  27.354   2.445   4.417 -0.0065  0.2403  0.2502
25786W        W32236  21.660   4.331   1.460 -0.0204 -0.0856 -0.2499
25787W        W32237   4.712   7.196  23.484  0.1521  0.0820 -0.1582
25788W        W32238   6.964   3.788  18.784 -0.1346 -0.0502 -0.2879
25789W        W32239  13.370   6.537   6.794 -0.2100  0.1519 -0.0075
25790W        W32240   8.322   6.558   4.143 -0.2203  0.1059 -0.0275
25791W        W32241  28.052   4.026   2.317  0.0000 -0.0853 -0.0849
25792W        W32242  11.604   0.507  21.705  0.0872  0.0328  0.1153
25793W        W32243  15.327   4.620  10.163  0.1493 -0.1213  0.0690
25794W        W32244  14.744   6.000   1.318 -0.1322  0.0280  0.0839
25795W        W32245  24.492   1.555   2.942 -0.1612  0.0773 -0.1349
25796W        W32246  16.590   4.906  10.208  0.1858 -0.0124 -0.0531
25797W        W32247   0.591   6.806   7.382 -0.1257  0.0950 -0.2600
25798W        W32248  27.524   3.490  18.119 -0.0155  0.0902 -0.2051
25799W        W32249  14.783   7.644   3.333  0.2537  0.0512 -0.3155
25800W        W32250   9.278   6.564  21.966 -0.0901  0.0228 -0.1678
25801W        W32251  24.263   5.666  22.802  0.0905  0.2304 -0.1776
25802W        W32252   2.501   4.456  21.959  0.3747  0.1427 -0.0725
25803W        W32253  25.887   1.552  19.706  0.2393 -0.2047  0.2450
25804W        W32254   6.823   1.809  25.242 -0.1521  0.1363  0.0956
25805W        W32255   3.266   6.717  26.083  0.0758 -0.2564  0.0892
25806W        W32256  29.351   7.021   0.843 -0.1620 -0.3901 -0.0508
25807W        W32257   4.424   2.684  19.101 -0.5389  0.1886  0.0120
25808W        W32258   1.978   3.690  23.459 -0.0180 -0.1084  0.1039
25809W        W32259   1.268   7.221   6.101  0.1736  0.2495 -0.3616
25810W        W32260  13.786   5.766  21.670 -0.0303 -0.1344  0.0361
25811W        W32261  31.158   2.066   6.264 -0.3812 -0.0516  0.0099
25812W        W32262   2.813   7.067  25.218  0.0511 -0.1064  0.0978
25813W        W32263  12.140   3.280  24.230  0.1001  0.1562 -0.1446
25814W        W32264   7.794   0.388  20.243  0.0593 -0.0850 -0.0939
25815W        W32265  12.047   3.914  10.703  0.1842 -0.0607  0.2140
25816W        W32266  29.068   3.026  25.406  0.0662  0.3190  0.1743
25817W        W32267  18.989   0.187   7.791  0.1360 -0.0307  0.1536
25818W        W32268  21.668   7.334   1.046 -0.0038 -0.0427 -0.0010
25819W        W32269  27.383   1.704   7.489 -0.0030  0.0146  0.1915
25820W        W32270  15.278   2.066   4.985  0.0561 -0.0154  0.1806
25821W        W32271   0.534   7.436   9.495 -0.0482  0.0872  0.1266
25822W        W32272  10.478   7.665  23.912 -0.0256 -0.3019  0.0066
25823W        W32273  22.405   7.377   9.505  0.1652 -0.0227 -0.0791
25824W        W32274  10.211   1.777  17.950  0.0707  0.1891  0.0947
25825W        W32275  30.796   5.808   0.238 -0.0094  0.2832  0.3002
25826W        W32276  10.723   0.401   5.658  0.2433 -0.0177 -0.2202
25827W        W32277  28.870   5.637   2.696  0.1034 -0.0731 -0.0800
25828W        W32278  26.047   3.373   8.407 -0.1834 -0.1284  0.1753
25829W        W32279  30.594   7.770  20.007 -0.0682 -0.0410  0.2114
25830W        W32280  29.667   5.288   2.433 -0.1816 -0.2048 -0.1291
25831W        W32281  20.125   1.719  19.626 -0.2322  0.1060  0.1249
25832W        W32282  16.745   6.334   3.443  0.3658  0.3474  0.0568
25833W        W32283   0.138   5.999  17.548  0.1535 -0.0962  0.1061
25834W        W32284  26.987   2.047   0.514 -0.0110  0.0128 -0.0379
25835W        W32285  13.394   1.069   6.310 -0.2161  0.3070 -0.0925
25836W        W32286  21.181   4.038   9.217 -0.1335  0.2311 -0.1005
25837W        W32287  18.828   4.031   7.410 -0.3766  0.2088 -0.1907
25838W        W32288  18.455   0.246   0.335 -0.1100 -0.1242 -0.2402
25839W        W32289  30.016   5.675  22.747 -0.1019 -0.2751  0.0962
25840W        W32290   2.551   7.417  24.996  0.0541 -0.2065  0.3518
25841W        W32291   2.200   1.597  26.095  0.0323 -0.0288  0.2452
25842W        W32292   8.620   3.809  15.982 -0.0290  0.1117 -0.0281
25843W        W32293   4.484   7.502   3.962 -0.0192  0.3249 -0.1450
25844W        W32294  13.048   7.102  23.017 -0.1695  0.3239 -0.0947
25845W        W32295   2.581   2.239   3.565  0.0838  0.0783 -0.0634
25846W        W32296  27.054   2.566  25.770  0.0118 -0.0604 -0.0594
25847W        W32297   1.507   5.145   5.902 -0.2229  0.0220 -0.0685
25848W        W32298  23.567   0.767   0.872  0.0741  0.1103  0.0147
25849W        W32299  12.907   1.307   5.460 -0.0718 -0.0871  0.0095
25850W        W32300  14.292   1.813   8.536  0.1943  0.1551  0.0191
25851W        W32301  23.422   5.528   3.005 -0.1211  0.1713  0.2244
25852W        W32302  21.387   4.265  18.576  0.0470 -0.0026 -0.0278
25853W        W32303  27.631   5.336  17.852 -0.1979  0.0755  0.1637
25854W        W32304  30.058   7.229  22.218 -0.0865 -0.0254  0.0324
25855W        W32305  11.263   2.508  25.449  0.1680 -0.0480  0.1469
25856W        W32306  16.240   3.824  16.782 -0.2384  0.3995  0.1056
25857W        W32307  18.586   7.308   6.093  0.1880  0.1125 -0.0772
25858W        W32308   5.706   0.192  20.833  0.2900  0.0930 -0.0903
25859W        W32309  22.466   3.419   4.943  0.0111  0.1840  0.1755
25860W        W32310  17.326   3.406  20.930 -0.0979  0.0955 -0.2289
25861W        W32311  27.269   2.635   3.499 -0.1178 -0.3055 -0.1547
25862W        W32312   0.387   0.917   0.316 -0.0754  0.1438  0.1723
25863W        W32313  21.335   6.358   0.287  0.1233  0.0521  0.3039
25864W        W32314   8.371   7.384   3.673  0.2240 -0.0936  0.4265
25865W        W32315  27.068   6.988  16.301 -0.4305  0.1528  0.0491
25866W        W32316   0.024   2.997   6.576  0.1246  0.0084 -0.2193
25867W        W32317   7.518   3.044  11.087 -0.0496 -0.1519 -0.0530
25868W        W32318  20.484   5.127  20.453 -0.1030  0.0265  0.1068
25869W        W32319   5.663   6.992   1.488 -0.2772  0.1784  0.1382
25870W        W32320  14.647   5.287   3.089 -0.2293  0.1410 -0.2580
25871W        W32321   4.588   2.986   5.424  0.0980 -0.2255 -0.1836
25872W        W32322  24.985   5.348  16.446  0.0325  0.1434 -0.1394
25873W        W32323   8.711   1.301   6.753  0.3374 -0.0477  0.2401
25874W        W32324  12.801   2.110  18.648 -0.0898  0.0140  0.1113
25875W        W32325  26.096   4.069  25.026  0.0294  0.0811  0.2661
25876W        W32326  16.448   0.809  20.394 -0.2947  0.1751  0.0733
25877W        W32327  29.116   1.994  19.489  0.2468 -0.4337  0.0221
25878W        W32328  20.488   0.677   3.404  0.0339  0.0582  0.1544
25879W        W32329  20.588   7.645   0.508 -0.0249  0.3633  0.3276
25880W        W32330  11.471   4.585   1.882 -0.0555  0.0954 -0.2675
25881W        W32331  29.715   3.053  18.701  0.2021  0.1512  0.0339
25882W        W32332  15.301   2.991  25.600 -0.1556 -0.1493 -0.2582
25883W        W32333  14.170   3.914  25.311  0.1672  0.2349  0.0882
25884W        W32334  10.742   2.823   3.003 -0.0129 -0.0401 -0.0788
25885W        W32335  20.863   6.497   6.664  0.1743  0.1653  0.1035
25886W        W32336  24.948   3.948  23.253 -0.0767  0.2502 -0.0465
25887W        W32337   7.334   5.256   8.822  0.2559  0.0204  0.0444
25888W        W32338   5.104   0.046  22.728  0.0291 -0.1201 -0.0430
25889W        W32339  18.690   1.417  15.513 -0.0861 -0.3123  0.1904
25890W        W32340  27.651   4.448  18.263  0.3109  0.2918  0.2369
25891W        W32341  11.655   5.830  10.143 -0.1568  0.0601 -0.0165
25892W        W32342   0.296   5.950  10.939 -0.1788  0.0916 -0.0939
25893W        W32343  17.259   4.840   8.885  0.1500 -0.0752  0.2099
25894W        W32344   1.026   3.711   6.087  0.3296  0.2536 -0.1776
25895W        W32345   4.190   0.055   4.185  0.0507 -0.0079 -0.0368
25896W        W32346  20.717   6.575  21.069 -0.2948 -0.0400  0.3269
25897W        W32347  25.411   6.792  20.780  0.0207 -0.2309  0.0418
25898W        W32348  22.153   2.404   6.055 -0.1432 -0.1738  0.1314
25899W        W32349   8.942   3.247   2.213 -0.0682  0.2295 -0.2120
25900W        W32350  16.725   3.748  25.514 -0.2716 -0.2178 -0.0130
25901W        W32351  16.196   1.494  15.258 -0.1393  0.0812  0.1151
25902W        W32352  17.435   6.334  22.929 -0.4623  0.1051 -0.0492
25903W        W32353  15.852   6.299  11.099 -0.0243  0.2202  0.3283
25904W        W32354  13.196   5.303  25.677  0.2854 -0.0822 -0.3150
25905W        W32355   9.885   6.751   4.131  0.1756 -0.2620  0.0584
25906W        W32356   7.960   2.277  25.160  0.1193 -0.1286  0.0964
25907W        W32357   8.417   7.177  24.125  0.3814 -0.2118  0.1989
25908W        W32358  25.277   5.709  22.202 -0.1282 -0.2671 -0.0985
25909W        W32359   1.033   1.629  17.509 -0.0356  0.0309 -0.3971
25910W        W32360  17.291   0.283  25.379  0.1487  0.2060 -0.0433
25911W        W32361   7.196   2.856  19.947 -0.1520 -0.2302 -0.1232
25912W        W32362  11.240   4.457   7.740  0.1095 -0.3273 -0.0185
25913W        W32363   4.474   2.999  20.964 -0.1685 -0.1932 -0.1866
25914W        W32364   4.512   4.088   0.951  0.2290  0.2332  0.1955
25915W        W32365   2.368   7.469  23.553  0.2277  0.2011  0.0368
25916W        W32366  30.975   0.524  23.532  0.1259  0.0448  0.2100
25917W        W32367   3.223   1.137  24.499  0.1362  0.3442 -0.0755
25918W        W32368  18.452   2.648   9.384  0.1659  0.0235  0.1473
25919W        W32369  10.669   7.320  22.960 -0.1035  0.2654 -0.0367
25920W        W32370   2.967   2.455   6.121 -0.4757 -0.0347  0.0927
25921W        W32371  30.123   2.009   8.190  0.1751 -0.1067  0.0484
25922W        W32372  18.122   5.156   0.483  0.2461  0.3367 -0.0291
25923W        W32373  15.756   0.580   3.453  0.0909  0.1667  0.1078
25924W        W32374  22.187   4.595  26.167 -0.0138 -0.2229  0.1587
25925W        W32375  30.242   1.115   2.579  0.1234  0.2637 -0.0687
25926W        W32376   7.573   2.305  16.830 -0.0365  0.2044  0.1641
25927W        W32377   2.070   0.582  21.464  0.1656  0.0963 -0.0885
25928W        W32378  23.873   0.453  24.355  0.1130  0.0598 -0.0423
25929W        W32379  24.173   7.217   6.783 -0.0827  0.0278  0.3007
25930W        W32380  22.243   7.018   0.675  0.2051  0.2755 -0.1879
25931W        W32381  28.098   4.293  10.668 -0.0756 -0.0641  0.2778
25932W        W32382   4.397   7.004  23.951  0.0593  0.0571 -0.1622
25933W        W32383   4.454   7.065  20.174 -0.3430 -0.0907  0.0045
25934W        W32384   5.455   4.376   1.373  0.4166 -0.3247  0.2311
25935W        W32385  26.993   4.057   2.664 -0.2381 -0.0788  0.3240
25936W        W32386  22.332   0.639   2.688 -0.0006  0.2452 -0.0155
25937W        W32387  13.704   2.423   9.987 -0.0499  0.1207 -0.4400
25938W        W32388  20.946   5.552   3.181  0.0367 -0.0622  0.0219
25939W        W32389  23.998   3.149   0.857  0.0412  0.0679 -0.0832
25940W        W32390  12.281   1.548  10.131 -0.1207  0.0712  0.2404
25941W        W32391   8.441   4.680   9.327 -0.2316  0.2117  0.1734
25942W        W32392   8.327   0.959   6.728  0.2696 -0.4474 -0.1223
25943W        W32393   7.939   1.676  24.408  0.2881  0.1791  0.1208
25944W        W32394  25.185   2.261   4.023  0.0667 -0.2997  0.0304
25945W        W32395   7.626   7.703  19.950  0.2394  0.0087  0.1081
25946W        W32396   8.811   3.471  21.917 -0.0837  0.0250  0.0230
25947W        W32397   0.764   3.631   7.456  0.0887 -0.2791 -0.1363
25948W        W32398   4.482   5.270   7.383 -0.0461 -0.0340 -0.0717
25949W        W32399  29.080   0.827  25.690 -0.1995 -0.2103  0.5110
25950W        W32400  19.681   3.222   3.715  0.0262  0.1601  0.3267
25951W        W32401   4.087   5.154   0.818  0.0690 -0.3295  0.1210
25952W        W32402  22.333   0.526   0.287  0.0678 -0.0057 -0.0093
25953W        W32403  25.950   5.294   4.856  0.0333  0.0073  0.3846
25954W        W32404  15.474   6.188   5.446  0.1598 -0.0805  0.0049
25955W        W32405  23.498   1.576  25.932 -0.1260  0.1761 -0.0207
25956W        W32406  19.122   0.834  17.768 -0.0812  0.3829 -0.0010
25957W        W32407   4.902   1.908  20.687  0.0777 -0.2103  0.0461
25958W        W32408   3.346   6.676  22.090  0.3078 -0.1137  0.3131
25959W        W32409   0.914   4.190   2.245 -0.0573 -0.3005 -0.0518
25960W        W32410   7.720   2.028  22.575 -0.1435 -0.0627 -0.1548
25961W        W32411  16.607   4.016   4.382  0.0084  0.2442 -0.0771
25962W        W32412  17.665   0.284  15.352 -0.2284  0.1011  0.1583
25963W        W32413  21.233   5.565   6.843 -0.1868 -0.4163 -0.4478
25964W        W32414  22.566   2.286   4.343  0.0250 -0.1166  0.3386
25965W        W32415  26.727   6.719  17.357  0.2068  0.0684 -0.1243
25966W        W32416  13.851   1.496   2.842 -0.3749  0.0584 -0.1043
25967W        W32417  12.731   0.147   7.218  0.0789 -0.1037  0.1462
25968W        W32418  18.089   7.794  15.290  0.3293 -0.2018  0.1603
25969W        W32419   3.022   5.806   8.952  0.1687  0.0582  0.0715
25970W        W32420   1.621   5.207  18.901  0.2363  0.0508 -0.1991
25971W        W32421  20.570   7.112  22.930 -0.0664 -0.1434 -0.1492
25972W        W32422  12.254   2.577  10.670  0.0343  0.0977  0.3896
25973W        W32423  18.341   3.697  25.717  0.1116 -0.1654 -0.2163
25974W        W32424  28.075   7.537  10.713  0.0779  0.1433  0.0547
25975W        W32425  27.805   1.883   3.444 -0.1699  0.0517 -0.1561
25976W        W32426   5.646   5.727  17.985 -0.1146  0.0391  0.0195
25977W        W32427   7.809   2.325  24.699 -0.1183  0.1623 -0.0053
25978W        W32428   1.097   6.773  23.210  0.2416 -0.2593  0.1930
25979W        W32429  14.872   5.460  14.915  0.0163 -0.1574  0.0132
25980W        W32430  21.765   3.246   8.051  0.0756 -0.0124 -0.0167
25981W        W32431  14.230   3.887  15.647 -0.0905 -0.0203  0.2269
25982W        W32432   0.161   7.655   8.571 -0.0695 -0.1301 -0.0480
25983W        W32433  24.838   3.847  21.964 -0.2008  0.2173 -0.2543
25984W        W32434   0.997   5.049  19.880 -0.1717 -0.2166 -0.0336
25985W        W32435   8.316   4.619   6.471 -0.1040 -0.1003  0.0207
25986W        W32436   8.852   5.400  17.522  0.0516  0.0511  0.1685
25987W        W32437  18.226   7.554   8.285  0.1322  0.2409 -0.3601
25988W        W32438   7.133   1.008  24.135  0.0742 -0.0337  0.0539
25989W        W32439   4.016   6.214  14.953 -0.1353  0.0010 -0.2138
25990W        W32440   5.720   3.824   6.431  0.0356 -0.2685 -0.2075
25991W        W32441  11.300   3.494   9.404  0.1443  0.0589 -0.0310
25992W        W32442  18.138   2.452   5.312  0.1321  0.0447  0.0216
25993W        W32443  23.064   1.197   6.872  0.0153  0.3398  0.1136
25994W        W32444  21.797   2.422   6.416 -0.4705  0.2989 -0.4473
25995W        W32445  25.536   0.330   5.079 -0.4697  0.1078  0.1791
25996W        W32446   6.256   0.477   3.278 -0.0969  0.0561 -0.0638
25997W        W32447   0.213   1.904  22.537  0.0074 -0.0316  0.1571
25998W        W32448  12.466   6.249   5.683 -0.0337  0.2583 -0.3552
25999W        W32449  27.302   0.479   2.361 -0.2006 -0.1461  0.3196
26000W        W32450   5.984   2.990  24.622 -0.3954 -0.4471  0.3286
26001W        W32451   8.857   2.238  22.024 -0.1660 -0.3842  0.0578
26002W        W32452   3.610   2.309   2.029 -0.2487 -0.0522  0.0346
26003W        W32453  14.941   1.199   5.544  0.0251  0.0922 -0.0069
26004W        W32454  14.028   4.345  20.138  0.1433  0.0972  0.3305
26005W        W32455  16.390   5.117   0.511  0.0497  0.1483  0.0097
26006W        W32456   1.909   4.424   9.296  0.0059 -0.0018 -0.1440
26007W        W32457  13.093   1.890  24.187  0.0627 -0.1074  0.1151
26008W        W32458  26.896   3.842  26.191 -0.1406 -0.0525 -0.1309
26009W        W32459  14.321   7.471  19.199 -0.2171 -0.0224  0.3408
26010W        W32460   0.551   4.853  16.866 -0.1600 -0.0516  0.2667
26011W        W32461   5.513   0.851   2.242  0.0906 -0.1452  0.4148
26012W        W32462  25.752   3.267   3.886  0.1800  0.1346  0.1681
26013W        W32463  27.863   0.719  18.279  0.0081 -0.2211 -0.1309
26014W        W32464   5.841   5.835  17.223 -0.0714 -0.0935  0.3184
26015W        W32465  17.305   2.915  25.439  0.0059  0.0038 -0.0823
26016W        W32466   6.621   0.556   7.447  0.1639  0.2828 -0.0241
26017W        W32467  30.404   6.093  23.854  0.0463  0.2353  0.3435
26018W        W32468   7.235   6.968   4.774  0.0892 -0.3188 -0.0390
26019W        W32469  27.975   4.133   3.999 -0.1836 -0.1273  0.0481
26020W        W32470  23.365   3.192  22.119  0.1256 -0.0492 -0.1596
26021W        W32471  10.869   5.741  23.509 -0.0744 -0.0738  0.1550
26022W        W32472  20.515   7.739   2.911 -0.0385 -0.0512 -0.0041
26023W        W32473  22.038   4.793   3.573 -0.1260 -0.1100  0.0369
26024W        W32474   4.585   4.030   9.314 -0.2537 -0.0291 -0.0172
26025W        W32475  28.417   2.498   4.456  0.1940  0.0281  0.1409
26026W        W32476   9.468   5.443  24.659 -0.2156  0.3007 -0.0258
26027W        W32477   2.550   7.318  19.013 -0.0948  0.0847 -0.1752
26028W        W32478  18.770   6.129  20.319 -0.1861  0.1172 -0.0073
26029W        W32479  27.334   2.279  23.120  0.0342  0.1365  0.0209
26030W        W32480  10.720   7.630   2.452  0.1520 -0.1146 -0.1019
26031W        W32481  12.794   3.411  22.456  0.1604 -0.2000  0.1125
26032W        W32482  10.451   5.956  16.432 -0.1257 -0.1333  0.0852
26033W        W32483  29.470   3.704   0.229 -0.2725 -0.1173 -0.0906
26034W        W32484  10.228   7.206  18.374 -0.0481 -0.1871 -0.1055
26035W        W32485  11.603   6.703  24.544  0.0577  0.0404 -0.0233
26036W        W32486  13.003   2.152   5.146 -0.1948  0.0049 -0.1265
26037W        W32487  14.717   1.118   7.097 -0.3261 -0.1109 -0.2534
26038W        W32488   5.193   7.737  19.891  0.1648  0.0551  0.0000
26039W        W32489  29.978   1.345   1.867 -0.2249 -0.0087 -0.0857
26040W        W32490  14.142   4.616  18.849 -0.3952 -0.0264  0.0914
26041W        W32491  12.558   5.176  23.414 -0.1356 -0.4311  0.2658
26042W        W32492   4.545   2.337  21.548  0.2294  0.1124  0.0703
26043W        W32493  10.108   2.805   0.856 -0.3007 -0.4684  0.0401
26044W        W32494   8.142   3.197  22.457 -0.1362 -0.1292 -0.0903
26045W        W32495  10.329   3.639  19.262 -0.1673  0.4703  0.2205
26046W        W32496  21.057   5.889  16.468 -0.3033  0.2473  0.0402
26047W        W32497  27.136   0.673  10.385  0.1954  0.1189 -0.0856
26048W        W32498  15.584   1.341  22.215 -0.1031  0.1588 -0.2327
26049W        W32499  25.723   6.933   6.862 -0.0313  0.0782  0.0229
26050W        W32500  11.562   6.369  23.510  0.0250  0.1340  0.2737
26051W        W32501  27.658   1.941  17.919  0.1648  0.0024 -0.2239
26052W        W32502  13.054   3.097   3.432 -0.0168 -0.1590  0.0757
26053W        W32503   3.609   3.683   0.054  0.3218  0.1661 -0.0372
26054W        W32504  18.156   0.128  23.345  0.0874  0.3626  0.0307
26055W        W32505   9.962   3.821  18.979 -0.0401 -0.0601  0.3601
26056W        W32506   0.535   3.332   4.412 -0.0008  0.1589 -0.1093
26057W        W32507  27.058   5.829  23.359 -0.0997  0.2247 -0.1202
26058W        W32508  30.897   0.004  25.042 -0.1268 -0.2570  0.1305
26059W        W32509   8.645   0.707  21.681 -0.1880 -0.2892  0.3430
26060W        W32510  18.788   2.869  17.561  0.1067 -0.1102  0.3051
26061W        W32511  11.415   2.908  18.751 -0.2058 -0.2086  0.0013
26062W        W32512  23.831   3.111   8.202  0.2992 -0.3213  0.0295
26063W        W32513   8.053   6.899  17.624  0.1887  0.2066  0.2318
26064W        W32514   0.438   0.943  10.601 -0.0677 -0.0225 -0.2297
26065W        W32515  12.651   0.090   8.548  0.0686  0.3567 -0.0294
26066W        W32516  30.103   3.114  16.642  0.3046  0.0994 -0.1620
26067W        W32517   5.815   4.103   0.213  0.0921  0.2727 -0.0046
26068W        W32518   1.855   0.470   1.473 -0.0360 -0.3618 -0.0442
26069W        W32519  10.207   0.957  22.368  0.0763 -0.1095 -0.0048
26070W        W32520  27.419   0.022   4.035  0.0400 -0.2527  0.3913
26071W        W32521  17.874   1.479  24.972 -0.0104  0.1599 -0.1973
26072W        W32522  24.761   4.160   6.386 -0.0905 -0.0110 -0.2598
26073W        W32523  30.002   4.210  15.694 -0.4444  0.1200  0.0709
26074W        W32524  23.534   3.176   3.922 -0.3790 -0.1864 -0.0232
26075W        W32525  11.553   0.010   5.718 -0.1169  0.2103 -0.1421
26076W        W32526  30.968   6.313  25.226  0.1519 -0.0486  0.3965
26077W        W32527  25.036   1.526  11.159 -0.3060 -0.1815 -0.0623
26078W        W32528  29.359   5.813  19.125  0.2949  0.0941  0.2568
26079W        W32529   6.597   5.213   1.781 -0.0261  0.1099  0.0074
26080W        W32530  19.005   3.808   6.597  0.2739 -0.0833 -0.2740
26081W        W32531  18.378   7.497  16.079 -0.1323  0.0554  0.0513
26082W        W32532   9.661   4.877  15.856  0.1731  0.1911  0.0759
26083W        W32533  21.730   7.193  18.985 -0.3765  0.0827 -0.2671
26084W        W32534  15.442   7.167   1.173  0.2195  0.1992 -0.0931
26085W        W32535   8.526   3.526   4.937 -0.0228 -0.0111  0.1842
26086W        W32536  31.037   7.780  17.059  0.2024  0.0153  0.0767
26087W        W32537  19.687   6.776  17.937  0.1670 -0.1507 -0.2323
26088W        W32538  19.373   7.670  17.219 -0.2971 -0.1159  0.1790
26089W        W32539   3.984   4.524   3.121 -0.1991 -0.0540 -0.2108
26090W        W32540   7.140   4.808  19.964 -0.0470 -0.2132 -0.1529
26091W        W32541  15.037   5.147  23.238 -0.0092 -0.1731  0.1487
26092W        W32542  10.467   2.871   4.451 -0.2369 -0.2574  0.1263
26093W        W32543   0.047   5.486  10.731 -0.0095 -0.1145 -0.1065
26094W        W32544  22.686   4.474   2.402 -0.0791 -0.2639  0.0437
26095W        W32545  21.067   4.777  20.390  0.0011 -0.1274  0.2450
26096W        W32546   0.624   2.295   3.887 -0.1519  0.1739  0.0198
26097W        W32547   3.587   0.105  20.237  0.3443  0.5253  0.3723
26098W        W32548  14.416   0.226  22.079  0.1716  0.1465  0.3952
26099W        W32549   6.095   6.289   7.317 -0.2880 -0.0232  0.1988
26100W        W32550  10.552   5.675   1.134 -0.0358  0.2092 -0.2528
26101W        W32551   0.812   2.917  20.175 -0.0575 -0.1816 -0.2335
26102W        W32552  10.765   0.777   7.932 -0.0098  0.0561  0.2603
26103W        W32553  30.864   7.522  23.471  0.1044  0.0152 -0.0803
26104W        W32554  28.203   5.612  21.076 -0.0130 -0.2814  0.1123
26105W        W32555   8.793   4.099  16.892  0.1937 -0.0074  0.4037
26106W        W32556   5.956   0.748   8.885  0.1303 -0.0224  0.1002
26107W        W32557   1.245   1.757  10.633  0.2008  0.3735  0.2295
26108W        W32558  12.463   3.915  17.981  0.0632 -0.1675 -0.2541
26109W        W32559   1.281   1.144   3.596  0.0727 -0.3080 -0.0966
26110W        W32560  27.928   7.284   4.690 -0.1319  0.3153  0.2410
26111W        W32561   3.621   4.683  10.752 -0.1085 -0.0756 -0.2265
26112W        W32562  17.127   6.001  16.666 -0.0757  0.1371 -0.1454
26113W        W32563  13.205   3.036  18.005 -0.0067 -0.2385 -0.1843
26114W        W32564   3.913   3.552   6.889 -0.2193 -0.2278 -0.1179
26115W        W32565   3.651   2.903  19.596 -0.0586  0.2821  0.0453
26116W        W32566   7.550   7.592  21.540 -0.1358  0.1498 -0.0386
26117W        W32567  24.086   1.838  26.202 -0.1303 -0.0338  0.1695
26118W        W32568   5.946   0.021   2.540  0.0011  0.2101  0.0588
26119W        W32569   0.293   2.409   7.541 -0.0261  0.1021  0.1752
26120W        W32570   6.828   5.926   8.772  0.1025 -0.1684 -0.1182
26121W        W32571   6.801   3.135   6.782 -0.1818  0.1482  0.2035
26122W        W32572  13.040   6.659  21.620 -0.0781 -0.0169 -0.2409
26123W        W32573  18.143   2.950   3.465  0.1349 -0.3260  0.4221
26124W        W32574  10.874   5.217  17.167  0.1936 -0.0038  0.0037
26125W        W32575  24.564   7.627  22.299 -0.0449 -0.0492  0.4566
26126W        W32576  19.098   4.769   0.418 -0.2682  0.1907 -0.1002
26127W        W32577  11.211   2.652   9.893 -0.0009  0.3407 -0.1248
26128W        W32578  23.284   2.820   8.794 -0.2658  0.1945  0.2879
26129W        W32579   4.794   5.997   6.011 -0.1816  0.3848 -0.1579
26130W        W32580  10.370   2.575   3.166  0.0034  0.0166  0.0689
26131W        W32581  12.200   6.967  24.000  0.0325 -0.0785  0.0717
26132W        W32582   4.827   7.676   6.825 -0.1069 -0.2603  0.5335
26133W        W32583  15.891   0.125  23.514  0.2215 -0.1439 -0.1502
26134W        W32584  23.794   4.550  21.760  0.0902  0.1816  0.2573
26135W        W32585  10.424   5.435  22.531 -0.0448 -0.2231  0.2119
26136W        W32586  15.406   0.545   4.261  0.0508 -0.1747  0.0021
26137W        W32587   6.532   5.945   7.030 -0.4001 -0.3586  0.1127
26138W        W32588   3.268   2.226  18.145 -0.1743 -0.1976 -0.2544
26139W        W32589  14.398   6.038  10.227  0.0013 -0.0140 -0.1386
26140W        W32590   9.893   2.781   7.538  0.3520 -0.3167 -0.2452
26141W        W32591  29.263   6.734   1.246  0.0289  0.4179  0.3692
26142W        W32592   5.364   3.076  23.434  0.0959 -0.1365  0.2212
26143W        W32593  28.533   1.454  16.656 -0.0977 -0.1025 -0.4781
26144W        W32594  26.170   4.128  21.514 -0.2662  0.0651 -0.1970
26145W        W32595  26.185   6.925  25.021  0.1359  0.0350 -0.2876
26146W        W32596  11.176   1.749  24.970  0.0469 -0.1213  0.1344
26147W        W32597  11.747   3.596  26.250 -0.0809  0.2080  0.0097
26148W        W32598  23.317   0.985   6.218 -0.3315 -0.1017  0.1870
26149W        W32599   3.645   5.020  20.616 -0.1017  0.0640  0.0175
26150W        W32600  29.433   4.221   0.462 -0.0507  0.3596 -0.2277
26151W        W32601  22.025   4.474   9.488 -0.0393 -0.2547  0.0480
26152W        W32602  20.919   5.566  21.553 -0.0115  0.0734 -0.0144
26153W        W32603   4.805   2.467   1.735 -0.0372  0.2367  0.1066
26154W        W32604  20.924   5.138   2.574 -0.0493 -0.0526 -0.3123
26155W        W32605  30.878   5.109  20.896  0.1475 -0.0898 -0.1030
26156W        W32606  26.499   3.883   9.605  0.3090 -0.0538  0.0869
26157W        W32607  15.892   0.897  22.091  0.0281  0.3380  0.0893
26158W        W32608  24.047   5.061  19.109 -0.0417 -0.1371  0.4618
26159W        W32609   9.460   1.678   0.026  0.1844 -0.5156  0.1391
26160W        W32610  11.993   0.512   1.969  0.1091 -0.1232  0.0606
26161W        W32611   8.260   0.812  17.297  0.0771 -0.2726  0.2666
26162W        W32612  28.682   1.385   0.834  0.1443 -0.2406  0.0262
26163W        W32613  10.259   3.600  17.425  0.0080 -0.2448 -0.1751
26164W        W32614   0.257   4.341  17.043  0.0062 -0.2105 -0.0588
26165W        W32615  27.820   3.287   0.831 -0.2786  0.3056 -0.0642
26166W        W32616  12.607   1.530   8.235 -0.0978 -0.1894 -0.5493
26167W        W32617  26.254   0.913  22.780 -0.0319  0.0718 -0.2275
26168W        W32618  27.208   3.103   7.204  0.0119 -0.0237 -0.1438
26169W        W32619  31.062   0.920  24.595  0.0698 -0.1156  0.2347
26170W        W32620  20.048   4.075  20.732 -0.1891  0.2629  0.5036
26171W        W32621  18.700   5.535   9.528 -0.0240 -0.2909  0.0238
26172W        W32622   7.512   3.150   4.766 -0.2699 -0.0298 -0.0983
26173W        W32623  20.756   6.715  24.828  0.0014  0.1754 -0.2983
26174W        W32624  19.916   5.456  24.822  0.0193  0.3271 -0.2730
26175W        W32625  18.631   4.201   4.058  0.0444  0.2241  0.0922
26176W        W32626  17.750   4.598   3.030 -0.1379 -0.1952  0.3926
26177W        W32627  26.675   4.439  16.801 -0.1719 -0.1424  0.1471
26178W        W32628  16.748   0.688   2.493 -0.1443 -0.1061 -0.1365
26179W        W32629  20.595   1.762   7.055  0.1715 -0.0490  0.1914
26180W        W32630  15.970   2.101   6.316  0.2013 -0.0875 -0.2075
26181W        W32631   6.758   3.585  24.075 -0.3481  0.1731 -0.0433
26182W        W32632  17.812   3.698   3.275 -0.0281 -0.1219 -0.2793
26183W        W32633  22.463   6.763   3.623  0.1765  0.0127  0.3488
26184W        W32634   9.417   4.616  24.840 -0.0622  0.0298  0.0823
26185W        W32635   3.046   7.792  17.661 -0.3078  0.0172 -0.1753
26186W        W32636  25.471   7.450   6.248 -0.0548  0.1716 -0.1787
26187W        W32637   5.521   0.811   9.991  0.0321  0.0551  0.1436
26188W        W32638  23.614   0.614  11.838 -0.0775 -0.2346  0.4252
26189W        W32639  25.959   2.664   5.891  0.1893  0.0938 -0.0364
26190W        W32640  20.499   0.796  10.337  0.0426 -0.1550  0.1646
26191W        W32641   8.759   4.404   1.357 -0.0692 -0.4160 -0.2334
26192W        W32642  27.327   4.650  19.502  0.1098 -0.1897  0.0173
26193W        W32643  28.737   5.556   1.790  0.1535 -0.0818 -0.0238
26194W        W32644   4.774   5.182  17.188 -0.3205 -0.3112  0.2846
26195W        W32645  27.630   5.031  23.451 -0.0005 -0.0491  0.4286
26196W        W32646  10.933   0.269  15.632 -0.0750  0.0940  0.1084
26197W        W32647   3.526   6.118  18.094  0.2124 -0.4038  0.0134
26198W        W32648   2.992   6.541  22.413 -0.0927 -0.2313  0.2288
26199W        W32649  27.945   4.781  23.865 -0.0266  0.2066  0.0215
26200W        W32650  28.779   5.413   4.259 -0.2195  0.1519 -0.0711
26201W        W32651   5.458   2.691  17.634  0.1018 -0.1906  0.0329
26202W        W32652   4.251   7.794  22.440  0.0183  0.4899  0.1194
26203W        W32653   4.403   6.611   9.016 -0.0281  0.0452 -0.0324
26204W        W32654  17.622   6.860   9.438  0.1171  0.0642  0.3408
26205W        W32655  28.294   1.591  23.895  0.1284 -0.2690  0.2828
26206W        W32656  26.394   6.738   8.971 -0.0428  0.0787  0.1998
26207W        W32657  18.764   4.438   0.630  0.0173 -0.4137 -0.0496
26208W        W32658  20.150   3.558  23.899 -0.1359  0.0367  0.2312
26209W        W32659  15.038   5.375   8.223  0.1671  0.1256  0.2985
26210W        W32660  11.461   4.818   5.313 -0.2081  0.0084 -0.1988
26211W        W32661  19.051   0.357  16.439  0.1705  0.0352 -0.3707
26212W        W32662   4.998   5.338   2.342 -0.0185  0.0289 -0.0236
26213W        W32663  14.890   2.335  18.662  0.1245 -0.1556  0.0921
26214W        W32664  10.945   7.301   7.145  0.1992  0.3761 -0.0837
26215W        W32665  17.708   5.308  15.060  0.2308 -0.3205  0.0224
26216W        W32666   2.206   7.758   5.842  0.1468  0.1311  0.0517
26217W        W32667  29.159   6.461  17.589  0.0467 -0.3191 -0.1149
26218W        W32668  26.108   5.560   9.412  0.2256  0.1501 -0.2283
26219W        W32669   1.280   6.189   6.326  0.3549  0.1976  0.0183
26220W        W32670  27.482   1.325  25.144 -0.1640 -0.2572 -0.2357
26221W        W32671  13.028   3.371   8.614 -0.0650  0.1238  0.0546
26222W        W32672  21.491   3.484  22.332  0.1448 -0.1196 -0.0606
26223W        W32673  21.360   1.716  11.606 -0.2036  0.0039 -0.1665
26224W        W32674  14.854   5.697   8.714 -0.1775 -0.5104  0.0176
26225W        W32675  27.540   6.130  10.917 -0.0494 -0.2610  0.1115
26226W        W32676  21.813   1.722  16.803 -0.3150 -0.0682  0.0823
26227W        W32677   5.868   1.900  16.629  0.0664 -0.0125  0.1305
26228W        W32678  29.541   2.309   7.031 -0.4565 -0.0527  0.0392
26229W        W32679  25.032   0.451   8.939  0.0677  0.2497  0.0312
26230W        W32680  24.717   3.297  23.085 -0.2163 -0.1777  0.0013
26231W        W32681  24.259   6.998   0.586  0.2012  0.0042 -0.2523
26232W        W32682   9.099   6.931  10.079  0.0420 -0.2364  0.0652
26233W        W32683  30.740   2.444  26.274  0.1861  0.1765 -0.0946
26234W        W32684   0.483   3.122   6.290  0.0703  0.0914  0.0395
26235W        W32685  30.821   2.520  24.603 -0.2368  0.1592  0.0727
26236W        W32686   7.695   2.238  10.707 -0.1190  0.1085  0.0780
26237W        W32687  20.604   0.509  20.922 -0.2312 -0.5248 -0.0542
26238W        W32688  24.596   5.563   8.390 -0.1507 -0.1835  0.0875
26239W        W32689   1.028   2.861   3.399 -0.0379  0.1633 -0.3338
26240W        W32690  25.294   3.292  24.232  0.1686  0.0038  0.1657
26241W        W32691   9.154   7.336   9.826 -0.0952 -0.1141  0.0056
26242W        W32692  13.193   7.113  10.342 -0.1711  0.0515  0.0030
26243W        W32693   9.758   0.948   8.755 -0.0762  0.2009  0.1215
26244W        W32694   9.662   2.125   8.697 -0.1113  0.1042 -0.0694
26245W        W32695   1.089   4.751  19.485 -0.2821  0.1276  0.0310
26246W        W32696   5.972   4.405  25.678 -0.0499  0.1217 -0.0851
26247W        W32697  20.333   0.615   7.053  0.1467 -0.2885  0.2985
26248W        W32698   5.275   4.891  20.452 -0.1479 -0.1233  0.2224
26249W        W32699   6.170   4.349  16.463  0.0640 -0.3552 -0.1628
26250W        W32700   7.004   7.081   7.048  0.0129  0.1521 -0.2512
26251W        W32701  18.585   1.702   5.803  0.0198  0.0786 -0.1007
26252W        W32702  29.438   4.548   6.797 -0.4186 -0.1538  0.0725
26253W        W32703  15.716   5.459  25.470  0.2277  0.0168 -0.1691
26254W        W32704   0.864   1.972  16.185 -0.0002 -0.1021  0.0215
26255W        W32705  20.099   7.342   9.844 -0.2629 -0.0894 -0.0284
26256W        W32706   2.102   1.584   8.241 -0.2008  0.0296  0.2005
26257W        W32707  22.442   3.016  25.493 -0.0455 -0.2710  0.0833
26258W        W32708  27.189   6.348  22.431 -0.2156 -0.1734 -0.1737
26259W        W32709  29.446   0.201   8.921 -0.1490  0.2804  0.0905
26260W        W32710  23.850   3.032   1.376 -0.3447  0.1351  0.0623
26261W        W32711  26.658   5.368   1.399  0.0989  0.0611  0.3852
26262W        W32712  22.320   0.254   8.702  0.0134 -0.1198 -0.0248
26263W        W32713  17.067   1.028   7.407  0.0564  0.0471  0.3259
26264W        W32714   0.853   4.377  18.685  0.1167  0.2172 -0.0753
26265W        W32715  26.745   3.128   6.123 -0.3353  0.1296  0.0732
26266W        W32716  15.601   6.527  23.444 -0.0511  0.1075  0.0495
26267W        W32717  24.236   0.129  11.316 -0.0155  0.2537  0.0785
26268W        W32718   1.787   2.883  19.875  0.1061 -0.0566 -0.5174
26269W        W32719  18.374   4.612   4.735  0.1489  0.1110  0.2296
26270W        W32720  17.115   7.409  20.041 -0.1440  0.0041 -0.2505
26271W        W32721   9.184   3.276  19.921 -0.0259  0.1064  0.1528
26272W        W32722  28.866   3.047  15.299  0.0242 -0.1340  0.0810
26273W        W32723  13.405   0.737  26.361 -0.0382 -0.0593  0.0030
26274W        W32724   8.408   6.401  19.425 -0.0370  0.0416 -0.2438
26275W        W32725  29.889   3.144   4.557  0.3534 -0.1003  0.0344
26276W        W32726  21.733   4.625   7.574  0.3895 -0.0271  0.0218
26277W        W32727   9.278   0.217  21.680 -0.5132 -0.1030 -0.2169
26278W        W32728  24.407   7.425  17.597  0.0581 -0.0539 -0.0239
26279W        W32729  30.178   6.332  10.559 -0.0232 -0.4117  0.0033
26280W        W32730   7.427   4.311   5.596 -0.1208 -0.0768 -0.1839
26281W        W32731  14.804   1.513  16.506  0.2494 -0.0730  0.0334
26282W        W32732  17.587   6.217  19.769  0.1755 -0.0266  0.1363
26283W        W32733  25.796   1.929   6.807 -0.0587 -0.1674 -0.0886
26284W        W32734  22.935   3.496  17.807  0.1476 -0.4867 -0.3123
26285W        W32735  17.885   6.937   4.008 -0.0763  0.0309 -0.2838
26286W        W32736   8.545   5.262   9.100  0.2958 -0.0002  0.2070
26287W        W32737   3.977   4.887  17.726  0.2722  0.4157  0.0669
26288W        W32738  28.643   4.857   2.267  0.0170 -0.1581  0.0532
26289W        W32739   9.159   7.115  22.750  0.1992 -0.0726 -0.1004
26290W        W32740  26.913   7.554  16.437 -0.0706  0.0175 -0.1824
26291W        W32741  17.262   6.546  19.419  0.0670 -0.2767  0.2662
26292W        W32742  24.378   1.626  22.289  0.0119 -0.2304 -0.2012
26293W        W32743  15.023   1.133   8.413 -0.1238  0.1651 -0.2196
26294W        W32744   4.971   6.932   5.881 -0.0629  0.1712  0.0001
26295W        W32745  23.784   5.515   7.126 -0.1912  0.0543 -0.1925
26296W        W32746   0.273   0.710  24.520  0.1255 -0.1737 -0.1019
26297W        W32747  11.787   6.877  18.776 -0.0916  0.0005  0.0541
26298W        W32748   8.195   5.167   7.438  0.4757 -0.1675  0.0926
26299W        W32749  29.584   4.333  15.429 -0.0044 -0.1696  0.1606
26300W        W32750  29.492   1.378   1.081 -0.0035  0.0789 -0.1852
26301W        W32751   2.759   2.542   0.510  0.0030  0.0555 -0.0395
26302W        W32752  14.707   2.570   9.250  0.2299  0.1377  0.0334
26303W        W32753   6.711   7.746  25.226  0.0064 -0.0411  0.0354
26304W        W32754   9.282   2.385  17.789  0.0923 -0.0699  0.1447
26305W        W32755  10.667   3.785  26.067  0.3983  0.1050  0.1013
26306W        W32756   2.148   0.896  19.089  0.0928  0.0522 -0.0226
26307W        W32757  24.638   5.908   8.777 -0.0271  0.1237 -0.0499
26308W        W32758  10.065   6.644   8.695 -0.2708 -0.1840 -0.1806
26309W        W32759   3.608   5.790   6.831 -0.2646  0.1293  0.0573
26310W        W32760  20.887   1.042  20.245  0.2067  0.2078  0.0643
26311W        W32761   5.586   5.067  19.246 -0.1684 -0.1624 -0.2570
26312W        W32762   4.974   4.971  16.776 -0.1351 -0.2546 -0.1865
26313W        W32763  11.891   0.594  25.000  0.2838 -0.3452  0.0908
26314W        W32764   0.857   0.658   6.753 -0.0930  0.2348  0.1129
26315W        W32765  22.434   7.671   3.915 -0.0737 -0.0890 -0.2882
26316W        W32766  25.988   7.105   7.282 -0.4072  0.0146  0.0298
26317W        W32767   5.327   7.460  20.310 -0.2821  0.0164 -0.1041
26318W        W32768  13.909   3.261   7.438  0.1848  0.1341 -0.3738
26319W        W32769  21.798   2.119  10.235 -0.0857  0.0936 -0.1720
26320W        W32770  14.053   4.190   2.487  0.2133  0.1384 -0.2623
26321W        W32771  13.737   3.434  20.317  0.1802  0.2552  0.0655
26322W        W32772  12.526   6.100  19.028  0.3696 -0.1846  0.0898
26323W        W32773  22.611   5.089  11.155  0.0815  0.1983 -0.0732
26324W        W32774  13.966   1.771  22.432 -0.0112 -0.1629  0.1869
26325W        W32775  13.981   4.003   4.469  0.1608 -0.2561  0.1187
26326W        W32776  18.642   1.365   1.792 -0.1796  0.0328 -0.1933
26327W        W32777  24.917   7.036  23.794  0.0862 -0.1045 -0.0149
26328W        W32778   3.748   4.612  20.311 -0.0635  0.0108  0.0120
26329W        W32779  24.177   3.288   8.473 -0.2106  0.0174  0.1054
26330W        W32780   0.136   7.556  19.300 -0.1284  0.1140  0.1236
26331W        W32781  16.269   0.473  20.951 -0.1573 -0.1717  0.3146
26332W        W32782  21.560   0.160  26.383 -0.0802  0.3972  0.0537
26333W        W32783  21.310   7.776   4.475 -0.1632 -0.0350 -0.0508
26334W        W32784  19.766   0.850  16.297  0.0034  0.3304 -0.3850
26335W        W32785  29.431   4.911  23.819 -0.2562  0.0866  0.2022
26336W        W32786   2.512   2.259   2.668  0.1236  0.2604 -0.0869
26337W        W32787  24.937   2.542   6.846  0.2645 -0.0331 -0.3707
26338W        W32788   3.695   3.745   8.897 -0.1270  0.1128  0.0636
26339W        W32789  10.655   5.339  17.986  0.1527  0.0707 -0.2999
26340W        W32790  12.673   6.533  17.798 -0.0968 -0.1526  0.3025
26341W        W32791  18.556   5.155  10.153 -0.1106 -0.0051  0.3627
26342W        W32792  24.736   6.896   4.942  0.0752 -0.3187 -0.1999
26343W        W32793   3.607   6.836   0.035 -0.0105 -0.1333  0.0447
26344W        W32794  15.855   5.943  15.688  0.0945 -0.2015  0.3437
26345W        W32795  26.810   3.031   0.750  0.0589  0.1524  0.0271
26346W        W32796  23.077   1.726  10.479  0.3083  0.1020 -0.0106
26347W        W32797  17.235   3.511   5.433  0.0851 -0.2891 -0.2904
26348W        W32798  20.236   6.538  10.104 -0.3638 -0.3002  0.1286
26349W        W32799  21.083   6.520   7.875 -0.1685 -0.2470 -0.2758
26350W        W32800  11.888   1.573  22.129  0.1160  0.1909  0.1751
26351W        W32801  18.041   0.970  20.537 -0.0513  0.0134  0.0165
26352W        W32802   1.840   2.870  26.412 -0.2722 -0.1024 -0.0204
26353W        W32803   3.122   3.906   6.324 -0.0268  0.0376 -0.1753
26354W        W32804  21.129   6.469  19.477 -0.2839 -0.3595  0.2329
26355W        W32805   7.998   2.878   5.104 -0.1197  0.0336 -0.0137
26356W        W32806  16.613   2.668  16.502 -0.0163  0.1454  0.3247
26357W        W32807  30.030   5.070   2.742  0.0142 -0.1736  0.0261
26358W        W32808  13.144   4.314  18.303  0.3446 -0.3222 -0.0868
26359W        W32809   7.322   3.618  23.195  0.1715  0.0048  0.0762
26360W        W32810  27.518   3.220  22.790  0.1775  0.1649  0.1118
26361W        W32811  12.848   4.578  19.681  0.3638  0.0763  0.0304
26362W        W32812  15.384   1.015   3.958 -0.1802  0.2161 -0.1370
26363W        W32813   9.012   4.252  18.230  0.0019 -0.0436  0.2462
26364W        W32814  12.786   1.234  25.046  0.3338  0.1649  0.1417
26365W        W32815   2.982   4.287  18.228 -0.0551 -0.2392 -0.3175
26366W        W32816  10.400   3.764   0.152 -0.1103  0.0369  0.2568
26367W        W32817  20.367   4.229   8.988  0.3021 -0.2790 -0.2121
26368W        W32818  28.420   0.947   0.897  0.1099  0.4324 -0.1681
26369W        W32819  19.596   0.226  10.970  0.0295 -0.1530  0.0427
26370W        W32820  20.863   5.910   1.577 -0.2732 -0.2070  0.3179
26371W        W32821  26.462   3.256   5.447  0.1594  0.1196  0.1228
26372W        W32822   8.289   1.416  22.239 -0.0642  0.1963  0.0641
26373W        W32823  12.016   4.352   1.096  0.0640 -0.1672 -0.0037
26374W        W32824   2.079   4.059  25.109 -0.1576 -0.0063  0.0967
26375W        W32825   9.274   6.828  16.671  0.1917  0.3983  0.0841
26376W        W32826   0.061   2.805  23.564  0.3064 -0.0176  0.1169
26377W        W32827   8.163   0.098   1.661  0.0175 -0.1839 -0.1473
26378W        W32828  13.292   2.122  10.700 -0.0934 -0.0111 -0.1786
26379W        W32829  18.618   6.848  22.132  0.0543  0.2942  0.3158
26380W        W32830  18.852   5.481   8.133 -0.0216  0.1995 -0.2280
26381W        W32831   9.387   4.147  24.394  0.1701 -0.2337  0.0719
26382W        W32832   2.779   6.941   9.158 -0.2092  0.2782  0.3950
26383W        W32833  26.087   2.649  25.467 -0.3179 -0.0631  0.3350
26384W        W32834  29.094   1.597   8.590  0.1719  0.1402 -0.1548
26385W        W32835  30.163   6.452  18.055  0.0254 -0.0804  0.0988
26386W        W32836  22.839   1.136   5.983 -0.0115  0.0987  0.5075
26387W        W32837  26.021   4.386   8.547 -0.0404  0.2755  0.1263
26388W        W32838   1.994   2.333   9.492  0.0976 -0.1240  0.0954
26389W        W32839  14.411   7.414  20.995  0.0015 -0.2141 -0.1529
26390W        W32840  13.746   1.304  25.152 -0.4394 -0.0780 -0.1216
26391W        W32841  18.290   3.497   2.283  0.3158  0.1311 -0.0434
26392W        W32842  17.598   6.684  15.640  0.1733  0.2173 -0.0159
26393W        W32843  22.929   4.212   5.595  0.1131 -0.1046 -0.0821
26394W        W32844  23.561   4.354   9.149  0.0965 -0.1156  0.0517
26395W        W32845  16.076   2.381  18.083  0.0478  0.1555 -0.0716
26396W        W32846   6.089   7.020   0.781  0.0344 -0.0628 -0.3761
26397W        W32847  15.292   4.230   8.339 -0.1418  0.2596  0.1886
26398W        W32848  18.801   3.190   8.053  0.1086  0.1968 -0.5112
26399W        W32849  24.183   1.904  11.417 -0.0136  0.0066  0.2824
26400W        W32850   0.813   5.839  25.425 -0.4018  0.0622 -0.2078
26401W        W32851   5.484   3.758   5.860 -0.2590  0.2591  0.1458
26402W        W32852  26.918   5.202   1.874  0.2066 -0.3296 -0.0303
26403W        W32853   4.921   2.050  19.789 -0.0230  0.2024 -0.0890
26404W        W32854   9.301   5.483  26.125  0.0188 -0.0740 -0.0055
26405W        W32855  24.458   7.344  18.164 -0.1889 -0.0008 -0.1695
26406W        W32856  30.391   6.445   2.960 -0.0186 -0.0409  0.1318
26407W        W32857  14.957   2.598   8.117  0.1389 -0.2077  0.0971
26408W        W32858  24.516   0.620   9.663  0.1347  0.1834  0.3116
26409W        W32859   9.721   3.614   8.591  0.1515 -0.1051 -0.1945
26410W        W32860  21.340   0.915   1.124 -0.1690  0.0829 -0.2009
26411W        W32861  19.304   3.491  21.434  0.1986  0.2266  0.0085
26412W        W32862   6.153   6.093  16.822  0.0617  0.0622  0.0148
26413W        W32863   7.964   4.471  24.866  0.0642  0.1680  0.0720
26414W        W32864   6.678   4.003  22.063 -0.0789  0.0712  0.2041
26415W        W32865  19.747   0.878  10.129 -0.1590 -0.1379  0.2753
26416W        W32866  16.616   2.464   8.284 -0.0687 -0.2747 -0.2920
26417W        W32867  18.720   7.528  26.092  0.0398  0.2150 -0.1140
26418W        W32868  25.181   0.651  20.823 -0.2619 -0.3312 -0.0518
26419W        W32869   8.179   5.972  20.833 -0.1291 -0.0416  0.0010
26420W        W32870  13.079   7.635  22.463  0.0976  0.1235  0.2315
26421W        W32871   3.112   3.448  21.727 -0.2218  0.2960 -0.0771
26422W        W32872  23.154   5.060  17.601  0.1322 -0.1020  0.0736
26423W        W32873  13.384   7.693  24.032  0.1302  0.0231  0.0105
26424W        W32874  22.822   5.970  17.782  0.1769  0.3420  0.0323
26425W        W32875  10.497   1.117  15.535 -0.0231 -0.2119 -0.2679
26426W        W32876  15.281   1.428   2.126  0.0513  0.0176 -0.0654
26427W        W32877  22.363   1.074   5.726  0.0544  0.1126 -0.1735
26428W        W32878  30.944   7.412   7.347 -0.5266  0.0871 -0.1435
26429W        W32879   0.639   5.088  23.717 -0.0393  0.1750  0.2298
26430W        W32880  14.685   4.522  21.733  0.4716 -0.2237  0.1941
26431W        W32881  19.296   7.256  19.598  0.1895  0.1008 -0.0980
26432W        W32882  20.683   1.141   0.795  0.1968  0.2128 -0.1660
26433W        W32883  30.204   6.277  23.343  0.3292 -0.0838 -0.2693
26434W        W32884  10.114   7.504  18.981  0.3052  0.0315 -0.0046
26435W        W32885  31.010   4.488   1.246  0.2807 -0.1160  0.0365
26436W        W32886  15.006   7.747   9.369  0.0811 -0.2202  0.1545
26437W        W32887  17.920   0.521   5.220 -0.1249  0.0401 -0.1754
26438W        W32888  11.229   3.523  22.030 -0.0896  0.0483  0.0062
26439W        W32889  15.644   6.000   6.580  0.1020 -0.0071 -0.0006
26440W        W32890  14.178   0.217   7.362 -0.2362 -0.0108  0.0217
26441W        W32891  30.412   7.000   0.490  0.3618  0.0176  0.1552
26442W        W32892  21.031   4.196   6.471 -0.2492 -0.0789  0.0008
26443W        W32893   1.672   4.944  16.937 -0.2627 -0.0896  0.0416
26444W        W32894  22.134   1.312  23.647 -0.0448 -0.0027 -0.0732
26445W        W32895   3.277   5.130   3.255  0.0709 -0.3384 -0.3367
26446W        W32896  30.963   3.257   7.374  0.0737  0.2648 -0.0917
26447W        W32897   4.726   5.580   3.490  0.0467 -0.0626 -0.1382
26448W        W32898   8.172   3.990  18.211 -0.2339 -0.2168 -0.0948
26449W        W32899  10.909   6.830   7.102 -0.4542  0.3814  0.0347
26450W        W32900  30.615   7.416   2.602 -0.2072 -0.0119  0.2730
26451W        W32901   4.088   1.643  22.748  0.0980 -0.1261 -0.1097
26452W        W32902  29.502   0.437  20.417 -0.1055  0.2991 -0.0971
26453W        W32903   8.552   3.769   5.876 -0.0148  0.3156  0.0617
26454W        W32904  16.938   4.311   8.579 -0.0551  0.1334  0.0503
26455W        W32905  29.212   6.310  15.103  0.2349  0.2712 -0.2089
26456W        W32906  19.462   7.704  19.725  0.2053  0.0773 -0.0788
26457W        W32907  11.899   6.769  16.007 -0.0716  0.0489  0.3862
26458W        W32908   2.383   3.616   0.538  0.2399 -0.2424  0.2556
26459W        W32909   7.588   3.524   3.990  0.0271  0.3675  0.2869
26460W        W32910   1.585   2.942   9.979 -0.1763  0.0803 -0.0658
26461W        W32911  30.773   1.972   5.887  0.0855 -0.0976 -0.1018
26462W        W32912  14.645   4.729   1.571 -0.1470  0.1414 -0.0897
26463W        W32913  11.305   5.215  24.944  0.1490  0.2789 -0.0079
26464W        W32914  10.728   2.063   0.964 -0.2750  0.2825 -0.0011
26465W        W32915  16.774   4.265  19.411 -0.2446 -0.2665  0.1842
26466W        W32916  21.498   5.016  16.682  0.4183  0.2586  0.2427
26467W        W32917   2.797   1.012  20.920 -0.0824  0.0633  0.2499
26468W        W32918  17.849   1.759   9.324  0.1307  0.0801  0.4204
26469W        W32919   0.061   0.011   3.329 -0.1297  0.0065  0.0719
26470W        W32920  28.409   1.850  22.067 -0.1092  0.1480  0.2401
26471W        W32921  23.728   7.024  20.317  0.0476 -0.1042 -0.2588
26472W        W32922  29.148   0.913   6.330 -0.0507 -0.0659 -0.0021
26473W        W32923  13.141   6.984   6.011 -0.0545  0.0212  0.0032
26474W        W32924  21.506   3.301  19.878 -0.1047  0.1014 -0.3938
26475W        W32925  23.621   6.284  17.041  0.3621 -0.0606  0.0488
26476W        W32926  28.432   0.698   2.158  0.0137  0.3334 -0.1609
26477W        W32927  20.792   2.202  24.234  0.0474 -0.0052 -0.1884
26478W        W32928  12.695   3.677  20.707 -0.0982 -0.0790 -0.2529
26479W        W32929  12.631   4.822   2.512  0.0293  0.2402  0.1269
26480W        W32930  14.140   0.028   2.877  0.1377 -0.2003  0.0341
26481W        W32931  17.267   5.278  24.778 -0.2466 -0.2349 -0.0632
26482W        W32932  22.526   0.046   1.110 -0.3053 -0.1677  0.2755
26483W        W32933  22.557   3.252   3.968  0.1582  0.3805 -0.1458
26484W        W32934  24.320   6.822   2.787  0.3291  0.0150  0.0022
26485W        W32935   8.348   6.701   2.483  0.1717 -0.0534 -0.1122
26486W        W32936  21.284   1.672  22.063 -0.1124 -0.2608  0.1867
26487W        W32937  31.038   0.262  16.522 -0.0077  0.0488 -0.0523
26488W        W32938  29.416   4.697   9.559 -0.0153  0.2593 -0.2131
26489W        W32939  19.370   5.432   8.423 -0.0140 -0.0470  0.0592
26490W        W32940   4.366   0.103  23.737  0.3761  0.0063  0.1138
26491W        W32941  23.638   2.147   3.532 -0.2294 -0.2716  0.2700
26492W        W32942  27.169   4.756   6.104 -0.3186  0.4499 -0.2492
26493W        W32943  28.517   2.097  20.328  0.1158 -0.0511 -0.1638
26494W        W32944   9.469   2.321   9.848 -0.1348 -0.2601  0.0880
26495W        W32945  19.183   7.573  26.279  0.0553  0.2464 -0.0037
26496W        W32946  16.496   6.247  17.638  0.3309  0.1478  0.3032
26497W        W32947   1.258   2.665   0.249 -0.1476 -0.2774  0.0947
26498W        W32948  12.006   2.253  19.959  0.0031  0.0891  0.2016
26499W        W32949   0.913   2.737   4.592  0.0640  0.0973 -0.1315
26500W        W32950  11.037   4.766  21.715 -0.1747 -0.1403 -0.0887
26501W        W32951  30.226   7.449  17.298 -0.1000 -0.0229  0.2337
26502W        W32952   9.715   5.018   3.474  0.3793 -0.1251  0.1931
26503W        W32953   5.901   6.078   0.529 -0.1013  0.0865 -0.0164
26504W        W32954  10.661   4.113  15.274  0.2237  0.1492 -0.1851
26505W        W32955   2.710   0.000  21.892 -0.1109  0.1665  0.2388
26506W        W32956  27.825   7.623  16.951  0.0132 -0.4867 -0.1529
26507W        W32957   5.752   5.070   3.811  0.1342  0.2727 -0.0298
26508W        W32958  26.873   1.506   6.149  0.1531 -0.1673  0.0829
26509W        W32959   4.104   4.684   0.731 -0.1893  0.0315 -0.1902
26510W        W32960  30.193   7.756  17.632 -0.2258  0.1077 -0.0696
26511W        W32961  16.467   2.424  18.464  0.0221 -0.0779  0.0651
26512W        W32962   4.011   3.936   8.516  0.0745 -0.0232 -0.1846
26513W        W32963  22.598   1.694  23.224 -0.1827  0.0610  0.1385
26514W        W32964  26.188   2.773  21.092 -0.1805 -0.0471 -0.1156
26515W        W32965  30.291   1.675  18.724 -0.2201  0.1257  0.0167
26516W        W32966  21.347   1.115  17.363 -0.0053  0.0926 -0.3058
26517W        W32967  19.966   6.289   4.145  0.0614 -0.1997  0.0035
26518W        W32968   7.692   5.601  17.957 -0.1856 -0.1481 -0.1116
26519W        W32969  15.150   7.478   2.904  0.0320  0.0023  0.1094
26520W        W32970  15.851   3.432  24.852  0.0688 -0.3287 -0.2034
26521W        W32971  28.927   1.777   1.705 -0.0782 -0.1951  0.0509
26522W        W32972  26.896   4.792   7.948 -0.2069 -0.1093 -0.2856
26523W        W32973  20.216   0.739   2.184 -0.0468 -0.0841 -0.2359
26524W        W32974   0.019   1.243   0.089  0.0799 -0.2335  0.2516
26525W        W32975   2.865   4.922   9.769 -0.1982  0.0742  0.1314
26526W        W32976   7.562   4.554  23.995 -0.3026  0.1452  0.0935
26527W        W32977  27.258   1.706  23.904 -0.0358 -0.1817  0.0702
26528W        W32978   9.858   6.508  17.147  0.1622 -0.1038 -0.0269
26529W        W32979  18.805   2.874   0.780 -0.0733 -0.1624  0.1272
26530W        W32980  16.352   7.294  14.746  0.3529 -0.2510 -0.2306
26531W        W32981   5.770   3.890  24.556 -0.0274  0.1426  0.0136
26532W        W32982  29.854   4.356   8.486  0.1292 -0.1782  0.0571
26533W        W32983  23.367   4.632  20.340 -0.1572 -0.1601 -0.4630
26534W        W32984  27.742   7.295   5.314  0.1675 -0.1654 -0.2517
26535W        W32985  14.348   3.623   6.866 -0.1204 -0.0449  0.2144
26536W        W32986  22.842   0.086   4.167  0.2578 -0.0643 -0.3104
26537W        W32987  14.948   2.656  16.692  0.1418 -0.2778  0.2148
26538W        W32988  29.309   2.374  23.126  0.0302  0.1053  0.1952
26539W        W32989   2.090   3.883   9.440 -0.2689  0.1247 -0.0271
26540W        W32990  12.579   5.947   6.730  0.1815  0.1017  0.0326
26541W        W32991   6.723   4.021   0.381  0.3194  0.4412  0.1213
26542W        W32992  18.238   5.575   9.906 -0.1884 -0.0425  0.0707
26543W        W32993   2.232   3.953  21.805 -0.5355  0.0876 -0.0159
26544W        W32994   8.757   7.289   9.228  0.1606 -0.1849 -0.1991
26545W        W32995  28.034   0.064  26.408 -0.0889 -0.0657 -0.1168
26546W        W32996  22.566   3.580   0.086 -0.4431 -0.2674  0.0557
26547W        W32997   2.041   0.629  20.360 -0.4200 -0.0380  0.0402
26548W        W32998   6.737   5.540  16.318 -0.0242  0.0956  0.2143
26549W        W32999   4.592   3.559   7.953 -0.0212  0.3229 -0.0753
26550W        W33000  30.362   5.051   8.705  0.0129  0.1233 -0.1910
26551W        W33001  30.066   7.761  21.195 -0.0110  0.3981  0.0715
26552W        W33002   6.414   0.569   4.779 -0.0755 -0.0283  0.2540
26553W        W33003   6.839   3.027   2.839 -0.3266  0.0248 -0.0280
26554W        W33004  20.024   7.526   8.403  0.2762  0.0880 -0.3165
26555W        W33005   1.702   4.129   1.734  0.0118  0.0505 -0.0697
26556W        W33006  10.540   7.770   5.950  0.1187  0.3614  0.0503
26557W        W33007   1.918   5.701  22.898  0.2909 -0.1692 -0.1756
26558W        W33008  27.521   7.505   0.305  0.1995  0.1309  0.2837
26559W        W33009  14.378   2.349  17.540 -0.0411  0.1152 -0.0576
26560W        W33010   0.573   5.537  10.814  0.2100 -0.1663  0.0929
26561W        W33011   2.704   2.287  23.222  0.1847  0.0051 -0.1826
26562W        W33012   8.104   6.652   0.771 -0.1285 -0.1023  0.0811
26563W        W33013  16.257   2.331   7.925 -0.2824  0.0330 -0.2587
26564W        W33014  20.112   6.981  26.393 -0.1250  0.0586 -0.0579
26565W        W33015  28.849   4.960   4.537  0.0861 -0.3119 -0.1226
26566W        W33016  30.215   1.650   6.773  0.0823 -0.1076  0.3291
26567W        W33017   2.151   0.132  21.736 -0.0666  0.0481  0.0193
26568W        W33018  19.375   0.461  25.080  0.2727  0.0114  0.2302
26569W        W33019  26.771   1.682   7.714  0.0181  0.0341 -0.0472
26570W        W33020  26.034   5.829   3.549  0.1124  0.1105 -0.0169
26571W        W33021   9.799   2.021  21.696  0.1642 -0.1175 -0.1743
26572W        W33022  30.554   3.446  26.387  0.2147 -0.1269 -0.2277
26573W        W33023  14.204   5.460  23.139 -0.0545 -0.1240  0.3631
26574W        W33024   0.280   0.411  21.919  0.2482  0.0080  0.1642
26575W        W33025  12.903   1.359   9.601 -0.2743  0.0408 -0.1882
26576W        W33026   5.500   4.224  19.416  0.2655  0.0486  0.1723
26577W        W33027  20.615   6.239   9.191 -0.2515 -0.0995  0.0927
26578W        W33028   8.029   7.643   0.992 -0.0577  0.1532  0.0346
26579W        W33029  22.622   0.233   1.742  0.0548 -0.1090 -0.0365
26580W        W33030  16.107   7.372  16.946 -0.3550 -0.0279 -0.2156
26581W        W33031   7.055   2.787   5.901 -0.1604  0.0989 -0.1668
26582W        W33032   6.152   3.151  18.241  0.2711  0.0845  0.1476
26583W        W33033  29.053   0.090  10.894 -0.2981  0.1471 -0.0639
26584W        W33034   6.999   7.239  15.142  0.1275 -0.0867  0.3801
26585W        W33035  11.500   3.065   3.760  0.0354 -0.1560 -0.1655
26586W        W33036   6.781   0.239  17.483 -0.0876  0.2373 -0.0272
26587W        W33037  11.445   7.183  23.128  0.1211 -0.2290 -0.0801
26588W        W33038  24.058   0.107   0.698 -0.2481  0.0482  0.0335
26589W        W33039   5.201   5.722   0.149 -0.0469 -0.2075  0.0656
26590W        W33040  19.937   2.750  19.249 -0.1371 -0.1450  0.1623
26591W        W33041   4.861   7.440  20.108 -0.1075  0.0390  0.0468
26592W        W33042   2.070   6.488   2.352 -0.0853  0.4614 -0.2467
26593W        W33043   3.260   4.726  11.219  0.4038 -0.1044 -0.0929
26594W        W33044  11.985   1.843  25.490  0.1396  0.0443 -0.2069
26595W        W33045  28.198   2.785  24.316 -0.0792  0.0043  0.1248
26596W        W33046  14.222   4.841   8.291  0.0274 -0.1884 -0.0668
26597W        W33047  14.474   0.286  18.534 -0.3010 -0.0690 -0.1338
26598W        W33048   1.339   5.110  23.995 -0.0840  0.0274  0.0123
26599W        W33049  21.096   4.505   9.578  0.2172  0.2177 -0.1044
26600W        W33050  17.185   4.247  23.941 -0.0120 -0.1647 -0.0423
26601W        W33051   5.420   4.752  15.181  0.1883 -0.0940  0.1946
26602W        W33052   4.982   4.049   6.143  0.1428  0.0984  0.1020
26603W        W33053  22.543   0.727   1.678 -0.1262  0.0767  0.0364
26604W        W33054  12.502   1.644   4.419 -0.1920  0.1818 -0.1830
26605W        W33055  25.249   3.279  20.648  0.1817 -0.0388 -0.0656
26606W        W33056  30.756   2.979   2.671 -0.1865  0.3188 -0.1756
26607W        W33057   5.831   2.013   1.787 -0.2700 -0.1486 -0.0229
26608W        W33058  29.443   2.972  25.007  0.0889 -0.0446 -0.0206
26609W        W33059  10.849   3.157  22.027  0.0867  0.2034  0.1676
26610W        W33060  24.956   7.249  22.404  0.1535  0.1408 -0.0322
26611W        W33061  10.204   4.991   2.433 -0.0620  0.0329 -0.1835
26612W        W33062  26.648   2.324  18.003  0.0784  0.1251 -0.1385
26613W        W33063  10.951   7.350  24.584  0.2503  0.0801 -0.0612
26614W        W33064  10.779   3.770  23.364 -0.3114 -0.0125 -0.5288
26615W        W33065   7.486   3.423   0.613 -0.0936  0.0399  0.1005
26616W        W33066  24.636   3.325  22.614  0.0354 -0.0650  0.2007
26617W        W33067  22.792   3.198  23.316  0.0319 -0.0032  0.0051
26618W        W33068   3.603   6.320  18.639  0.0347 -0.0225 -0.2013
26619W        W33069  10.969   7.394  20.322  0.2031 -0.1137 -0.0862
26620W        W33070   0.737   4.484  24.403  0.3394 -0.1631  0.1703
26621W        W33071   8.156   3.854   8.098 -0.0795  0.2282 -0.0144
26622W        W33072   1.359   5.557   9.354  0.0550  0.0974  0.1870
26623W        W33073  31.074   5.026   6.773  0.1516 -0.0688  0.1767
26624W        W33074   5.143   1.319  26.182 -0.0603  0.0881 -0.2852
26625W        W33075  27.631   4.422  20.263  0.1707  0.3074 -0.1673
26626W        W33076  10.988   4.958   1.517 -0.2107  0.3118 -0.0025
26627W        W33077  16.613   1.749   2.369  0.1193  0.0754  0.0993
26628W        W33078  14.858   7.688  17.765 -0.2640 -0.2252 -0.0666
26629W        W33079  29.212   0.954  11.603 -0.2134 -0.0045 -0.0832
26630W        W33080  19.228   0.913   1.304 -0.2081 -0.2299 -0.1031
26631W        W33081  27.145   0.043  21.754  0.1231 -0.0250  0.0642
26632W        W33082  11.105   4.738  18.410 -0.1127 -0.3561 -0.2033
26633W        W33083   3.279   3.954   5.724  0.1781 -0.0387  0.4130
26634W        W33084   5.056   2.622  10.372  0.1358 -0.0183  0.0151
26635W        W33085  25.029   3.250  18.637 -0.1117  0.2428  0.0440
26636W        W33086  29.091   6.948  10.289 -0.0541  0.0694  0.0209
26637W        W33087  28.647   2.194  15.029  0.1180  0.0026 -0.0499
26638W        W33088  15.694   3.850   9.632 -0.0078 -0.1914 -0.0970
26639W        W33089   6.752   7.310  10.965 -0.0345 -0.2376 -0.1799
26640W        W33090  17.378   3.535  15.963  0.0747  0.0482  0.0443
26641W        W33091   1.435   5.469  15.248  0.2743  0.1015 -0.0508
26642W        W33092   6.624   1.958  11.311  0.0810  0.0532  0.0792
26643W        W33093  24.814   0.539  18.667 -0.1007  0.0327  0.1079
26644W        W33094   2.029   4.384   9.830 -0.0684 -0.0965 -0.0608
26645W        W33095  18.729   4.534  25.558  0.1042 -0.1992 -0.0576
26646W        W33096   3.990   7.451   4.354 -0.1101  0.1149 -0.3715
26647W        W33097  24.407   0.246   8.300 -0.0183  0.0150  0.0802
26648W        W33098  28.225   1.628  18.560  0.0793  0.0871  0.0095
26649W        W33099  19.840   2.815   9.298 -0.2073 -0.2685  0.0988
26650W        W33100  11.290   5.844   5.015  0.0081 -0.2717  0.1890
26651W        W33101   0.554   1.400   2.252  0.1134 -0.0776 -0.0203
26652W        W33102   8.279   3.216   0.669  0.0413 -0.0245  0.3343
26653W        W33103   0.901   6.571   4.239 -0.0825  0.0175 -0.0473
26654W        W33104   4.952   3.518   9.847  0.0818  0.2056  0.1582
26655W        W33105  12.279   7.329  20.365 -0.0398  0.2504 -0.1607
26656W        W33106   8.936   1.924  20.050 -0.0198  0.0709  0.0097
26657W        W33107  20.851   0.454  11.345 -0.3410 -0.1124 -0.0952
26658W        W33108  30.175   3.607  15.121 -0.1022 -0.1291 -0.1220
26659W        W33109  16.674   2.165  20.880  0.2468 -0.4315  0.1336
26660W        W33110  26.425   3.300   7.650 -0.3091  0.1796  0.2302
26661W        W33111  10.418   7.227   9.733  0.0333  0.0418 -0.0536
26662W        W33112  18.694   1.016   2.802  0.1132 -0.0436  0.1544
26663W        W33113  23.110   5.392  16.077  0.0542 -0.0617 -0.0391
26664W        W33114  10.060   3.748  20.139 -0.0170  0.2509  0.2120
26665W        W33115  17.504   5.215   5.651 -0.1484 -0.0603 -0.0220
26666W        W33116  18.963   6.330   3.060 -0.1622  0.1480  0.1657
26667W        W33117  27.948   2.437  24.003  0.0769 -0.0648 -0.1223
26668W        W33118  21.081   3.902   5.522  0.0957  0.0330 -0.1675
26669W        W33119  15.037   6.931  19.494  0.1602  0.1801 -0.0431
26670W        W33120  22.940   2.368  21.627  0.0717 -0.0266  0.1510
26671W        W33121  16.609   5.634  23.464  0.0733 -0.2195 -0.1760
26672W        W33122  21.824   0.708   1.099 -0.0590 -0.0348  0.0940
26673W        W33123  28.927   1.324  25.429  0.1891  0.0988  0.2558
26674W        W33124  16.207   4.173   1.834 -0.3558  0.4246 -0.0205
26675W        W33125   9.143   1.181  24.062 -0.0261  0.2533  0.0481
26676W        W33126   9.438   4.962   7.375  0.2978 -0.1602 -0.0555
26677W        W33127  19.455   2.252   1.083  0.1448  0.0240 -0.0750
26678W        W33128   5.311   0.529   0.833 -0.0542  0.0506 -0.0743
26679W        W33129  24.346   2.903  24.213  0.3374 -0.2732  0.0429
26680W        W33130  24.354   3.195   5.385 -0.1504  0.0043  0.0331
26681W        W33131  30.839   6.767   0.441 -0.1400 -0.0726 -0.0499
26682W        W33132  12.801   1.994  21.857  0.4113 -0.1937  0.0075
26683W        W33133   3.280   2.229  22.330  0.2442  0.1855 -0.0896
26684W        W33134  19.134   2.059  22.635 -0.0394  0.2289 -0.0160
26685W        W33135  25.518   3.579   9.274 -0.1497  0.2992  0.2930
26686W        W33136  13.978   3.761  21.609 -0.0535 -0.2963 -0.1586
26687W        W33137   4.945   3.602   6.518 -0.2435  0.2307 -0.1020
26688W        W33138  22.110   1.379  26.365  0.0099 -0.1481 -0.1887
26689W        W33139   6.003   7.705   7.482  0.1749  0.0005 -0.0493
26690W        W33140  24.538   2.532   0.001 -0.1583  0.0666 -0.1699
26691W        W33141  13.325   1.131  24.211 -0.2489  0.0586  0.1513
26692W        W33142  22.973   1.550  26.071  0.0473  0.0097  0.3931
26693W        W33143   2.214   3.053   8.836 -0.0674 -0.1830  0.0519
26694W        W33144  12.087   7.435  17.846 -0.0738 -0.2839 -0.0208
26695W        W33145  24.495   2.651   1.976  0.0378  0.0093 -0.1655
26696W        W33146  14.702   4.751  19.417 -0.2203 -0.0803 -0.0876
26697W        W33147   4.431   4.159  10.895  0.0503  0.2253  0.4812
26698W        W33148   7.431   5.529  19.943  0.0271 -0.1026 -0.0250
26699W        W33149   6.322   7.233   5.507  0.0113  0.1968 -0.2482
26700W        W33150  15.500   0.874  18.835  0.1796  0.1336 -0.0076
26701W        W33151   1.651   0.375   4.533 -0.3910 -0.2906  0.2369
26702W        W33152  18.463   4.973  20.369  0.1601  0.1860 -0.2145
26703W        W33153  22.628   2.064  19.591  0.0737 -0.0684 -0.1903
26704W        W33154  18.485   1.418  23.144  0.1337 -0.2127 -0.0051
26705W        W33155  14.123   7.428  18.322  0.4011  0.0642 -0.3556
26706W        W33156   7.603   5.352  21.731  0.0626 -0.1741 -0.2964
26707W        W33157   9.466   4.121  19.043  0.2932 -0.2594  0.1503
26708W        W33158   5.684   7.054  17.903 -0.1278  0.3606  0.0650
26709W        W33159   5.107   5.785  20.011 -0.0104  0.2459 -0.1718
26710W        W33160   5.824   6.320  24.980  0.3015 -0.0568  0.1228
26711W        W33161  20.520   4.967   0.009 -0.1655 -0.1615 -0.0676
26712W        W33162   7.087   0.017   8.063  0.1222  0.0162  0.3402
26713W        W33163  18.839   4.488   5.012 -0.0220  0.0910  0.0697
26714W        W33164  28.515   2.475   4.905 -0.0369  0.0047  0.3039
26715W        W33165  30.635   4.715  10.067 -0.0066  0.4396 -0.0233
26716W        W33166  25.023   6.129   4.603  0.1075  0.0164 -0.3170
26717W        W33167  15.372   1.345  23.528 -0.0382 -0.1968  0.0630
26718W        W33168   6.913   2.460  26.137  0.1479  0.2417  0.4405
26719W        W33169  17.164   5.668   0.501 -0.1406 -0.2784  0.1794
26720W        W33170   5.241   6.499  23.338  0.1354 -0.3377 -0.2605
26721W        W33171  21.165   0.273  21.793 -0.1093 -0.0435 -0.1526
26722W        W33172  24.790   3.281  20.838  0.1201  0.0112  0.2013
26723W        W33173   0.518   6.542   1.493  0.0828  0.2300 -0.2728
26724W        W33174  10.760   5.279  21.764 -0.0684 -0.0321  0.0640
26725W        W33175   6.568   0.929   8.864  0.3533  0.1732 -0.2264
26726W        W33176   3.139   0.262   8.937 -0.0081  0.0873 -0.3115
26727W        W33177   9.153   3.294   8.111  0.0649  0.1251  0.1927
26728W        W33178  22.080   5.792  24.777  0.2443  0.0257  0.0595
26729W        W33179  24.749   5.192  25.534  0.1515 -0.0978  0.0106
26730W        W33180   5.997   4.140   8.842  0.0284 -0.4038  0.0511
26731W        W33181  13.861   6.644  17.386 -0.0185  0.1178 -0.0740
26732W        W33182  17.229   4.577   3.046  0.2978 -0.0751  0.0579
26733W        W33183  21.997   3.683  17.085  0.0277  0.0969 -0.3216
26734W        W33184  10.195   5.642  23.187  0.1354 -0.0092 -0.0251
26735W        W33185  28.255   7.462   8.535  0.0603 -0.2479  0.1622
26736W        W33186  13.928   2.605  23.703 -0.1661  0.1198  0.3249
26737W        W33187   5.629   6.561   4.352  0.0200  0.1902 -0.0719
26738W        W33188  23.444   0.616  18.620  0.0038  0.2163 -0.2093
26739W        W33189   8.369   0.067  16.538 -0.1104  0.2019  0.2360
26740W        W33190  14.014   1.459  20.898 -0.0773 -0.1954  0.0340
26741W        W33191  28.436   7.687   0.784  0.2977 -0.0070  0.1128
26742W        W33192   7.157   0.661  18.383 -0.2913  0.3890 -0.3001
26743W        W33193   0.765   5.088  22.226 -0.0345  0.0429 -0.2577
26744W        W33194  26.919   1.591  23.410  0.3171  0.0893 -0.2528
26745W        W33195  16.939   3.032  17.315 -0.1082 -0.3047 -0.1650
26746W        W33196   8.633   0.137   0.729 -0.4931 -0.2527  0.1262
26747W        W33197  23.354   7.725  11.449  0.1966 -0.2847  0.1820
26748W        W33198  29.895   5.736  24.347  0.1953 -0.1851  0.1889
26749W        W33199   6.297   4.614  21.059  0.1595 -0.0252  0.0862
26750W        W33200  28.950   7.327   4.178 -0.0899 -0.1402  0.0455
26751W        W33201   6.509   0.364  24.016  0.1683 -0.2723 -0.0773
26752W        W33202  16.344   3.556   8.957  0.0649 -0.1323  0.0880
26753W        W33203  11.798   4.625  19.176  0.1030 -0.0553  0.0962
26754W        W33204   1.944   7.153   1.899  0.0549 -0.0276 -0.1667
26755W        W33205  13.580   3.614   7.424 -0.0324 -0.1377 -0.3564
26756W        W33206  21.776   3.718  25.918  0.1698  0.0195  0.0372
26757W        W33207   0.435   1.218   1.714  0.4332  0.2078  0.3238
26758W        W33208  27.099   1.329   7.817  0.2754 -0.0485  0.1277
26759W        W33209  25.508   5.790  24.551 -0.2299 -0.0533 -0.3108
26760W        W33210  17.261   3.295   2.315  0.0938 -0.0251  0.3060
26761W        W33211   7.912   2.820   2.539  0.1840  0.0228  0.0832
26762W        W33212  10.617   6.625  20.595 -0.0471  0.0329  0.0704
26763W        W33213   4.181   4.546  15.632  0.0436  0.3160 -0.0466
26764W        W33214   2.544   0.524  16.620  0.0575  0.0777  0.2373
26765W        W33215  24.746   1.842   3.240 -0.0528 -0.1968  0.1077
26766W        W33216  27.673   2.058  20.231 -0.0336  0.2436 -0.0471
26767W        W33217  27.824   7.352  23.658  0.4593 -0.0640 -0.0493
26768W        W33218  16.175   6.056   4.620 -0.2091  0.0014  0.0373
26769W        W33219  28.552   6.995  20.059  0.0100 -0.1552  0.0024
26770W        W33220  28.556   4.524   5.230  0.1224 -0.1212 -0.1479
26771W        W33221  12.522   3.347  18.316 -0.0885 -0.0849  0.2057
26772W        W33222   2.099   3.284   5.170 -0.1903  0.1403 -0.4113
26773W        W33223  17.383   6.352   4.753 -0.1853 -0.0694  0.3005
26774W        W33224   3.247   1.145  17.528 -0.1277  0.1454  0.0012
26775W        W33225  22.111   4.374  17.053  0.0390 -0.3635 -0.2654
26776W        W33226  21.688   3.201  24.399 -0.2646 -0.1473 -0.1402
26777W        W33227  22.103   4.140  22.867 -0.1254 -0.1574  0.3773
26778W        W33228  17.368   5.067  21.485  0.2251 -0.0936  0.0599
26779W        W33229   5.725   0.788  22.438  0.1197 -0.3352  0.1026
26780W        W33230  22.653   1.523  16.474  0.0584 -0.1625  0.1009
26781W        W33231  28.174   6.371  22.860  0.1787  0.0627 -0.1666
26782W        W33232  26.494   3.456  10.560 -0.0171 -0.1047  0.3769
26783W        W33233  25.888   2.379  10.557  0.1251  0.0675  0.2860
26784W        W33234   4.876   1.575   2.613  0.0006 -0.1088 -0.3523
26785W        W33235  14.627   4.875  18.958  0.1216 -0.2598  0.3565
26786W        W33236   1.143   2.932  18.556  0.2555  0.0410  0.0912
26787W        W33237  18.764   3.186   1.721  0.1074 -0.0742 -0.0714
26788W        W33238  15.373   1.861  26.357  0.0933 -0.0093 -0.1687
26789W        W33239  15.045   0.301  15.896  0.2057 -0.2466  0.2841
26790W        W33240  19.895   6.721   8.809  0.3745  0.0913 -0.0003
26791W        W33241  28.977   7.113  22.101 -0.0282  0.0686 -0.1375
26792W        W33242   9.040   4.448  20.824 -0.0333 -0.3497 -0.1436
26793W        W33243   4.866   3.509   7.309 -0.0932 -0.0377  0.0540
26794W        W33244   9.696   0.092  17.736 -0.2316 -0.0874 -0.0685
26795W        W33245  20.159   2.380  18.897  0.3209 -0.0114  0.3166
26796W        W33246  16.060   3.130   2.758 -0.0816  0.1102  0.3417
26797W        W33247  21.597   0.301  24.012 -0.2627 -0.1334  0.0636
26798W        W33248  12.030   4.133  26.265 -0.1547 -0.2075  0.0553
26799W        W33249  26.295   7.505   5.793  0.1386  0.1658  0.3726
26800W        W33250  18.557   7.372  17.810 -0.1252  0.1599 -0.1594
26801W        W33251  11.063   2.976   9.500 -0.2541  0.0505 -0.0441
26802W        W33252  31.189   2.284  26.273  0.1525  0.0383 -0.0618
26803W        W33253   8.696   1.032   1.224  0.0623  0.0282  0.0261
26804W        W33254   4.133   2.391  15.807  0.0928  0.3000 -0.2096
26805W        W33255   4.616   6.238  15.166  0.2070  0.1099  0.2165
26806W        W33256  18.221   2.371   7.016  0.1289 -0.1262 -0.1251
26807W        W33257  20.359   6.963  25.915  0.0754 -0.0416 -0.2947
26808W        W33258  14.536   0.284  24.258  0.0189  0.2184  0.1133
26809W        W33259  22.124   1.094   5.298  0.2566 -0.1977  0.0656
26810W        W33260  28.042   0.916   9.888 -0.4778  0.0850  0.1313
26811W        W33261  20.820   0.601  24.198 -0.0328 -0.2541 -0.1395
26812W        W33262  19.450   0.972   9.285  0.0308 -0.1953  0.0302
26813W        W33263  16.800   3.433  25.933  0.0192 -0.2520 -0.3666
26814W        W33264  29.722   3.760  18.992  0.5271  0.5566  0.0327
26815W        W33265  20.198   3.948  10.725  0.2024  0.0866  0.0545
26816W        W33266  24.497   4.180  23.229  0.0434  0.0261  0.1285
26817W        W33267   3.867   0.476  19.937  0.0455  0.3599 -0.0202
26818W        W33268  27.669   2.378   9.092 -0.3119  0.3112  0.1400
26819W        W33269  12.011   7.076  17.471 -0.4051 -0.1976  0.2703
26820W        W33270  21.436   1.359   2.083 -0.0340  0.0653 -0.0989
26821W        W33271   6.018   7.776  15.362  0.0271 -0.0748 -0.0209
26822W        W33272  30.262   6.497  18.518 -0.4627  0.1861 -0.2238
26823W        W33273   0.255   7.705   5.104 -0.0761  0.2639 -0.1589
26824W        W33274  27.566   4.472  21.465 -0.2723 -0.0841  0.0853
26825W        W33275   0.116   2.729   9.300 -0.3740 -0.0975  0.3273
26826W        W33276  16.418   2.040  19.760 -0.0756  0.3790 -0.1895
26827W        W33277  13.191   5.848  16.076 -0.0558  0.3628 -0.0478
26828W        W33278   8.463   1.952  24.990 -0.0554  0.1158 -0.2862
26829W        W33279   3.913   7.572  22.113 -0.1377 -0.0987 -0.0233
26830W        W33280  13.387   2.549   2.228  0.1262  0.3077  0.0497
26831W        W33281  23.263   6.186  10.685  0.1697 -0.3085 -0.1803
26832W        W33282  12.293   3.897  15.818 -0.2482 -0.1876  0.0674
26833W        W33283   8.431   3.734   6.625  0.0588  0.0692 -0.1327
26834W        W33284   5.931   4.948  23.415 -0.1076  0.1418 -0.0912
26835W        W33285   7.305   0.131  20.925 -0.0436  0.2020  0.4299
26836W        W33286  17.696   7.770  19.565 -0.0646 -0.0315 -0.0408
26837W        W33287  12.316   4.026  24.184  0.3093 -0.0011 -0.0415
26838W        W33288  14.344   5.153   7.705  0.0847 -0.0749  0.3330
26839W        W33289  26.882   6.563  19.170 -0.0875  0.0034  0.1692
26840W        W33290  25.823   0.063  18.857 -0.3769  0.6104  0.0649
26841W        W33291  21.884   1.182  16.596 -0.0865  0.0286 -0.4623
26842W        W33292   0.967   6.626  17.393  0.1658 -0.1626 -0.0283
26843W        W33293   3.570   3.626  16.105  0.4072  0.0832  0.0048
26844W        W33294  23.079   0.601  24.476  0.1369 -0.0717 -0.1336
26845W        W33295  20.094   7.781  23.169 -0.0326  0.1182  0.0867
26846W        W33296  17.270   4.853   2.637  0.2017  0.3935  0.4571
26847W        W33297   9.652   4.106  18.457 -0.2133  0.2802 -0.3363
26848W        W33298  15.605   6.891  21.571 -0.0360  0.0401  0.0893
26849W        W33299   7.077   4.651  16.089  0.3306  0.3798  0.1352
26850W        W33300  28.257   7.303  23.424  0.1999 -0.1132  0.3723
26851W        W33301  30.281   3.457   9.699 -0.0913  0.1730  0.0900
26852W        W33302  19.118   3.682   6.120 -0.1775 -0.1096 -0.1302
26853W        W33303  16.056   7.189   4.783 -0.3080  0.2171 -0.3699
26854W        W33304   1.825   0.761  10.544 -0.3763  0.2088 -0.0107
26855W        W33305  27.015   5.964  20.236  0.2416  0.1423 -0.1969
26856W        W33306  23.048   1.902  16.311  0.0536 -0.2757 -0.0409
26857W        W33307  13.119   4.640  20.490  0.0271 -0.1209 -0.0336
26858W        W33308  28.644   3.955  22.316 -0.1023  0.1392  0.0229
26859W        W33309   7.448   3.773   9.145  0.1405  0.0383  0.1749
26860W        W33310   5.993   4.860   8.407 -0.1056 -0.2402  0.1137
26861W        W33311  20.404   1.533  16.601 -0.3328  0.0044 -0.0858
26862W        W33312  27.471   7.654   2.095 -0.0501 -0.2022 -0.1146
26863W        W33313  22.549   6.967   1.541  0.1155 -0.1386 -0.2965
26864W        W33314  28.479   6.054  10.324  0.0510  0.1256 -0.1373
26865W        W33315  20.590   4.901  18.343  0.0810 -0.0177  0.1206
26866W        W33316   8.825   1.631   2.613 -0.1030 -0.0120 -0.2883
26867W        W33317  19.567   1.867  11.077  0.0194  0.2914  0.0782
26868W        W33318   4.995   6.340  16.552 -0.0265  0.0288 -0.1256
26869W        W33319  28.156   2.029   8.121  0.0085  0.1404  0.0227
26870W        W33320  13.306   2.721  19.982  0.1272  0.0798 -0.2729
26871W        W33321   0.696   4.095  16.223  0.0237  0.1112  0.0103
26872W        W33322  12.804   1.276  18.019  0.3603 -0.0337  0.2700
26873W        W33323  28.444   4.245  23.198 -0.2667 -0.2648 -0.1653
26874W        W33324   8.208   0.460   3.873  0.0519  0.0848 -0.1043
26875W        W33325   4.782   1.119   3.788  0.0682  0.0301  0.0403
26876W        W33326   2.857   5.633  20.700 -0.1661 -0.2345  0.1478
26877W        W33327   2.275   0.157  22.205  0.1476  0.0936  0.0475
26878W        W33328  25.521   3.136  10.177 -0.1926 -0.1068 -0.0769
26879W        W33329  24.193   6.507  17.770  0.1268  0.1075  0.0554
26880W        W33330  25.642   4.880   2.474 -0.2195 -0.0433  0.0629
26881W        W33331   0.594   1.388   2.798  0.3520 -0.1002 -0.1153
26882W        W33332  12.492   3.258  23.301 -0.0845 -0.0666 -0.0946
26883W        W33333  20.615   6.608  17.184 -0.0374 -0.1724  0.0309
26884W        W33334   5.211   2.212  16.540  0.1491  0.1865 -0.0884
26885W        W33335   1.209   7.691  23.975  0.2067  0.0912 -0.1466
26886W        W33336  26.878   2.965  18.201 -0.1065 -0.4155  0.4098
26887W        W33337  14.456   1.901  16.670  0.2260 -0.1883 -0.0529
26888W        W33338  27.773   5.313   8.018  0.1700  0.1688  0.2693
26889W        W33339  28.825   2.444   8.470 -0.0300 -0.1113 -0.2538
26890W        W33340  21.401   3.755   4.074  0.0308  0.1801 -0.0472
26891W        W33341  16.323   2.759  16.977 -0.2129  0.3475  0.0407
26892W        W33342   5.887   1.399   6.455 -0.0515  0.1076  0.0817
26893W        W33343  20.182   2.777  15.423 -0.2604 -0.3114 -0.2144
26894W        W33344   5.694   2.482  24.624 -0.0134 -0.0360 -0.0943
26895W        W33345  23.942   0.559  26.004  0.1323 -0.1983  0.1194
26896W        W33346  20.143   6.754   7.365 -0.0497  0.0660  0.1760
26897W        W33347  13.520   5.890  20.662  0.0362  0.2672 -0.0602
26898W        W33348   9.320   7.610   6.529 -0.1769  0.0733 -0.1511
26899W        W33349  30.818   6.566  26.078  0.0174 -0.0935 -0.1186
26900W        W33350  10.473   4.012  10.470  0.1274 -0.0449  0.0256
26901W        W33351   2.378   0.123  16.817  0.0662  0.1696 -0.1635
26902W        W33352   0.762   1.543   8.154 -0.0385  0.0067 -0.1594
26903W        W33353  19.910   0.561  23.336  0.2206  0.0481  0.0308
26904W        W33354  26.707   7.275   5.744 -0.2589  0.0258 -0.0208
26905W        W33355  20.357   1.421  23.536  0.0317  0.0780  0.4888
26906W        W33356   3.690   6.007  24.493  0.0195 -0.0194 -0.2184
26907W        W33357  16.515   6.521  19.105  0.0319  0.2936 -0.1339
26908W        W33358  17.952   5.103  14.656  0.3321  0.1187  0.0417
26909W        W33359  21.853   3.241   3.569  0.2420  0.0907  0.2277
26910W        W33360  20.877   4.836   5.474 -0.1069 -0.1141  0.0611
26911W        W33361  10.176   1.381  19.045  0.2764  0.0632 -0.1316
26912W        W33362   4.172   3.779  16.030  0.1475 -0.0745 -0.2274
26913W        W33363  21.973   6.169   4.720  0.2011  0.0435  0.0901
26914W        W33364  10.309   5.202  23.375  0.3468  0.2194 -0.0133
26915W        W33365  21.051   1.609   1.951  0.0511  0.2324  0.3267
26916W        W33366  22.698   3.541   7.382 -0.2468  0.0368 -0.0639
26917W        W33367  12.675   2.671  18.205  0.4297 -0.2604  0.1400
26918W        W33368  14.875   1.068   9.772  0.1657  0.0831  0.1702
26919W        W33369  26.367   5.822   8.349 -0.0230 -0.2031  0.4111
26920W        W33370  27.496   1.218  24.030 -0.3255  0.0805  0.0419
26921W        W33371  15.785   5.657  19.176 -0.0638 -0.0455 -0.2479
26922W        W33372  20.946   1.093   0.328 -0.2002 -0.0339  0.2034
26923W        W33373  17.836   2.316  18.682  0.2712 -0.2481  0.0306
26924W        W33374  23.977   6.462  11.693 -0.0407  0.0583 -0.1867
26925W        W33375  15.207   2.047  17.103 -0.1626  0.0077  0.0140
26926W        W33376  10.602   2.702  24.720 -0.0940  0.4655 -0.2337
26927W        W33377   3.328   4.789  22.250 -0.0747  0.2917 -0.2194
26928W        W33378   0.352   2.528  18.086 -0.1454  0.0139  0.0306
26929W        W33379  26.439   1.197  21.965 -0.0126 -0.0798  0.0732
26930W        W33380   8.496   3.224  21.205  0.1559 -0.2886 -0.1515
26931W        W33381  29.491   7.653   6.616 -0.0349  0.1150  0.3192
26932W        W33382  25.903   2.867  15.459  0.0196 -0.0022  0.0008
26933W        W33383   7.164   7.620   1.280  0.0562 -0.0672 -0.1131
26934W        W33384  14.224   5.616  15.478  0.2437  0.0913  0.0466
26935W        W33385  18.078   5.415   2.597 -0.1729 -0.1681 -0.1489
26936W        W33386   9.588   6.223   3.545  0.0067 -0.0013 -0.1191
26937W        W33387  22.686   3.878   7.828  0.3490 -0.0393 -0.0742
26938W        W33388   2.320   4.485  20.588 -0.1254 -0.1896  0.0496
26939W        W33389   2.519   4.179  20.215  0.1214  0.1824 -0.0343
26940W        W33390  17.382   2.889  10.772  0.2510 -0.2850 -0.0627
26941W        W33391  26.710   7.720   1.886 -0.1042 -0.5025  0.1400
26942W        W33392  17.374   1.946   2.934  0.0679 -0.0182 -0.0026
26943W        W33393   8.603   3.524   1.910  0.1562  0.0025 -0.1487
26944W        W33394  22.213   5.338   7.213 -0.1609  0.0535  0.2892
26945W        W33395   9.565   7.577   9.671  0.0262  0.1042  0.1527
26946W        W33396  14.489   7.275   5.444 -0.3102  0.0816  0.0399
26947W        W33397  23.320   5.553  24.484 -0.0121 -0.0077 -0.0436
26948W        W33398   0.803   5.324   9.646  0.2181  0.0414 -0.4246
26949W        W33399   5.855   5.210   2.712 -0.2461 -0.0162  0.0984
26950W        W33400  29.069   5.742   0.193  0.0533 -0.1366  0.1674
26951W        W33401  17.063   0.341   5.326 -0.0743 -0.0059 -0.0698
26952W        W33402  21.809   4.114   6.091  0.0833 -0.0012 -0.3424
26953W        W33403  10.291   5.369  18.342 -0.0235  0.3369 -0.0426
26954W        W33404  23.619   2.171  20.592  0.0692 -0.0206 -0.1303
26955W        W33405   2.688   6.937  19.404 -0.2135 -0.1849  0.0926
26956W        W33406  15.008   1.591  16.948  0.2995 -0.0632 -0.1131
26957W        W33407   5.429   3.952   7.890 -0.0165  0.2856 -0.0738
26958W        W33408  30.402   7.114  21.820  0.0859  0.2518  0.0967
26959W        W33409   6.373   3.567  26.139 -0.1515  0.0048 -0.0719
26960W        W33410  11.046   0.491   9.462  0.1595 -0.3490  0.2241
26961W        W33411   9.257   6.154  21.725  0.0174  0.1446  0.1113
26962W        W33412  16.893   2.358   2.023 -0.4419  0.0186  0.1582
26963W        W33413  12.185   5.160  15.412 -0.0555 -0.2353  0.0928
26964W        W33414  16.140   2.056  16.334  0.3496 -0.0393  0.0740
26965W        W33415  24.756   1.482  19.328  0.1820 -0.0515 -0.2332
26966W        W33416  10.027   0.530  24.732  0.1697  0.0493  0.1096
26967W        W33417  26.031   0.295  25.994 -0.2053 -0.1854  0.1588
26968W        W33418  20.600   5.070  25.528 -0.0747 -0.2153  0.1477
26969W        W33419  20.592   5.815  16.849 -0.0446 -0.0173  0.0823
26970W        W33420  28.636   5.960   2.029 -0.2392  0.3301 -0.2123
26971W        W33421  27.321   6.184  18.847 -0.0933 -0.2644  0.0156
26972W        W33422  28.266   4.295  17.413  0.3085  0.0498  0.1442
26973W        W33423  20.887   2.090   5.746 -0.0188  0.0351 -0.1135
26974W        W33424   2.072   7.311  25.850 -0.0015 -0.1623  0.1043
26975W        W33425  20.599   2.749  16.716  0.0928 -0.2735  0.0320
26976W        W33426   4.968   7.416  22.586 -0.0796 -0.0903 -0.0184
26977W        W33427  14.961   3.870  22.730  0.2547 -0.1516  0.3352
26978W        W33428  24.031   7.575   6.437 -0.0237  0.1114  0.0677
26979W        W33429  29.026   5.342   1.405 -0.0532  0.3186  0.0393
26980W        W33430  30.447   5.224  14.813 -0.0958  0.0794 -0.0926
26981W        W33431   9.335   7.622  16.856  0.0579 -0.6106  0.0280
26982W        W33432  24.347   0.771   8.363  0.0710  0.0973  0.2143
26983W        W33433   8.343   7.480   8.125  0.2501  0.1712 -0.1338
26984W        W33434  17.595   1.333   0.071  0.3585 -0.1118 -0.3459
26985W        W33435   0.437   0.569   5.232 -0.2135 -0.0195 -0.0894
26986W        W33436   2.508   1.971   8.074  0.3662  0.1086  0.0535
26987W        W33437  10.734   3.824  19.433  0.1698  0.3191  0.3546
26988W        W33438  24.291   1.275   5.332  0.1534 -0.0976  0.1752
26989W        W33439  25.794   5.846  19.235  0.1319  0.0664 -0.0399
26990W        W33440  20.146   1.140  24.489 -0.0643  0.1707  0.0916
26991W        W33441  11.079   0.209   5.343 -0.0047 -0.0795  0.0682
26992W        W33442  12.665   1.869  26.322  0.0271 -0.2078 -0.0652
26993W        W33443  25.493   1.451   4.834 -0.0553  0.0021  0.2763
26994W        W33444   0.012   7.399  17.418 -0.2088 -0.3072  0.2082
26995W        W33445  24.136   6.547   7.807  0.1677  0.1373  0.1076
26996W        W33446   9.511   0.858   8.150 -0.4365 -0.2413  0.1437
26997W        W33447  27.877   0.302   4.291  0.1572 -0.1693  0.1327
26998W        W33448  29.075   3.024   1.942 -0.1830 -0.0408 -0.0457
26999W        W33449  19.570   4.581   3.992  0.1032 -0.0202  0.1111
27000W        W33450  21.759   4.074   3.982  0.0515 -0.0108 -0.0265
27001W        W33451   1.485   4.805  15.867  0.1879 -0.2173  0.1242
27002W        W33452  28.241   2.772   7.629  0.2119  0.1134  0.0435
27003W        W33453   9.315   1.318  14.864 -0.1992  0.0221  0.0619
27004W        W33454   4.537   1.824   9.975 -0.2314  0.0817  0.1746
27005W        W33455  17.862   0.095   9.320  0.1321 -0.0122  0.3312
27006W        W33456  21.546   6.786  18.781  0.2973  0.5196 -0.1240
27007W        W33457   4.506   6.355   9.479 -0.0727  0.1177  0.2613
27008W        W33458   1.770   3.303  16.323 -0.1659  0.1854 -0.3441
27009W        W33459  10.668   3.947  17.373  0.2766 -0.0091  0.0326
27010W        W33460   3.396   0.868   2.007 -0.0695 -0.3160 -0.0668
27011W        W33461  11.983   7.079   0.485  0.2342 -0.1612  0.2456
27012W        W33462   8.283   6.085   7.847 -0.2010  0.1500 -0.0728
27013W        W33463  21.403   3.591  24.176  0.1801 -0.1236  0.2888
27014W        W33464  13.767   4.680  16.972 -0.1203 -0.2800 -0.0932
27015W        W33465   2.365   6.283   0.462 -0.1865  0.0133 -0.3173
27016W        W33466  29.493   0.212  26.283  0.0609  0.3030 -0.0207
27017W        W33467  18.187   0.767   8.456  0.0235  0.0682 -0.1291
27018W        W33468   4.602   6.191  25.730  0.0573  0.1777  0.0837
27019W        W33469  12.676   0.980  22.764  0.0184  0.1759 -0.1093
27020W        W33470  24.159   7.184   2.503 -0.1118  0.1295 -0.1229
27021W        W33471   7.297   3.362  23.940  0.4022 -0.0868 -0.0194
27022W        W33472   3.991   0.595  20.461  0.0260 -0.0518  0.1837
27023W        W33473  12.804   0.325   8.114  0.2108  0.0467  0.1752
27024W        W33474  21.753   6.716   2.056  0.1808 -0.2068 -0.4070
27025W        W33475  12.268   5.597  23.303 -0.1248  0.1008 -0.0918
27026W        W33476  25.916   2.749  16.587 -0.0524  0.1822  0.0340
27027W        W33477  30.276   3.088  24.623  0.1306 -0.1372 -0.0487
27028W        W33478  22.290   6.243  18.038  0.4384  0.0361  0.0073
27029W        W33479  22.551   2.513   5.217  0.0556 -0.4231  0.0392
27030W        W33480  23.148   0.273  23.115 -0.1419 -0.1701  0.1282
27031W        W33481  28.748   6.587   6.838 -0.1274 -0.1880 -0.0541
27032W        W33482  22.072   7.611   0.960  0.1232 -0.3107 -0.1610
27033W        W33483   5.890   2.677  10.426  0.1509 -0.2124  0.2078
27034W        W33484  31.072   1.640   0.426 -0.0406  0.1826  0.0687
27035W        W33485  26.920   1.215  16.155  0.1619 -0.2207 -0.1706
27036W        W33486   5.293   3.190   7.449 -0.0001  0.0882  0.0125
27037W        W33487  27.826   2.348  17.443  0.0137 -0.0239  0.2388
27038W        W33488  25.167   4.042   7.422 -0.1098 -0.0311 -0.0558
27039W        W33489  12.782   5.878   9.522  0.2884 -0.0240 -0.0205
27040W        W33490  10.303   0.158  15.952  0.1683  0.1235 -0.0680
27041W        W33491  12.073   6.907  20.217 -0.0069  0.0135 -0.2029
27042W        W33492  24.807   4.980  19.066 -0.0928 -0.2378 -0.0795
27043W        W33493  22.900   3.590   4.745 -0.2159  0.2649 -0.0108
27044W        W33494  10.583   3.809  24.213 -0.0267 -0.2242  0.2977
27045W        W33495  30.832   3.140   6.321 -0.2098  0.3457  0.1026
27046W        W33496   8.949   3.677   9.419 -0.1812  0.0483  0.4477
27047W        W33497  27.116   2.057   3.453 -0.2213 -0.1965  0.0943
27048W        W33498  22.639   4.390   7.493 -0.1710 -0.2281  0.2322
27049W        W33499  13.938   0.948   3.470 -0.2182 -0.1426 -0.3382
27050W        W33500  13.569   6.321  21.041  0.2971  0.0080 -0.1252
27051W        W33501  17.193   7.541   1.820 -0.1715  0.2597  0.2803
27052W        W33502  11.051   2.418  23.162 -0.0537 -0.0111  0.2823
27053W        W33503  16.375   2.813  23.369 -0.1185 -0.2406 -0.0060
27054W        W33504  23.325   3.490   3.017 -0.0573 -0.0399  0.1653
27055W        W33505  18.571   5.205  11.564 -0.0173  0.2508 -0.1440
27056W        W33506   5.144   0.815  10.455 -0.1706  0.0912 -0.0828
27057W        W33507   7.402   0.653  16.245  0.1505 -0.2824 -0.3213
27058W        W33508  28.276   3.362   5.738 -0.1124 -0.1306  0.0085
27059W        W33509  17.380   2.737  17.610 -0.0482  0.2139 -0.1960
27060W        W33510  19.223   2.610   9.998 -0.0681 -0.2799 -0.0173
27061W        W33511  22.385   6.353   3.296  0.0584 -0.3563 -0.1538
27062W        W33512   5.902   7.528  24.477 -0.0993  0.0739 -0.1200
27063W        W33513  29.577   5.385   4.298 -0.1293  0.0116  0.1279
27064W        W33514   3.842   2.149  21.446 -0.0878 -0.2880 -0.3619
27065W        W33515  24.651   5.033  15.614  0.0620  0.2667 -0.0187
27066W        W33516   4.444   5.695   2.408 -0.0502  0.3404  0.2910
27067W        W33517  29.307   2.778  24.509 -0.0857 -0.0040 -0.0950
27068W        W33518  20.329   3.860   9.415 -0.3278  0.0276 -0.3165
27069W        W33519   5.164   1.881  17.097  0.1996  0.0720  0.0406
27070W        W33520  10.238   4.779   1.957 -0.1624 -0.0956  0.1431
27071W        W33521  25.636   4.813   1.709  0.1794 -0.1647 -0.0976
27072W        W33522  15.206   6.521  16.358 -0.0888 -0.2433 -0.0919
27073W        W33523  27.335   0.691  20.137  0.2860  0.1784  0.1271
27074W        W33524   6.730   7.794  26.103  0.0927  0.3316 -0.3469
27075W        W33525  21.602   0.786   6.070  0.0461 -0.2180 -0.3551
27076W        W33526  25.001   6.951   0.999  0.0729  0.0758 -0.0909
27077W        W33527   0.148   0.673   4.025  0.1035  0.0637  0.0873
27078W        W33528  22.498   3.101  10.026 -0.1339 -0.1156  0.0723
27079W        W33529  17.024   6.692   1.141  0.0298 -0.1580  0.2089
27080W        W33530  14.976   0.873  20.613  0.0365 -0.1388  0.0938
27081W        W33531   4.528   5.241   5.097  0.1635  0.0598 -0.0408
27082W        W33532   0.044   2.252  22.890 -0.0701 -0.2017 -0.0110
27083W        W33533   7.740   7.214   4.513 -0.2189  0.1466 -0.1809
27084W        W33534  14.038   3.088   4.854 -0.5517  0.0346  0.0915
27085W        W33535  28.632   6.049   0.970  0.0834 -0.1424 -0.0379
27086W        W33536   0.343   2.218   5.989  0.2968 -0.0176  0.1800
27087W        W33537  24.987   3.706   9.939  0.0000 -0.0842 -0.0907
27088W        W33538  22.273   3.292   8.742 -0.0399 -0.0250  0.1043
27089W        W33539  15.813   5.607   3.684 -0.2285 -0.2596 -0.4646
27090W        W33540  29.410   3.390   9.932  0.2200 -0.0914  0.3133
27091W        W33541   3.968   0.743  26.062 -0.2983 -0.2220  0.1095
27092W        W33542  23.662   7.656  23.742  0.0124  0.3896  0.1834
27093W        W33543  15.966   5.180  19.112  0.2401  0.1586 -0.0404
27094W        W33544  13.552   3.481   3.801  0.0416 -0.0731  0.1292
27095W        W33545   7.566   4.210  18.066 -0.3037 -0.1221 -0.1370
27096W        W33546  12.138   4.287  10.410  0.0471 -0.1528  0.0214
27097W        W33547  12.893   4.408   2.384  0.0183  0.3863 -0.2391
27098W        W33548  10.254   5.199  21.670  0.1654 -0.2463 -0.0712
27099W        W33549  14.100   3.783  24.362  0.1992 -0.0675  0.0911
27100W        W33550  14.562   2.198  20.171  0.1839  0.4005  0.0596
27101W        W33551   0.876   2.331   6.231 -0.0173 -0.1944  0.0432
27102W        W33552  30.584   3.980  25.429  0.4174 -0.1499  0.0901
27103W        W33553  29.170   5.540  10.094  0.1264 -0.0054 -0.1745
27104W        W33554  14.652   6.903  21.378 -0.2651 -0.1380 -0.2508
27105W        W33555   9.378   6.918  25.920 -0.1056 -0.2650  0.0362
27106W        W33556  14.467   4.949   0.417 -0.0357  0.1395  0.4090
27107W        W33557   7.681   5.482  25.654 -0.0493 -0.0054 -0.2739
27108W        W33558  15.764   3.910  17.780  0.0217 -0.1413  0.1907
27109W        W33559  23.222   0.363   4.818  0.0492  0.1957 -0.0660
27110W        W33560   6.554   3.551  22.302 -0.1181 -0.1059 -0.1106
27111W        W33561  26.656   6.263   8.365 -0.3205 -0.0198 -0.0588
27112W        W33562  16.974   5.943   7.150 -0.1359  0.0697  0.0946
27113W        W33563   5.690   5.902   4.544  0.1480  0.0824  0.4969
27114W        W33564   4.140   0.036   9.047 -0.0425 -0.2512 -0.0667
27115W        W33565  30.252   1.163   9.204  0.0563 -0.3569  0.3441
27116W        W33566  17.969   6.967   9.828  0.2905 -0.0625  0.1604
27117W        W33567  30.727   7.007  21.424 -0.1124 -0.2302  0.2128
27118W        W33568   7.304   3.193  20.362  0.0005 -0.0801 -0.1096
27119W        W33569   5.766   0.694  19.611 -0.0093  0.0925  0.0376
27120W        W33570  24.248   2.984   1.701  0.1035  0.2974  0.1823
27121W        W33571  29.964   0.925   4.448 -0.3668 -0.1369 -0.1831
27122W        W33572   0.078   5.663  24.034 -0.1058 -0.1643  0.0584
27123W        W33573   3.521   2.441   5.864  0.0967 -0.3139 -0.3124
27124W        W33574  11.961   2.114  23.095 -0.0870  0.3319 -0.1875
27125W        W33575   2.837   5.399   1.179  0.1503  0.1273 -0.0395
27126W        W33576  12.633   2.388   4.669 -0.2738  0.2997  0.0741
27127W        W33577  13.723   1.417   7.215 -0.1215 -0.0349 -0.0806
27128W        W33578  21.466   6.047  17.186 -0.0163  0.0785 -0.0643
27129W        W33579  28.177   3.349   0.070 -0.2313  0.1139  0.4763
27130W        W33580  17.661   3.579  16.804 -0.2027  0.3827  0.0136
27131W        W33581  18.919   7.108  20.249 -0.3166 -0.0275 -0.0259
27132W        W33582  18.827   3.619  19.251  0.2854 -0.1230  0.1382
27133W        W33583  17.909   5.178   5.289 -0.0087 -0.1809 -0.0658
27134W        W33584  15.297   5.193  24.614  0.1166  0.0656 -0.1008
27135W        W33585   2.113   7.449   5.460  0.0524 -0.1154  0.1737
27136W        W33586  22.685   7.343  25.992 -0.0496 -0.0849  0.1470
27137W        W33587   5.879   1.513   1.692 -0.1386  0.1784  0.1386
27138W        W33588   9.406   5.950  20.950 -0.0861 -0.3052 -0.2175
27139W        W33589  20.471   4.602   2.865  0.1089  0.1069 -0.1311
27140W        W33590  10.533   0.084  16.490  0.2072  0.3034 -0.1755
27141W        W33591   4.623   2.669  15.021 -0.2364 -0.0360  0.2169
27142W        W33592  13.919   6.673   8.893 -0.3501 -0.0313 -0.2087
27143W        W33593   7.261   2.905  18.094 -0.0786  0.1322 -0.0081
27144W        W33594  23.430   7.019   0.682  0.2949 -0.0425 -0.0560
27145W        W33595  24.926   0.692   4.595 -0.0988  0.1271  0.0133
27146W        W33596  15.808   3.209  20.322 -0.2320 -0.0738 -0.0660
27147W        W33597  16.553   6.408   8.316  0.0520 -0.1001 -0.1952
27148W        W33598  15.784   4.267   3.828 -0.0671 -0.0559  0.0051
27149W        W33599  24.961   1.186  25.473  0.0983  0.0525  0.0888
27150W        W33600   8.180   0.883   8.386 -0.1919  0.0228  0.1352
27151W        W33601  13.164   1.404   2.353  0.1806  0.0332  0.1723
27152W        W33602   8.159   5.828  25.101  0.2157 -0.1460 -0.3079
27153W        W33603   7.093   4.833   4.252 -0.1882 -0.1439  0.0236
27154W        W33604  11.814   4.635   4.035 -0.0087 -0.3308 -0.0456
27155W        W33605   3.222   3.423   8.381  0.2085 -0.0982  0.2118
27156W        W33606  27.946   2.914  19.606  0.1181 -0.0576 -0.0214
27157W        W33607  16.409   0.322  24.078 -0.2280 -0.1289  0.0874
27158W        W33608   5.059   1.544  22.563  0.0430 -0.3061 -0.2379
27159W        W33609   3.282   6.106  25.787  0.1594  0.0628  0.2761
27160W        W33610  28.429   1.129  17.634  0.0349 -0.1616  0.0061
27161W        W33611  22.242   1.940   1.712  0.1542 -0.2846  0.1585
27162W        W33612   7.046   2.721   5.125  0.1264  0.2350  0.4783
27163W        W33613  16.983   5.254  10.448 -0.1924 -0.1873  0.1367
27164W        W33614   1.869   7.524   8.829  0.0691 -0.2476 -0.1122
27165W        W33615   0.955   2.871   1.452 -0.3064 -0.1986  0.0140
27166W        W33616  29.879   3.296   3.670  0.2589  0.2054 -0.1174
27167W        W33617   4.745   6.261  21.199  0.2517 -0.0881  0.0761
27168W        W33618   4.252   1.563   9.640 -0.0550  0.0170 -0.5097
27169W        W33619  11.364   6.300  24.408 -0.2648  0.2233 -0.0708
27170W        W33620  13.978   0.772   9.893 -0.0435  0.0582 -0.0320
27171W        W33621  22.954   1.791  21.469  0.0475  0.0473 -0.1014
27172W        W33622   5.348   2.760   4.685 -0.1998 -0.1039 -0.1389
27173W        W33623   9.637   3.090  24.146 -0.5020 -0.1835  0.0825
27174W        W33624  19.605   0.968   1.888  0.1399  0.2178 -0.0555
27175W        W33625   2.929   1.450   5.440 -0.0638 -0.2239  0.1189
27176W        W33626  14.832   1.617   4.197  0.4485  0.1091 -0.0361
27177W        W33627  19.949   2.410   4.432 -0.0945 -0.0336  0.0421
27178W        W33628   9.503   7.679   4.354  0.2261 -0.0359 -0.1233
27179W        W33629   7.028   6.266  23.844  0.1135 -0.0159  0.0454
27180W        W33630  13.684   1.558   6.217 -0.1099  0.0904  0.0430
27181W        W33631   2.704   3.400  17.871 -0.1505  0.0742  0.0691
27182W        W33632  18.649   5.844  22.171 -0.0548 -0.0610 -0.0071
27183W        W33633  16.896   3.451   9.974 -0.1037 -0.2499  0.0241
27184W        W33634   1.741   6.376   9.434 -0.1530  0.1491  0.1826
27185W        W33635   1.784   7.200  10.580  0.0008  0.1341  0.0615
27186W        W33636   6.045   4.828  16.423 -0.2245  0.1132 -0.0328
27187W        W33637  23.857   2.295   7.048  0.1260 -0.0103  0.1194
27188W        W33638   8.732   1.267   8.969  0.1272  0.1089  0.0180
27189W        W33639  26.354   4.728   6.623  0.1583  0.0546  0.1430
27190W        W33640   2.210   7.666  26.162  0.2182  0.0717 -0.1310
27191W        W33641  10.746   7.337   4.559  0.0218  0.2289 -0.1542
27192W        W33642  18.517   0.578   9.881 -0.0420  0.1059 -0.1663
27193W        W33643   0.602   4.732  21.170 -0.0013 -0.3148  0.1666
27194W        W33644   0.578   2.412  16.019 -0.0239  0.0115  0.0057
27195W        W33645   1.238   5.524   7.386  0.0997  0.2573  0.3603
27196W        W33646  22.559   7.716  10.752 -0.2918 -0.0033 -0.1709
27197W        W33647  23.060   1.220  11.275  0.0854 -0.0152  0.1340
27198W        W33648  15.114   2.357  10.648  0.1460  0.2166 -0.1825
27199W        W33649  29.033   7.430   1.016  0.0464  0.3283 -0.0065
27200W        W33650  13.010   6.280   7.577 -0.1539 -0.2728 -0.2487
27201W        W33651  13.357   0.107  15.699  0.0643  0.0485  0.2434
27202W        W33652  20.116   7.420   7.326  0.2856 -0.0889 -0.0071
27203W        W33653  28.661   6.745  25.739 -0.0958  0.4303 -0.0030
27204W        W33654   0.681   0.453  18.966  0.1420  0.0551  0.0489
27205W        W33655  21.909   0.726  22.268  0.0787  0.3487  0.0437
27206W        W33656  18.585   4.678  19.773 -0.1564 -0.0920  0.0615
27207W        W33657   6.202   3.825   2.326 -0.1488 -0.1412  0.0853
27208W        W33658   9.139   2.734  24.655 -0.1372  0.0769 -0.2098
27209W        W33659  29.901   7.086   1.918  0.3489 -0.0725 -0.3679
27210W        W33660  10.018   4.072  17.442 -0.0306 -0.0371 -0.2777
27211W        W33661   2.395   3.250  19.728  0.0663  0.0022  0.0512
27212W        W33662  14.904   5.672   0.124 -0.0724 -0.0423 -0.1128
27213W        W33663  13.123   0.372  17.151 -0.2121 -0.0182 -0.1043
27214W        W33664   7.963   2.624  16.052  0.3809 -0.0971 -0.2488
27215W        W33665  22.882   7.287  19.287 -0.1455  0.2320  0.2744
27216W        W33666  27.736   4.414  14.996  0.0298  0.2189  0.0592
27217W        W33667   6.907   0.313   3.592  0.0994  0.0293  0.3035
27218W        W33668  17.356   5.878  23.811  0.4304  0.0394 -0.1096
27219W        W33669  10.065   1.973   6.672  0.1018 -0.1211 -0.2959
27220W        W33670  13.688   4.582  18.589 -0.0980 -0.2431  0.2023
27221W        W33671   7.286   7.675   1.833  0.0941  0.1333 -0.3547
27222W        W33672  17.517   1.269  15.329 -0.1643 -0.0059 -0.1192
27223W        W33673  11.945   0.762   7.785 -0.0969  0.2311 -0.2816
27224W        W33674  16.524   4.372  20.655  0.0124  0.1299 -0.0786
27225W        W33675  25.914   7.669   0.999  0.1943  0.0688 -0.1099
27226W        W33676   8.690   6.421   3.818  0.2498  0.0648  0.4880
27227W        W33677   2.813   1.251  23.576 -0.2560  0.2345  0.2798
27228W        W33678  22.274   1.562   2.096  0.1788 -0.1954  0.0052
27229W        W33679  21.621   4.600  24.185 -0.1394  0.0141 -0.0367
27230W        W33680  15.975   1.178   7.324 -0.0793  0.0328 -0.0750
27231W        W33681   3.440   6.645  18.218  0.0929 -0.2900 -0.3599
27232W        W33682  20.712   0.532  10.773 -0.0860 -0.0839  0.3294
27233W        W33683  28.396   4.639  25.374 -0.2684 -0.0702 -0.1453
27234W        W33684  24.219   1.916   0.325 -0.0906  0.0196 -0.1504
27235W        W33685  23.915   6.321   1.479  0.1223 -0.3424  0.2106
27236W        W33686   3.341   5.063   9.529 -0.2416  0.3644  0.0885
27237W        W33687  28.946   3.773  21.102 -0.2281 -0.0862  0.0808
27238W        W33688  21.752   0.039   2.331  0.1371 -0.0921  0.1630
27239W        W33689   0.476   6.000  20.753 -0.0260  0.0834 -0.0119
27240W        W33690  22.544   5.596   3.383 -0.1345  0.0183  0.1738
27241W        W33691   8.302   1.075  17.725 -0.0733 -0.1697  0.2796
27242W        W33692  14.011   3.718  18.452 -0.1077 -0.0860 -0.2148
27243W        W33693  16.671   2.230  18.945 -0.1194  0.2113 -0.1928
27244W        W33694  27.363   7.630  19.718  0.0157  0.2359  0.0464
27245W        W33695  12.292   3.389  10.248  0.0698 -0.0855  0.1548
27246W        W33696   6.247   4.227  18.427 -0.0851  0.1219 -0.0389
27247W        W33697  26.867   6.704   7.251 -0.3686 -0.2485  0.0891
27248W        W33698  15.775   1.209   3.691  0.0082  0.3392  0.4239
27249W        W33699  25.149   1.554  11.683  0.0642 -0.0685  0.1154
27250W        W33700   8.382   0.944   0.225 -0.2853 -0.3113 -0.0043
27251W        W33701   9.858   3.778   1.819 -0.1283 -0.3705 -0.1321
27252W        W33702  12.065   1.313   1.748  0.1581  0.2247 -0.0417
27253W        W33703   4.597   1.718   4.488  0.1275  0.0580  0.4285
27254W        W33704  26.374   5.228   6.055 -0.0043  0.0431 -0.0310
27255W        W33705   5.245   6.646   3.207  0.2074  0.0508 -0.0485
27256W        W33706  29.992   7.770  16.125  0.0677  0.0382 -0.3649
27257W        W33707   8.803   4.635  17.716 -0.0160 -0.0778 -0.0784
27258W        W33708   0.929   4.518   9.001  0.2280  0.0046  0.4782
27259W        W33709  17.239   3.516   9.131  0.1229  0.1597 -0.1298
27260W        W33710   9.457   1.141   4.259  0.0874  0.2158  0.2295
27261W        W33711  12.228   7.597  20.810 -0.1374 -0.0638 -0.1532
27262W        W33712  15.942   2.346  25.929 -0.0599  0.1075 -0.1140
27263W        W33713  21.697   3.747  23.690 -0.0997  0.1642 -0.2305
27264W        W33714  14.314   0.194   1.545  0.0489  0.2319  0.0585
27265W        W33715  15.995   1.214   1.483  0.1460  0.0475  0.2745
27266W        W33716   7.240   7.500   8.434  0.1107  0.0763  0.2121
27267W        W33717  24.141   4.854  15.773 -0.4533  0.1172 -0.2390
27268W        W33718  18.098   7.271  22.795 -0.0925 -0.0746  0.1846
27269W        W33719  14.117   4.800   2.880 -0.1004 -0.2136 -0.0033
27270W        W33720   8.414   4.246  17.432  0.1175 -0.1173  0.1828
27271W        W33721  22.914   0.733   0.554  0.0224  0.0923  0.2080
27272W        W33722  15.289   2.667  24.802 -0.2194  0.1269 -0.0933
27273W        W33723   1.504   2.643   5.066  0.0138 -0.0746  0.0613
27274W        W33724  23.430   2.252   7.369 -0.0317 -0.2130  0.0150
27275W        W33725  21.057   2.569   8.773 -0.0390  0.0942  0.1582
27276W        W33726  13.102   4.531  22.344  0.1807  0.0618 -0.2372
27277W        W33727  15.744   5.700   6.067 -0.0468 -0.1345  0.0791
27278W        W33728   7.942   7.205   3.949 -0.0898 -0.2197  0.2737
27279W        W33729   1.093   6.899  18.253  0.1612  0.4696  0.1479
27280W        W33730  15.145   1.595  19.367 -0.1337 -0.0125 -0.0827
27281W        W33731  30.582   6.752  24.588  0.1321 -0.1109  0.1008
27282W        W33732  23.358   7.042  20.669 -0.1523  0.0752  0.2457
27283W        W33733   6.479   0.688   1.242 -0.0947 -0.2336  0.2089
27284W        W33734  24.362   2.788  21.520 -0.0188 -0.3376  0.0361
27285W        W33735   4.726   2.255  20.385  0.1487  0.0475 -0.0249
27286W        W33736   0.146   0.770   7.956  0.0639  0.3172  0.1057
27287W        W33737  19.705   1.170  21.664 -0.0984  0.1600 -0.2827
27288W        W33738  27.295   4.651   7.693  0.2617  0.2043 -0.0480
27289W        W33739   5.947   0.649   4.644 -0.1765  0.2890  0.0974
27290W        W33740   8.360   7.665   9.085  0.0592 -0.1860 -0.2836
27291W        W33741   6.579   6.112  18.180 -0.4238  0.1351  0.1055
27292W        W33742   6.903   3.082  24.623  0.1652  0.0482 -0.1221
27293W        W33743   7.478   2.571  18.499 -0.1396 -0.1430  0.1625
27294W        W33744  27.024   0.153   4.318  0.0771  0.1239 -0.0314
27295W        W33745   5.112   3.310  22.622  0.1522 -0.1250  0.1281
27296W        W33746  12.538   3.880   3.523 -0.0522 -0.0059 -0.1130
27297W        W33747   7.640   5.441   9.772  0.2936  0.1198  0.0423
27298W        W33748   6.541   6.417   7.150  0.0595  0.1613 -0.0516
27299W        W33749  30.983   0.106  22.684  0.2419  0.0244 -0.0439
27300W        W33750  24.055   4.366   8.444 -0.0449  0.0230  0.0250
27301W        W33751  29.760   4.854   9.952  0.0114  0.1292  0.1274
27302W        W33752  11.312   6.594  14.816  0.0055 -0.0096  0.0620
27303W        W33753  28.049   3.237  20.146  0.1619  0.0299  0.0880
27304W        W33754  20.271   2.847   4.320  0.1428 -0.1430  0.0835
27305W        W33755   4.288   2.309  22.280  0.0108 -0.1208  0.3623
27306W        W33756  14.393   0.176   2.461  0.1976  0.3027 -0.0837
27307W        W33757   6.218   3.254  21.990 -0.1669 -0.1783  0.5134
27308W        W33758  14.952   6.562  21.378 -0.0898  0.1317 -0.2251
27309W        W33759   0.257   1.759   8.136 -0.1931  0.0110  0.0948
27310W        W33760  29.784   4.274  20.606 -0.1175  0.3362  0.0464
27311W        W33761  26.205   5.519   4.373 -0.3011 -0.0595  0.0426
27312W        W33762  19.745   3.458   4.775  0.2677 -0.3714  0.1031
27313W        W33763  20.445   1.964   6.026  0.1081  0.1600 -0.1378
27314W        W33764   6.927   6.032  16.167 -0.2351  0.0717 -0.1910
27315W        W33765   4.044   4.830  20.897 -0.1015  0.0396  0.0817
27316W        W33766   8.673   0.802  24.104  0.0714  0.0597  0.0582
27317W        W33767   5.589   1.026  23.042  0.1708 -0.0411 -0.2478
27318W        W33768  11.292   6.932   6.768  0.0173  0.1486  0.0362
27319W        W33769  22.945   4.550  23.029  0.0597  0.0034  0.0211
27320W        W33770  19.505   5.484  22.234 -0.0547  0.3197  0.0874
27321W        W33771  21.673   1.247  26.140  0.2558  0.2286 -0.2044
27322W        W33772  21.425   5.433   3.431  0.0304  0.0973 -0.1282
27323W        W33773  29.310   4.367   4.760 -0.2286  0.1748  0.1297
27324W        W33774   2.703   1.466  15.314 -0.0254  0.2196 -0.2299
27325W        W33775  20.066   1.148   8.353  0.1871 -0.0673  0.1752
27326W        W33776   4.369   2.942  16.086 -0.1269  0.0520  0.1732
27327W        W33777  28.725   3.965  21.831 -0.0812  0.0696  0.2014
27328W        W33778  20.663   1.499  21.889 -0.3287 -0.4498  0.3120
27329W        W33779   0.755   2.923   8.190 -0.2362  0.0001  0.1829
27330W        W33780  26.297   7.174   0.526 -0.0129 -0.2114 -0.0909
27331W        W33781   7.369   0.481   7.882 -0.0258  0.0556 -0.2156
27332W        W33782  10.973   5.767  17.931  0.0587  0.2122 -0.1786
27333W        W33783   3.378   3.221   8.879 -0.0618 -0.2372  0.1646
27334W        W33784   0.697   5.252   5.341 -0.1345 -0.3768  0.2083
27335W        W33785  24.929   0.411  23.038  0.1581  0.0006  0.0892
27336W        W33786  17.463   7.140   5.186  0.1628  0.0163 -0.1883
27337W        W33787   6.791   5.832  20.142 -0.0318 -0.0220 -0.2449
27338W        W33788   8.575   0.451  23.722 -0.3456  0.2037  0.1788
27339W        W33789  21.306   2.319  21.609  0.1115 -0.0917 -0.5381
27340W        W33790   8.136   3.009  17.565 -0.0353 -0.0129 -0.2842
27341W        W33791   2.977   3.420   7.100 -0.3843 -0.2073 -0.0768
27342W        W33792  21.834   4.971  26.040  0.0623 -0.0722  0.2196
27343W        W33793   1.813   0.401  25.350 -0.0431 -0.2374  0.1100
27344W        W33794  11.936   2.131  18.429 -0.2742  0.2061  0.1159
27345W        W33795   3.894   0.852   8.492 -0.1980 -0.0007 -0.0016
27346W        W33796   7.434   7.063   8.142  0.0273 -0.5501  0.0235
27347W        W33797  30.441   1.024  22.368 -0.0640  0.3098  0.0793
27348W        W33798  21.713   2.554   2.606 -0.2918 -0.0593  0.0692
27349W        W33799   0.372   1.374  19.689  0.0436  0.0612 -0.0943
27350W        W33800   9.173   7.795   1.461  0.0784  0.2608 -0.0299
27351W        W33801   6.818   2.501  10.742  0.0777 -0.0165 -0.1630
27352W        W33802  22.991   2.427   7.084 -0.1925  0.1110  0.1719
27353W        W33803   5.324   3.871  19.684 -0.0690  0.1402 -0.0376
27354W        W33804  20.992   1.369   6.958  0.1792  0.0077 -0.1092
27355W        W33805   5.398   1.832  10.116 -0.3329  0.1960  0.0270
27356W        W33806   4.588   6.791  18.066 -0.0494 -0.2871  0.1688
27357W        W33807  22.780   1.945  23.841 -0.0525  0.0485  0.0819
27358W        W33808   7.822   3.695   8.510  0.0348  0.0633 -0.4229
27359W        W33809   6.629   5.537  15.259 -0.2476 -0.2163  0.0112
27360W        W33810   9.398   2.151  15.951  0.0105  0.2240  0.0372
27361W        W33811   8.405   2.701  16.717  0.3684 -0.2079  0.2440
27362W        W33812   3.108   2.937   7.158  0.3245  0.1717  0.0585
27363W        W33813  26.982   4.216  20.304  0.0056 -0.0090 -0.2696
27364W        W33814  16.053   4.685  16.532 -0.3166 -0.0248  0.0251
27365W        W33815  11.613   7.369  10.119 -0.3691 -0.1287  0.1265
27366W        W33816  11.694   6.780  23.192  0.4312 -0.2347  0.0706
27367W        W33817   5.956   4.323   5.308 -0.1738 -0.1049 -0.3284
27368W        W33818   1.104   6.153  17.282 -0.0113  0.3502  0.0668
27369W        W33819   2.570   5.426   3.780  0.0033 -0.0296  0.1102
27370W        W33820   5.115   1.034  21.679  0.0858  0.1291 -0.0330
27371W        W33821  15.922   0.064  15.390  0.1329  0.1800 -0.1331
27372W        W33822  28.255   7.433   9.206 -0.2689  0.1638 -0.4087
27373W        W33823   3.246   2.775   3.284  0.1555  0.0159 -0.3756
27374W        W33824  23.449   7.170   3.047 -0.1423 -0.0121  0.1615
27375W        W33825  12.231   6.315  21.237  0.2588  0.2796 -0.1401
27376W        W33826  18.426   2.258  23.923  0.1251 -0.0330  0.0033
27377W        W33827  29.591   1.803  18.628  0.2022 -0.0990 -0.1866
27378W        W33828  17.168   3.930   9.338 -0.2297 -0.2677  0.0689
27379W        W33829   0.263   4.321  17.557  0.0941 -0.2526 -0.1212
27380W        W33830  18.853   4.250   6.965 -0.1299 -0.2667  0.1478
27381W        W33831  20.245   0.745   5.190 -0.3109 -0.1808  0.0444
27382W        W33832   1.490   6.378   7.229 -0.1106 -0.0032 -0.0142
27383W        W33833  16.239   2.840   1.076 -0.2599  0.0132  0.1091
27384W        W33834  26.525   4.910   9.049 -0.0265  0.3294  0.0392
27385W        W33835  25.206   7.404   6.756 -0.1186  0.0220  0.3457
27386W        W33836  16.038   2.513  25.057  0.0358 -0.1272  0.1448
27387W        W33837   6.620   0.651  16.874  0.3306 -0.0573 -0.3066
27388W        W33838   7.837   0.646   3.562  0.0585 -0.1944  0.0319
27389W        W33839  20.751   5.547   4.841 -0.2512  0.2622 -0.0812
27390W        W33840  16.642   4.291   9.060 -0.2546  0.2209  0.0346
27391W        W33841  27.598   0.484   7.723  0.0517  0.1964  0.0791
27392W        W33842  24.294   4.889   6.689  0.2779 -0.1605  0.3496
27393W        W33843   6.977   3.494  26.016  0.1299 -0.1173  0.1714
27394W        W33844   9.896   7.611   1.744  0.1596 -0.3087 -0.1525
27395W        W33845   1.424   4.596  16.338  0.0706  0.1243  0.4395
27396W        W33846  22.752   5.043  25.081  0.1738  0.0448 -0.4047
27397W        W33847   6.760   2.550  15.838 -0.0281 -0.2483  0.1793
27398W        W33848  10.444   7.714   2.835 -0.1813  0.0944  0.2680
27399W        W33849  20.780   3.102  21.978 -0.0505 -0.2124  0.0689
27400W        W33850  23.070   6.944   4.243  0.2309 -0.2953 -0.0398
27401W        W33851  21.938   1.849   3.199  0.3248 -0.0750 -0.0882
27402W        W33852  20.214   0.358   6.609  0.0848 -0.0469 -0.0752
27403W        W33853   6.005   3.391   5.180 -0.1498  0.2049 -0.1688
27404W        W33854  23.663   4.250   7.048 -0.0149  0.1745 -0.1939
27405W        W33855  13.200   4.947  16.081  0.3993 -0.0843 -0.3477
27406W        W33856  11.923   0.842   6.163  0.0250 -0.3206 -0.2679
27407W        W33857  24.398   7.741   3.689 -0.0459  0.1573  0.0919
27408W        W33858  19.828   0.300  21.124  0.1337 -0.0118  0.0405
27409W        W33859   9.453   7.393  25.657  0.0312  0.1475  0.0851
27410W        W33860  23.153   6.931   5.668  0.2223 -0.1896 -0.0149
27411W        W33861  12.830   4.893   0.111  0.5706  0.2128 -0.0844
27412W        W33862  19.436   3.567  10.815  0.1587  0.3159 -0.2055
27413W        W33863  19.927   5.087  24.120  0.1015 -0.2105  0.0496
27414W        W33864  11.360   2.071   4.737 -0.1665  0.0429 -0.0466
27415W        W33865  30.244   5.190  22.744 -0.1674 -0.1137  0.1160
27416W        W33866  14.418   1.194  19.992  0.0806 -0.2660  0.1120
27417W        W33867   0.531   1.899  25.228 -0.1235 -0.0220  0.1548
27418W        W33868  27.619   5.681   7.683 -0.0640  0.0886 -0.0349
27419W        W33869  21.934   2.766  22.010 -0.0601 -0.0614  0.0007
27420W        W33870  30.806   4.432   0.123  0.1704 -0.0263 -0.0735
27421W        W33871  13.981   3.759  23.649  0.1802  0.2582 -0.0541
27422W        W33872   7.676   6.801  23.241  0.1100  0.0562  0.1954
27423W        W33873  27.766   0.783   4.493 -0.3750  0.1766 -0.2622
27424W        W33874  27.716   2.964   6.326 -0.0023 -0.0735 -0.3592
27425W        W33875  27.093   2.431  18.235 -0.2495  0.1344  0.1452
27426W        W33876  11.086   5.702   5.697 -0.1828  0.0147 -0.1632
27427W        W33877   1.475   5.760  10.359  0.1031 -0.2728 -0.1229
27428W        W33878  15.544   5.496  19.681 -0.0803 -0.4220 -0.0125
27429W        W33879   8.421   2.617   3.850  0.0832 -0.1697  0.1241
27430W        W33880   8.781   6.143   7.250 -0.1007 -0.1743 -0.1807
27431W        W33881  16.190   4.122   8.127  0.1960  0.3144  0.1140
27432W        W33882  26.083   1.132  10.915  0.3405  0.5746  0.0480
27433W        W33883  14.974   7.289  20.378  0.1349  0.0052 -0.0254
27434W        W33884   0.821   1.703  23.445 -0.1161 -0.2542  0.1785
27435W        W33885   3.283   3.502   1.066 -0.0698 -0.0226  0.1659
27436W        W33886  18.874   0.697   3.704 -0.1245 -0.2904  0.2067
27437W        W33887   8.273   1.046  10.059 -0.1734  0.0447 -0.2776
27438W        W33888   1.394   1.394  10.263 -0.0123 -0.1235 -0.1913
27439W        W33889  22.210   1.985  22.979 -0.0126 -0.0549 -0.1148
27440W        W33890   6.274   3.059   9.791  0.1119  0.0313  0.2355
27441W        W33891  10.506   2.538  21.663  0.2439 -0.0686 -0.0744
27442W        W33892   6.811   0.542   8.503  0.0145 -0.0763  0.0776
27443W        W33893  13.896   1.780   3.237  0.1627  0.2289 -0.0198
27444W        W33894  24.124   0.820  16.976 -0.0805 -0.1639 -0.4934
27445W        W33895  17.364   1.010  16.260  0.1129  0.1101 -0.3363
27446W        W33896  22.874   4.606  22.283  0.1906  0.1501  0.1406
27447W        W33897  23.845   5.648  12.033 -0.1398  0.1768  0.3253
27448W        W33898  28.318   7.457  26.155 -0.0506  0.0201 -0.2242
27449W        W33899  11.097   3.414  21.171 -0.2275 -0.4561  0.1320
27450W        W33900  19.433   6.012  19.041 -0.3902 -0.3806  0.2495
27451W        W33901   0.984   3.826  20.918  0.0839 -0.3491 -0.1372
27452W        W33902  14.694   0.024   6.402  0.0546 -0.3363 -0.0371
27453W        W33903  25.122   3.772  26.025  0.0501 -0.1461 -0.2985
27454W        W33904  28.047   3.169  11.454 -0.1107 -0.0691  0.1484
27455W        W33905  10.764   3.955  24.685  0.2382  0.0501  0.0502
27456W        W33906   6.736   3.852   2.393 -0.0181  0.2306  0.0787
27457W        W33907  28.424   2.933  18.661  0.1805 -0.0581 -0.0194
27458W        W33908  25.670   0.952   7.193 -0.0134 -0.0601  0.4663
27459W        W33909  12.175   0.290  25.229  0.0127 -0.1872  0.1070
27460W        W33910  17.534   4.007  23.650 -0.0040 -0.0232  0.2181
27461W        W33911  14.437   2.644   5.550  0.1156  0.3698  0.3446
27462W        W33912  18.261   6.964  15.337  0.2754 -0.0698 -0.0618
27463W        W33913   1.416   3.525  23.459 -0.2624  0.3851 -0.0688
27464W        W33914  26.654   7.001   2.555 -0.1018 -0.1785 -0.0255
27465W        W33915  16.432   5.584  15.681 -0.1871 -0.0910 -0.0362
27466W        W33916  30.488   3.865  15.770  0.1194 -0.2445  0.0910
27467W        W33917  13.442   3.382   9.960  0.0787 -0.0765  0.2293
27468W        W33918  11.632   0.186  22.146 -0.0313 -0.2598 -0.0206
27469W        W33919  13.067   6.351   8.178 -0.1384  0.0611  0.1520
27470W        W33920  17.969   1.789   3.306  0.0907  0.0181 -0.3066
27471W        W33921   7.015   2.510  21.702  0.1615  0.1262  0.1380
27472W        W33922  10.029   6.378  18.284  0.0765  0.0937 -0.2093
27473W        W33923  14.694   6.256  17.888  0.0341  0.3545  0.0800
27474W        W33924  13.282   0.733   0.889  0.1216 -0.1308 -0.1043
27475W        W33925   3.183   1.385  18.559 -0.1461 -0.0361  0.0469
27476W        W33926   7.571   5.763  22.706  0.1385 -0.0640 -0.2167
27477W        W33927  29.387   7.507   2.410 -0.0670 -0.3947  0.0591
27478W        W33928  25.240   4.449   5.365 -0.1935  0.0659  0.0952
27479W        W33929  27.066   7.233   1.315  0.1766 -0.0115 -0.2810
27480W        W33930  20.125   7.450  26.107 -0.0697  0.1315 -0.1022
27481W        W33931  18.171   7.507  18.736 -0.2471 -0.3036 -0.1158
27482W        W33932   2.455   1.577   0.700 -0.2021  0.0767 -0.3381
27483W        W33933   9.171   2.641   1.285 -0.1133 -0.1069  0.0604
27484W        W33934  23.008   5.816   2.120 -0.1472 -0.1367 -0.2054
27485W        W33935  19.240   1.831   1.368  0.0852  0.1561  0.0159
27486W        W33936  31.074   2.760  19.319 -0.0088  0.0685  0.1289
27487W        W33937  30.470   4.276  22.299  0.0043 -0.2179  0.1323
27488W        W33938  14.246   4.207  18.205  0.4570  0.0015 -0.1036
27489W        W33939  14.617   4.788  25.367 -0.2767  0.0570 -0.0783
27490W        W33940   8.621   6.263  24.313 -0.3732  0.1880 -0.0829
27491W        W33941   0.573   4.059  10.251 -0.1083  0.0437  0.3331
27492W        W33942  12.195   3.418  19.656  0.5591 -0.0915  0.0072
27493W        W33943  22.605   0.972   4.482 -0.1160 -0.0306  0.0719
27494W        W33944   2.310   0.846   6.643  0.2248 -0.1492  0.1370
27495W        W33945  16.753   4.664   5.226 -0.0461  0.0536  0.0034
27496W        W33946  14.476   2.655   7.908 -0.0392 -0.0730  0.2148
27497W        W33947  19.983   3.880  18.271 -0.1177 -0.1902 -0.0950
27498W        W33948  25.354   5.185   7.204 -0.0769  0.1888  0.1059
27499W        W33949  21.671   6.533  16.507 -0.1445  0.1391 -0.0071
27500W        W33950   2.742   2.258  20.179  0.2316 -0.1987  0.0087
27501W        W33951  26.288   7.491  24.584  0.0135  0.1210  0.0569
27502W        W33952   5.759   7.466   4.262  0.1647  0.1170 -0.0757
27503W        W33953   6.476   0.730  19.797  0.4060 -0.2442 -0.0831
27504W        W33954   1.218   5.298   6.927  0.3851  0.1461  0.1725
27505W        W33955  25.344   2.859  20.912  0.0138  0.0011  0.2239
27506W        W33956   7.417   5.148   9.408 -0.3504 -0.1331 -0.0961
27507W        W33957   0.842   6.988  17.757 -0.1399  0.0158 -0.4136
27508W        W33958  15.674   4.681   0.130 -0.1957  0.0192  0.3089
27509W        W33959   4.849   5.733  20.974  0.2292  0.1736  0.2406
27510W        W33960  15.547   7.567   5.664 -0.1871  0.3438 -0.1754
27511W        W33961   2.235   6.135  16.364 -0.3300  0.1597 -0.0624
27512W        W33962  27.093   0.820  26.344  0.1375  0.1991 -0.0379
27513W        W33963   0.535   5.088  20.639 -0.2746  0.2696  0.2772
27514W        W33964  17.843   0.754  18.450 -0.1529  0.0383  0.0488
27515W        W33965   5.910   1.428   9.741 -0.1955  0.0509  0.2216
27516W        W33966  28.873   5.479   6.239 -0.1138 -0.3861 -0.0408
27517W        W33967   6.367   0.019  21.000 -0.2738  0.1437  0.2635
27518W        W33968   4.928   5.796  23.964 -0.0379  0.1199 -0.0963
27519W        W33969   5.315   5.484  16.998 -0.3650  0.1466 -0.0975
27520W        W33970   1.400   1.881   9.962 -0.2458  0.0954  0.0798
27521W        W33971  19.292   6.490  25.818 -0.0766 -0.2244 -0.0065
27522W        W33972   7.632   7.073  17.401  0.1049  0.2336  0.0495
27523W        W33973  11.488   0.832  18.269 -0.0882 -0.0992 -0.3662
27524W        W33974   9.690   3.674   6.348 -0.1427 -0.0186 -0.3277
27525W        W33975  10.119   1.175  21.478  0.0078 -0.0755 -0.1103
27526W        W33976  18.414   0.601  15.790 -0.0632 -0.3403  0.1310
27527W        W33977  30.257   0.717  11.385 -0.0591  0.0133 -0.0986
27528W        W33978  25.280   3.634   6.564 -0.0385 -0.0575  0.0179
27529W        W33979  13.554   4.030  22.316  0.1541 -0.1611  0.0663
27530W        W33980  20.494   5.558  10.183  0.1686  0.0284 -0.2059
27531W        W33981  29.716   6.565   9.475  0.0589  0.0066  0.1981
27532W        W33982   9.686   7.790  19.573 -0.0237  0.2403 -0.1117
27533W        W33983  11.297   4.748   9.187 -0.0727  0.0284 -0.1412
27534W        W33984  29.998   4.247   9.822  0.1499 -0.3098 -0.1613
27535W        W33985  24.658   2.352  23.604  0.0540  0.0773  0.3006
27536W        W33986  27.643   6.687  23.604  0.1490  0.1299 -0.0842
27537W        W33987  30.892   7.547  21.593 -0.3863  0.1372 -0.0160
27538W        W33988  28.234   6.638  10.331 -0.0836  0.1025 -0.0268
27539W        W33989   8.233   7.725  19.406  0.2053  0.3451  0.1197
27540W        W33990  18.717   1.687  18.432 -0.0546 -0.1024  0.0580
27541W        W33991   3.913   2.472   9.523  0.0585  0.1250 -0.0032
27542W        W33992  17.989   7.318  17.865 -0.0200  0.0015 -0.0343
27543W        W33993  16.161   2.283  25.452 -0.3796  0.2150 -0.1271
27544W        W33994  19.397   4.080  15.641  0.1562 -0.2751 -0.0259
27545W        W33995  22.775   1.523  20.397 -0.1440 -0.0297 -0.0277
27546W        W33996   5.504   1.488   9.222 -0.0326  0.0110  0.1189
27547W        W33997   7.477   4.424  18.505  0.0356  0.0434  0.1587
27548W        W33998   6.923   5.814  23.598 -0.1349 -0.1078  0.1805
27549W        W33999  25.513   6.105   9.098  0.0357  0.1266  0.0050
27550W        W34000   1.117   5.610  17.425  0.0687  0.0834  0.1660
27551W        W34001  13.716   6.252  23.726 -0.1964 -0.1752  0.0885
27552W        W34002  21.956   3.807   0.572 -0.3401  0.0451 -0.1460
27553W        W34003   9.027   4.316  24.060 -0.1401 -0.2252  0.0122
27554W        W34004   4.476   3.421  23.818 -0.0451 -0.0929  0.1544
27555W        W34005  20.413   7.314   8.186  0.0358  0.0838  0.2437
27556W        W34006   8.932   7.744  23.210  0.0179 -0.0359 -0.1300
27557W        W34007  14.266   5.172  19.257  0.2530  0.0328  0.1410
27558W        W34008   2.366   3.568   8.017 -0.2975  0.0149  0.2693
27559W        W34009  23.610   1.243   2.906 -0.2440 -0.1836 -0.1315
27560W        W34010  19.951   6.379  15.721  0.2052 -0.1210 -0.0287
27561W        W34011  19.715   7.371   2.234 -0.1332 -0.5420  0.2804
27562W        W34012  18.938   6.239   2.057  0.1613  0.1661 -0.0703
27563W        W34013  14.134   3.025   9.575  0.2336 -0.2520 -0.1157
27564W        W34014  20.831   4.113  17.265 -0.0462  0.0063  0.1889
27565W        W34015   7.001   3.005  15.738 -0.0065  0.0048 -0.1557
27566W        W34016  22.204   1.292  10.140 -0.0801  0.1159  0.2311
27567W        W34017   7.768   3.734  23.314  0.1443 -0.0065  0.1029
27568W        W34018  13.535   0.045   7.820 -0.3289  0.2213 -0.0683
27569W        W34019  14.523   3.882   8.564 -0.1300 -0.0868 -0.1149
27570W        W34020  26.941   0.900   8.590  0.0128  0.3652 -0.0780
27571W        W34021  25.517   2.565  16.915 -0.2335 -0.4352  0.1537
27572W        W34022  16.422   2.512   7.454  0.0902  0.5330 -0.0791
27573W        W34023  24.305   5.662   5.296 -0.1391 -0.0787 -0.3667
27574W        W34024  11.830   4.014   5.758  0.2732  0.0920  0.2281
27575W        W34025  13.902   7.192   7.372  0.2734 -0.2500  0.0145
27576W        W34026  19.350   1.301   7.516 -0.2352 -0.3504 -0.3094
27577W        W34027  10.461   0.110   8.460 -0.1331  0.1821 -0.2487
27578W        W34028  20.803   3.686   9.397  0.2228 -0.0244 -0.2453
27579W        W34029  10.778   3.001  18.586  0.2571 -0.0604  0.0763
27580W        W34030   1.390   2.448   8.833 -0.0470  0.0832 -0.2962
27581W        W34031  10.017   0.568   7.285 -0.2488  0.0773 -0.2260
27582W        W34032  22.315   4.386  18.199 -0.3059 -0.1304  0.3325
27583W        W34033   9.530   3.895  22.072 -0.0908 -0.1793  0.1882
27584W        W34034  12.730   4.613  23.456 -0.4036  0.0844 -0.1123
27585W        W34035  19.452   7.457   7.186 -0.0577  0.1475  0.1791
27586W        W34036  26.061   0.066  18.431  0.3894 -0.1036 -0.0482
27587W        W34037   2.651   2.230  15.797  0.0727  0.3238 -0.0411
27588W        W34038   3.808   3.483   7.412 -0.2922  0.2716 -0.1139
27589W        W34039   7.110   1.822   4.680 -0.0479 -0.2320 -0.2597
27590W        W34040  14.221   7.726   2.005 -0.1531 -0.2657  0.2409
27591W        W34041  22.689   4.063   0.380  0.1273 -0.4688  0.0014
27592W        W34042  26.487   4.341  25.436  0.3930  0.0568 -0.2373
27593W        W34043  22.752   0.387   5.456  0.0302 -0.1533  0.0180
27594W        W34044  16.590   4.881  25.453  0.2868  0.0484 -0.0596
27595W        W34045   9.886   0.234   5.907  0.1056  0.1385 -0.0518
27596W        W34046  15.858   3.132   1.268  0.0521  0.0719  0.3377
27597W        W34047  13.076   7.456  16.870  0.4431  0.1898 -0.0227
27598W        W34048  13.947   2.346   4.172  0.2588  0.1569  0.1743
27599W        W34049   9.547   3.852   2.237  0.0961  0.0337 -0.1537
27600W        W34050   4.796   0.848   1.439 -0.1147 -0.0074 -0.2982
27601W        W34051  22.388   7.254  19.080 -0.0067 -0.1994 -0.0923
27602W        W34052  28.235   4.063  24.260 -0.1044 -0.2793  0.0785
27603W        W34053   9.667   7.588  16.379 -0.3351 -0.2893 -0.0319
27604W        W34054  10.935   3.595  20.121  0.3044 -0.2116  0.1849
27605W        W34055  20.155   3.022   6.741  0.0919 -0.0126  0.2960
27606W        W34056  29.007   7.067  19.655  0.2093  0.2121  0.0235
27607W        W34057  21.552   2.762   9.590 -0.0521  0.0139  0.2381
27608W        W34058  10.956   3.507   7.858 -0.0345 -0.0687 -0.0248
27609W        W34059  27.746   7.505  20.941  0.1553 -0.0877 -0.0267
27610W        W34060   5.099   3.120  24.160 -0.0788  0.1138 -0.0454
27611W        W34061   5.338   0.468   6.047 -0.1345  0.0287  0.0676
27612W        W34062   5.729   4.377  22.663 -0.0739 -0.1457 -0.1695
27613W        W34063   0.079   4.877   1.459 -0.1030  0.1282  0.0032
27614W        W34064   4.292   4.809  11.302  0.0020 -0.1325 -0.0914
27615W        W34065  16.909   7.115  18.825 -0.2107  0.1561  0.2618
27616W        W34066  19.469   5.172  17.133 -0.2082  0.0436 -0.3517
27617W        W34067  21.462   0.403   0.979  0.0700 -0.0200  0.0254
27618W        W34068  27.912   6.241  10.231 -0.2225  0.4905  0.1525
27619W        W34069  23.726   2.162   8.212  0.1386 -0.0757 -0.1932
27620W        W34070  26.352   3.684   5.081  0.0014  0.1489  0.1535
27621W        W34071  12.307   7.391  24.666 -0.1525 -0.2023 -0.1486
27622W        W34072  11.880   4.270  24.073  0.1148 -0.0882 -0.4304
27623W        W34073  20.483   5.744  15.917  0.3033  0.0301  0.1679
27624W        W34074   7.806   4.054  16.282 -0.1002  0.0839  0.0723
27625W        W34075  15.103   4.036   5.869  0.3317 -0.1362 -0.1820
27626W        W34076  17.199   2.590  17.133 -0.3276 -0.1383  0.0866
27627W        W34077   6.481   6.979   8.561  0.2056 -0.1954 -0.2751
27628W        W34078   0.976   3.881   0.670  0.0942 -0.2767 -0.0730
27629W        W34079  21.118   6.006  19.606 -0.1152 -0.1228 -0.0116
27630W        W34080   4.793   3.427   8.450 -0.2990  0.1193 -0.1271
27631W        W34081  18.482   0.012   2.426  0.0787 -0.1677  0.1094
27632W        W34082  15.345   3.756  18.644 -0.1767 -0.3843  0.2914
27633W        W34083  27.780   7.072  10.720 -0.2000  0.0162 -0.0323
27634W        W34084  11.919   0.422   3.352 -0.1669 -0.0849 -0.1102
27635W        W34085  11.260   3.940   5.509 -0.1474  0.0706 -0.0256
27636W        W34086   4.674   5.766   0.100  0.1083 -0.0013 -0.0710
27637W        W34087  13.860   6.300   4.563  0.2321  0.1384  0.2232
27638W        W34088  12.223   2.894   2.451 -0.1812 -0.1480  0.0883
27639W        W34089   4.656   3.823   1.340 -0.0063 -0.3520 -0.0226
27640W        W34090  19.135   5.161   6.089 -0.2662  0.1006  0.0194
27641W        W34091  13.895   7.613  18.847  0.0330 -0.0724 -0.1783
27642W        W34092   6.222   6.926   3.808  0.1213  0.0431 -0.0585
27643W        W34093   3.588   5.184   6.142  0.0659  0.1212  0.1074
27644W        W34094  30.547   0.248  25.653 -0.2043 -0.0045 -0.1128
27645W        W34095  21.855   5.891  16.887  0.1881  0.2334 -0.1568
27646W        W34096   5.555   3.009  24.870  0.2661  0.1724  0.0373
27647W        W34097  18.536   7.243   7.451  0.1045 -0.3126 -0.0096
27648W        W34098  28.022   5.907  20.162 -0.0919  0.1910  0.0632
27649W        W34099   0.785   0.159   5.107  0.0257  0.0157 -0.1060
27650W        W34100   9.912   2.968  10.901 -0.2226  0.0812  0.0099
27651W        W34101   0.436   7.559   0.064  0.2964 -0.1005 -0.2181
27652W        W34102  15.599   0.354  17.130 -0.0328  0.0234 -0.0196
27653W        W34103  21.897   0.057   8.434 -0.2705 -0.5483  0.1393
27654W        W34104  22.819   2.633  24.672  0.1847  0.6824  0.1786
27655W        W34105  13.091   1.872   1.348  0.0301 -0.0223  0.2969
27656W        W34106  16.981   1.257  25.375  0.2670  0.0583  0.1184
27657W        W34107  29.767   0.513   5.429  0.1623 -0.1012 -0.2172
27658W        W34108   9.443   3.591  19.581  0.0365  0.1153 -0.1967
27659W        W34109  28.553   2.604  23.879  0.0980  0.5026  0.2467
27660W        W34110  29.506   5.764  19.617  0.0073  0.3350 -0.0547
27661W        W34111   8.893   7.347  20.188 -0.0259 -0.0834  0.0593
27662W        W34112   2.530   4.988   2.153  0.0111 -0.1035  0.0513
27663W        W34113  18.986   2.951  24.163 -0.1266  0.1031 -0.0090
27664W        W34114  26.920   2.573  23.062 -0.1409 -0.1509  0.0354
27665W        W34115   6.287   5.164  23.958 -0.0614 -0.0901  0.2626
27666W        W34116  29.432   3.981   1.108 -0.0078  0.1101 -0.0815
27667W        W34117  13.749   2.227  22.772  0.1977  0.0297 -0.2376
27668W        W34118  13.545   3.624  18.760 -0.1342  0.0082 -0.0216
27669W        W34119   8.223   7.534  25.498  0.0183  0.0871  0.0170
27670W        W34120  19.731   3.067   6.092 -0.0563 -0.1330 -0.1120
27671W        W34121  30.196   2.097   5.341 -0.1705  0.0870 -0.1520
27672W        W34122   5.056   2.198  17.905  0.0543  0.3216  0.2071
27673W        W34123   3.423   1.800  10.189 -0.1505 -0.0754  0.1455
27674W        W34124  10.777   3.044  22.924  0.1152  0.0273 -0.2431
27675W        W34125  14.335   0.278  21.180 -0.0983 -0.1772  0.0455
27676W        W34126  16.445   4.614   8.111  0.0661  0.1138 -0.2291
27677W        W34127  14.744   4.390   4.984 -0.0501  0.0635 -0.0065
27678W        W34128  16.886   5.565   3.281 -0.0451 -0.0553 -0.1075
27679W        W34129  29.524   7.395   4.055  0.0818  0.2664  0.1661
27680W        W34130  19.146   3.774  17.994 -0.2234 -0.0277  0.2145
27681W        W34131  24.167   3.698   5.233  0.1545  0.0280 -0.0117
27682W        W34132  28.261   2.531   0.657 -0.0912 -0.0604 -0.0383
27683W        W34133  12.895   2.641   8.231  0.0571 -0.0669 -0.0113
27684W        W34134   7.952   3.148  18.832 -0.2518 -0.1396  0.1510
27685W        W34135   3.292   3.240  16.523  0.2744  0.0022  0.1707
27686W        W34136  12.478   0.980  24.210  0.0051  0.0989  0.2827
27687W        W34137  20.604   4.290   7.966  0.0649  0.0088 -0.1668
27688W        W34138   1.231   7.585   2.126  0.1260 -0.0219  0.0315
27689W        W34139  16.997   5.172   9.572 -0.1495 -0.1047  0.2973
27690W        W34140  22.248   5.625  25.358  0.1198  0.0350 -0.0113
27691W        W34141   2.795   0.356  10.453  0.0596 -0.0032  0.2411
27692W        W34142  29.964   2.727  25.873  0.1175  0.0678 -0.1184
27693W        W34143   5.068   3.209   8.068 -0.0600  0.3156 -0.0188
27694W        W34144  11.874   5.313   9.435 -0.0174 -0.2922  0.3296
27695W        W34145  13.984   1.447  26.214  0.2967 -0.2908 -0.0821
27696W        W34146   4.905   4.671   3.577 -0.0118  0.0762 -0.2154
27697W        W34147  23.883   3.262  24.216 -0.4500 -0.2788 -0.1040
27698W        W34148   0.596   2.106   9.703  0.0943  0.1912  0.0430
27699W        W34149   4.411   4.892  21.369  0.0699  0.1707 -0.1123
27700W        W34150   0.434   5.904   3.779  0.0855  0.2897 -0.1843
27701W        W34151  10.738   0.087  25.232 -0.2418 -0.0972 -0.0148
27702W        W34152  15.773   4.767   2.210  0.0607 -0.0347 -0.1904
27703W        W34153  12.476   3.971   7.757  0.1023  0.2369  0.1638
27704W        W34154  13.028   3.279   5.574 -0.0221 -0.0687 -0.0159
27705W        W34155  24.973   7.400  22.941 -0.1456 -0.0792  0.2300
27706W        W34156  16.471   6.388  20.755  0.5169  0.0994 -0.3008
27707W        W34157   0.254   5.697   1.434 -0.2508 -0.2766  0.1135
27708W        W34158   3.446   1.155   2.432 -0.2240 -0.0871 -0.1047
27709W        W34159  23.879   2.560   3.710  0.2679  0.2276 -0.0100
27710W        W34160  11.325   2.878  16.605 -0.3783 -0.0147 -0.2060
27711W        W34161  26.947   5.283  16.243  0.1539  0.0844 -0.1219
27712W        W34162   2.315   5.796   3.361 -0.0721  0.1565 -0.0221
27713W        W34163  23.303   3.581   9.864 -0.1221 -0.0228  0.1686
27714W        W34164  20.701   6.853  20.260  0.1234  0.0621  0.2679
27715W        W34165  27.453   1.496   4.143  0.0089  0.2253 -0.2509
27716W        W34166  26.494   3.450   7.167  0.2678 -0.4667 -0.1507
27717W        W34167   8.571   6.060   1.406 -0.1136 -0.2736  0.3050
27718W        W34168   9.048   4.319  10.831  0.0422 -0.0137 -0.1286
27719W        W34169  17.077   1.006  24.556 -0.2046  0.0059  0.0454
27720W        W34170  11.880   1.365   7.760  0.1250  0.5380  0.1394
27721W        W34171   5.161   7.453  26.029  0.1136  0.0252 -0.0889
27722W        W34172  11.808   3.630   9.304 -0.4748 -0.1950  0.2700
27723W        W34173  16.717   0.385  20.237  0.0136 -0.0329  0.2343
27724W        W34174  23.541   2.285   0.145 -0.2069 -0.1512  0.2700
27725W        W34175  13.450   2.876   1.779  0.2574  0.0254 -0.1519
27726W        W34176  23.651   1.105   5.899  0.1177 -0.0924 -0.0936
27727W        W34177  20.148   7.165   8.797  0.2102 -0.3280  0.0654
27728W        W34178  30.599   6.406  15.600  0.0397 -0.0259 -0.0879
27729W        W34179  24.807   5.226   8.749  0.1064  0.0893 -0.2505
27730W        W34180  13.396   1.179  24.758  0.2590  0.0340 -0.2080
27731W        W34181  19.989   6.804  25.570 -0.0610 -0.0283  0.2882
27732W        W34182  11.670   1.242  22.447  0.0615 -0.0327  0.0589
27733W        W34183  21.547   2.007   1.270 -0.3487 -0.1476  0.3894
27734W        W34184   7.532   3.728   7.163 -0.1064  0.1523  0.2111
27735W        W34185  19.907   6.753   1.769  0.2739  0.0653 -0.3081
27736W        W34186  26.993   3.700   2.321  0.2864  0.1403 -0.0193
27737W        W34187  30.304   3.480  17.994  0.3442  0.1102  0.0820
27738W        W34188  12.848   3.692   7.699 -0.0229  0.0872 -0.1162
27739W        W34189  17.091   1.544   9.687 -0.0157  0.1407  0.2759
27740W        W34190   6.794   6.779  17.899  0.0702 -0.0935  0.1227
27741W        W34191  23.534   5.156   6.838  0.2966  0.0264  0.2293
27742W        W34192  11.629   3.127  16.364 -0.1479  0.0285  0.2564
27743W        W34193   1.007   3.136  16.546  0.0476  0.0112 -0.1516
27744W        W34194  23.864   0.734  23.509 -0.1299 -0.0386  0.0949
27745W        W34195   1.103   3.399  10.306 -0.0397 -0.1099 -0.0215
27746W        W34196  20.198   7.017  16.815  0.0932  0.2691 -0.0151
27747W        W34197  26.449   7.667  16.260 -0.0178 -0.1247 -0.1416
27748W        W34198   6.326   0.829  18.765 -0.0169 -0.2288  0.2173
27749W        W34199  11.722   6.580   4.940  0.3163 -0.0562  0.2019
27750W        W34200  16.118   5.009  21.207  0.0921 -0.0600 -0.1527
27751W        W34201   9.387   2.806  23.080 -0.0420  0.0664  0.2286
27752W        W34202  23.275   3.175   4.371 -0.2597  0.0382  0.1026
27753W        W34203   4.331   3.128   8.375 -0.0523  0.2276 -0.0466
27754W        W34204  25.135   4.160  22.295  0.1475 -0.2139 -0.0949
27755W        W34205  20.932   3.316  17.628 -0.2292 -0.0380  0.1472
27756W        W34206   8.896   0.546  16.010  0.1088  0.0033  0.0408
27757W        W34207  11.698   2.823  25.104  0.1238  0.1110  0.0972
27758W        W34208   6.983   4.447   5.992 -0.1168  0.0483 -0.2043
27759W        W34209  20.978   3.055  15.941  0.0265 -0.1391 -0.1998
27760W        W34210  14.677   3.314  10.513  0.1179  0.0146 -0.1698
27761W        W34211  18.232   7.579  18.153  0.3797 -0.0698  0.1004
27762W        W34212   0.041   4.806  15.021 -0.2171 -0.2441 -0.2401
27763W        W34213   8.845   3.572  19.177 -0.0981  0.1779 -0.0110
27764W        W34214  16.463   3.594  22.325  0.0829 -0.2226  0.0234
27765W        W34215  24.951   4.354   2.062  0.2731  0.0945 -0.0160
27766W        W34216  20.729   5.177  23.325 -0.1560  0.1372 -0.1459
27767W        W34217   0.810   2.629  24.363  0.2495 -0.1741 -0.0263
27768W        W34218  15.016   4.060  17.930 -0.1125 -0.2202 -0.0298
27769W        W34219  26.143   3.895   6.578 -0.3898 -0.0159  0.4548
27770W        W34220  25.055   2.016  11.182 -0.0237 -0.0980  0.0191
27771W        W34221   4.093   5.057  16.745  0.0184  0.1956  0.1811
27772W        W34222   4.046   0.214   2.901 -0.0947 -0.1877 -0.0787
27773W        W34223  13.062   0.603  19.504  0.1117  0.1102  0.0236
27774W        W34224  23.329   4.395  10.549  0.1934  0.1950 -0.2092
27775W        W34225  12.431   4.801  15.648 -0.2894  0.1876 -0.1610
27776W        W34226  21.809   1.093   9.794  0.2563  0.0333 -0.0860
27777W        W34227   3.656   1.378  23.624 -0.1528 -0.1372 -0.1203
27778W        W34228  15.493   2.411   6.863 -0.0655  0.2015  0.5011
27779W        W34229  12.336   2.810  24.982  0.2862  0.2174  0.1711
27780W        W34230   5.138   1.213  22.927  0.0032 -0.1374 -0.0022
27781W        W34231  26.290   5.483  20.753  0.2529 -0.1432  0.1219
27782W        W34232  28.294   5.191  18.642 -0.0072 -0.1551 -0.1507
27783W        W34233   8.128   3.613   1.682 -0.1749 -0.1110 -0.0696
27784W        W34234  18.607   6.804  19.359 -0.0416 -0.1057  0.1473
27785W        W34235  19.441   3.934  15.182  0.1415 -0.3958 -0.1148
27786W        W34236  28.459   3.083  22.916  0.1111  0.1284 -0.0735
27787W        W34237   8.007   6.463  22.186 -0.1059 -0.1835 -0.0747
27788W        W34238  24.526   0.589   1.012 -0.4180  0.1187 -0.1352
27789W        W34239   2.120   6.688   1.854  0.0182  0.3955 -0.1815
27790W        W34240  29.990   4.087   8.885  0.0879 -0.1767  0.0360
27791W        W34241  26.182   6.495  16.467  0.0219  0.1194 -0.3477
27792W        W34242  26.509   3.864   4.510  0.0273 -0.2155 -0.1048
27793W        W34243   7.590   1.586   0.184  0.1252  0.2277  0.1408
27794W        W34244   9.390   4.147  23.058 -0.1079  0.0827  0.1618
27795W        W34245   5.562   4.693  25.450  0.0749  0.1503 -0.2160
27796W        W34246  20.638   3.424  21.089 -0.1522 -0.0401 -0.2473
27797W        W34247   5.810   6.797   8.472 -0.0917  0.0039 -0.0299
27798W        W34248  22.469   5.817   9.834 -0.1710  0.0880  0.0838
27799W        W34249   7.123   3.377   0.186 -0.0430 -0.0459 -0.1157
27800W        W34250   3.271   3.252  19.559  0.2651 -0.1238  0.0712
27801W        W34251  24.862   0.197  19.032  0.2309  0.0586 -0.0619
27802W        W34252  27.922   4.074   6.335  0.4627  0.3168  0.1347
27803W        W34253  22.428   0.219   5.811 -0.0003 -0.2202  0.0472
27804W        W34254  11.640   1.232  17.375 -0.2167 -0.1962  0.0384
27805W        W34255  14.238   7.576   9.337  0.1923 -0.2706  0.0508
27806W        W34256   9.586   2.695   4.132 -0.2623 -0.2943  0.1876
27807W        W34257  29.040   0.167  22.389 -0.1642  0.0784 -0.1051
27808W        W34258  29.755   7.484  22.606 -0.0331  0.0893  0.1584
27809W        W34259  15.401   3.690   2.223 -0.2750 -0.1383  0.0524
27810W        W34260  26.475   2.703  23.093  0.1806  0.2960 -0.0728
27811W        W34261  10.210   5.779   7.035 -0.1645  0.0215 -0.4426
27812W        W34262  30.961   2.468  16.674 -0.0875  0.0214  0.1782
27813W        W34263  30.448   6.008   5.541 -0.1335 -0.2343  0.2616
27814W        W34264  30.045   2.203   7.726  0.2623  0.0444 -0.2037
27815W        W34265  27.542   3.830   6.711 -0.0922  0.1144 -0.2244
27816W        W34266  26.495   5.913   2.582  0.0035 -0.0270  0.1890
27817W        W34267  21.025   4.953  18.186 -0.2916  0.3995 -0.0016
27818W        W34268  18.567   2.978  25.446 -0.0245 -0.2440 -0.1572
27819W        W34269  19.813   0.832   3.823  0.1914 -0.0428  0.1125
27820W        W34270  24.559   3.158  18.794 -0.2802 -0.2205  0.3750
27821W        W34271   2.136   4.287  22.319 -0.1424  0.0638 -0.1305
27822W        W34272  14.993   4.443  19.649 -0.0850 -0.3202  0.0177
27823W        W34273  11.732   1.892  17.643 -0.4521  0.0919  0.4555
27824W        W34274  13.218   4.701  23.647  0.0080  0.0711 -0.0054
27825W        W34275  21.591   6.575  22.943 -0.0777 -0.0662 -0.2449
27826W        W34276  10.399   2.053   3.496  0.0523  0.1432 -0.1947
27827W        W34277  19.319   5.709   0.211  0.3103  0.1405 -0.0735
27828W        W34278   2.960   7.057  16.953 -0.2391 -0.0520  0.3394
27829W        W34279  13.816   3.894   5.840  0.0078 -0.3784  0.3430
27830W        W34280  18.450   1.708  16.760 -0.1923  0.3937 -0.2539
27831W        W34281   0.610   7.787  22.033 -0.2689 -0.1059 -0.0360
27832W        W34282   4.994   6.276   7.337  0.1108 -0.0086 -0.3744
27833W        W34283   8.387   5.505   4.849  0.1398 -0.1139 -0.0109
27834W        W34284  29.460   1.402  20.910 -0.0162  0.0584  0.0178
27835W        W34285  19.858   3.943   0.755  0.3450  0.2195  0.0260
27836W        W34286  26.414   3.914  10.126  0.5014  0.2851 -0.0345
27837W        W34287   4.291   2.445   4.693 -0.1094 -0.2977 -0.1353
27838W        W34288  20.515   0.298   9.470 -0.0203 -0.0139  0.1453
27839W        W34289   6.425   0.898   2.963 -0.1948  0.0615  0.0428
27840W        W34290  21.737   7.238   8.368 -0.0019 -0.3648  0.0590
27841W        W34291  20.502   3.695  24.238 -0.1490 -0.0892  0.1390
27842W        W34292  17.503   7.143  26.173 -0.2642  0.2989  0.1947
27843W        W34293   5.450   6.212  16.730  0.1104  0.0233  0.0066
27844W        W34294  30.874   5.954   3.933  0.4240 -0.0594 -0.2161
27845W        W34295  14.355   3.223  22.867 -0.4570 -0.1856  0.0621
27846W        W34296  28.027   2.781  22.190 -0.1325  0.0506  0.0626
27847W        W34297   7.136   6.466  20.243 -0.3241  0.1255  0.0339
27848W        W34298  12.359   2.670   8.291  0.1891  0.0456 -0.0035
27849W        W34299   4.036   5.089   0.318 -0.0081 -0.0925  0.1699
27850W        W34300   6.488   6.812   5.329  0.1005 -0.3573 -0.0140
27851W        W34301   6.234   1.369  20.300 -0.0749  0.0333  0.1617
27852W        W34302  19.885   2.055  20.793 -0.2535  0.1841  0.1797
27853W        W34303  17.835   0.003  23.795 -0.0415  0.2170  0.1546
27854W        W34304  31.009   6.759  16.327 -0.1107  0.0720  0.2799
27855W        W34305  29.614   3.741   6.219  0.2332 -0.0651 -0.1945
27856W        W34306   6.520   6.061  10.226  0.2907  0.1172  0.0035
27857W        W34307  31.071   2.758  17.847 -0.0128  0.2436 -0.0335
27858W        W34308   0.645   6.896  24.014 -0.4812 -0.0443 -0.0877
27859W        W34309   2.538   4.992  24.483  0.0375 -0.0481 -0.1018
27860W        W34310  10.873   1.518   2.181  0.0623  0.0189 -0.0566
27861W        W34311   7.740   4.720  20.973 -0.2093  0.0187  0.1450
27862W        W34312   7.420   0.098  20.431  0.2505  0.1359  0.1034
27863W        W34313  20.081   4.285  25.790 -0.2508 -0.1181  0.1309
27864W        W34314   9.209   4.191   1.245  0.0355  0.0082  0.3667
27865W        W34315  26.110   5.864  23.967  0.2626 -0.0270  0.0404
27866W        W34316   4.349   2.578  20.260  0.0447  0.0783 -0.2420
27867W        W34317  13.438   7.694  21.108 -0.1270 -0.0726 -0.0815
27868W        W34318  17.448   6.142  20.719  0.3162  0.0197 -0.1398
27869W        W34319   2.298   3.490  24.583  0.3894 -0.0315 -0.0978
27870W        W34320  27.049   6.116  19.292  0.1063 -0.2269 -0.0702
27871W        W34321   9.963   4.306   4.845 -0.1129 -0.2879  0.4448
27872W        W34322   9.271   3.552  11.218  0.1247 -0.3056  0.2626
27873W        W34323  18.441   1.558  19.554  0.2125  0.0581 -0.0052
27874W        W34324   0.307   4.421  11.418 -0.2137  0.2043 -0.0506
27875W        W34325   3.819   2.232   0.635  0.1971  0.1420  0.1437
27876W        W34326  18.734   5.981   8.276  0.0531  0.2193 -0.0112
27877W        W34327   4.443   6.894   3.750  0.2103 -0.0403 -0.0215
27878W        W34328  18.070   1.882   7.107 -0.0052 -0.3478  0.0169
27879W        W34329  26.834   4.868  10.456 -0.2623  0.0598  0.0423
27880W        W34330  30.190   6.351   3.473  0.1475 -0.2142 -0.2451
27881W        W34331   2.726   5.052  10.267 -0.1689  0.0163 -0.2682
27882W        W34332  28.540   2.437   9.473 -0.1768  0.2998  0.0363
27883W        W34333  14.777   0.041   4.629 -0.1095  0.0134 -0.2667
27884W        W34334  23.944   5.775  17.858  0.2136  0.0377  0.1620
27885W        W34335  19.228   5.138   1.766 -0.2541 -0.0414  0.3108
27886W        W34336  20.066   1.662  22.552 -0.2793 -0.5628  0.2511
27887W        W34337  20.425   2.996  18.404 -0.1542 -0.2724 -0.0134
27888W        W34338  14.843   3.434  11.187 -0.0793  0.1458 -0.2608
27889W        W34339  29.593   6.839   7.950 -0.3278 -0.0864 -0.0728
27890W        W34340  19.019   3.955   4.004 -0.1335 -0.0678  0.0321
27891W        W34341   2.475   0.208  18.782 -0.0389  0.0271 -0.0082
27892W        W34342   2.450   7.790  10.294 -0.2955  0.2133 -0.0444
27893W        W34343  14.415   6.684  22.401 -0.1926  0.2422 -0.0744
27894W        W34344  10.264   2.908  23.158 -0.0577 -0.0512  0.1874
27895W        W34345   0.183   6.019  23.676 -0.3648 -0.0492  0.0926
27896W        W34346  17.875   5.625   3.591 -0.1631  0.1863 -0.1224
27897W        W34347  24.502   6.121   4.379 -0.0303 -0.0374  0.0022
27898W        W34348   0.692   4.189   9.777 -0.1160  0.2005  0.0237
27899W        W34349   2.675   3.665   1.499  0.0993  0.3034 -0.0482
27900W        W34350  11.343   2.934  25.698  0.1906  0.2522 -0.3330
27901W        W34351  20.252   7.413  15.911  0.0262 -0.5275  0.0849
27902W        W34352  28.050   5.196  20.544 -0.1911 -0.1522  0.1911
27903W        W34353   0.684   1.470   5.771  0.1607 -0.0314 -0.2042
27904W        W34354  12.635   0.378   4.420 -0.2048 -0.2204  0.1509
27905W        W34355  29.757   5.610   8.574  0.1601 -0.0202  0.0758
27906W        W34356  30.661   5.064  19.929  0.2129  0.0097  0.0738
27907W        W34357  20.262   0.100  20.996 -0.1829 -0.2069  0.0571
27908W        W34358  21.506   5.272  17.925  0.0684 -0.2000 -0.1471
27909W        W34359  18.137   0.878  25.904  0.0150 -0.1044 -0.2056
27910W        W34360  21.882   7.377  17.626 -0.0547 -0.2542  0.2273
27911W        W34361  26.248   6.476  20.431  0.0561 -0.0154  0.1097
27912W        W34362  11.490   6.601  24.052 -0.7657 -0.1979 -0.0609
27913W        W34363  29.877   6.622  21.105  0.1108 -0.0321 -0.0671
27914W        W34364  18.377   4.841  19.162  0.0365 -0.2816  0.2537
27915W        W34365  17.838   6.542  23.098  0.3396  0.1964 -0.0619
27916W        W34366   1.459   4.727  10.050  0.0966  0.3280 -0.0122
27917W        W34367   7.496   0.432  15.580  0.1411 -0.0143  0.0489
27918W        W34368  19.215   2.551  17.396 -0.0257 -0.3973 -0.3494
27919W        W34369  13.396   6.566  25.255  0.2397  0.1503 -0.0654
27920W        W34370  16.441   5.066   8.988  0.1931  0.3981  0.0282
27921W        W34371  10.076   2.840  24.559  0.0983 -0.2532 -0.1088
27922W        W34372  26.794   2.999   7.373  0.2239  0.0414 -0.0079
27923W        W34373  10.390   2.975   4.942  0.1899 -0.0598 -0.0817
27924W        W34374  19.521   0.755   7.523  0.3389 -0.0768  0.0172
27925W        W34375  21.213   5.325  16.388  0.0491  0.0301  0.2555
27926W        W34376   8.359   5.034   3.343 -0.1991  0.0878 -0.3277
27927W        W34377  25.975   2.729   5.030 -0.0984  0.1293  0.1717
27928W        W34378   7.971   2.778  25.380 -0.0996  0.3604  0.0642
27929W        W34379  24.206   5.122  22.469  0.2911  0.2245 -0.0731
27930W        W34380  14.551   4.213  20.916 -0.1135 -0.1929 -0.2676
27931W        W34381  11.047   5.394  17.630  0.0592 -0.0530  0.2173
27932W        W34382  11.240   7.725  25.969 -0.2334 -0.0180 -0.0829
27933W        W34383   0.591   7.346  21.002 -0.0556  0.0032 -0.1173
27934W        W34384   3.327   1.140  26.322  0.0767  0.0171 -0.1026
27935W        W34385  21.356   1.825   6.955  0.0667 -0.1189 -0.0538
27936W        W34386   1.918   4.737  16.207  0.0983  0.0875  0.1471
27937W        W34387  12.436   5.271   1.656 -0.0428  0.0031  0.0018
27938W        W34388  25.947   1.322   6.035 -0.0786  0.1583  0.0652
27939W        W34389  23.157   4.103   8.571  0.0685 -0.0041 -0.1692
27940W        W34390   7.402   7.193   5.711 -0.1851  0.0848  0.0103
27941W        W34391  20.109   4.346  16.505 -0.0175 -0.1558  0.2010
27942W        W34392   3.163   2.466  20.235  0.0713  0.1324  0.2187
27943W        W34393   5.585   7.597  24.085  0.1080  0.3125 -0.0861
27944W        W34394  28.416   1.440   0.355  0.1832 -0.0431  0.2596
27945W        W34395   9.973   1.603  23.772 -0.3350 -0.1179  0.0493
27946W        W34396  26.873   5.301  16.835 -0.2012 -0.1994 -0.0947
27947W        W34397  26.794   5.911  19.748 -0.0623 -0.1024  0.1500
27948W        W34398   2.792   2.007  25.889  0.0819 -0.0263  0.1030
27949W        W34399  22.430   7.197   7.763 -0.1372 -0.0147 -0.0069
27950W        W34400  14.940   4.068  18.948 -0.5429 -0.0758  0.1363
27951W        W34401  10.584   3.959  16.017 -0.1223 -0.0533 -0.0075
27952W        W34402   3.592   0.525  25.763  0.1129 -0.1061  0.1145
27953W        W34403  30.106   6.773   3.736 -0.0187  0.0121 -0.0926
27954W        W34404  18.179   1.107   8.853 -0.0435  0.0801  0.0253
27955W        W34405   4.105   4.883   9.976  0.1911 -0.0177  0.0154
27956W        W34406  12.760   1.796   6.947 -0.1685  0.1125 -0.0761
27957W        W34407  20.675   1.928  16.619  0.0137  0.2000 -0.0854
27958W        W34408  28.050   0.277   6.800  0.0066  0.3370 -0.0693
27959W        W34409  12.234   3.818   5.085  0.1167  0.0309 -0.0096
27960W        W34410  22.675   5.774  18.785  0.2568 -0.1781 -0.2300
27961W        W34411  23.390   4.795   1.951 -0.2540  0.0060 -0.1662
27962W        W34412  20.215   4.068   1.698  0.0644 -0.3494 -0.1378
27963W        W34413  13.542   3.615   2.819  0.0679 -0.1388 -0.1167
27964W        W34414  29.294   5.271  22.220 -0.0280  0.1810  0.1097
27965W        W34415  15.320   3.783   9.173 -0.4249 -0.0900 -0.3133
27966W        W34416  25.245   2.687  19.338  0.1047 -0.1106  0.1266
27967W        W34417  30.685   0.130  15.499 -0.0604  0.0276  0.4461
27968W        W34418  17.170   0.650  20.320 -0.3020 -0.0615  0.0470
27969W        W34419   0.408   4.407  16.575 -0.3756  0.2138  0.1265
27970W        W34420  11.880   3.633  25.593  0.1251 -0.1159  0.0408
27971W        W34421  25.172   6.505  16.273 -0.0722 -0.1133 -0.2599
27972W        W34422   9.921   2.811  18.388 -0.0387 -0.0372  0.2042
27973W        W34423  23.367   0.079  24.678  0.1664  0.1009 -0.1899
27974W        W34424  17.159   4.221  19.754 -0.1670 -0.0776  0.0694
27975W        W34425  23.136   5.866  22.737  0.1095  0.0381 -0.1222
27976W        W34426  17.876   7.460  20.837 -0.0080  0.1875  0.0525
27977W        W34427  21.341   7.139   7.075 -0.2091 -0.2260  0.1455
27978W        W34428   1.481   5.913   4.147 -0.3918 -0.0057 -0.0106
27979W        W34429  28.883   6.188   4.181 -0.2503  0.1984 -0.0938
27980W        W34430   8.725   0.615   2.864  0.2056  0.0509 -0.0527
27981W        W34431  17.407   4.119   3.876 -0.0773 -0.1847 -0.0014
27982W        W34432  13.858   5.018  18.984 -0.1453  0.0207  0.2318
27983W        W34433  24.509   1.711   9.916  0.0018  0.1731 -0.1281
27984W        W34434  15.173   5.148   6.909 -0.2279 -0.0481  0.0046
27985W        W34435  12.516   3.819  25.320 -0.1900  0.0112 -0.2015
27986W        W34436   0.359   6.989   9.335  0.3716  0.1219  0.1385
27987W        W34437  10.264   7.244  21.290 -0.2676  0.0344  0.1124
27988W        W34438  12.331   6.038  20.139 -0.1598  0.1366 -0.0319
27989W        W34439  24.974   2.134  25.964 -0.1519 -0.0121  0.0877
27990W        W34440  29.452   2.209  23.999 -0.0181  0.1967  0.0747
27991W        W34441   0.960   1.620   9.851 -0.1344  0.1616 -0.0646
27992W        W34442   4.166   7.550  16.223  0.0905 -0.2429 -0.0904
27993W        W34443  29.796   6.044  22.503 -0.0368 -0.1636  0.0464
27994W        W34444  30.926   5.494   6.842 -0.1116 -0.0742  0.1081
27995W        W34445   6.957   5.155  23.993  0.0137  0.2462  0.0270
27996W        W34446   1.178   5.750   1.248  0.0033  0.0674 -0.0580
27997W        W34447  15.275   5.378  26.423  0.0347  0.0681 -0.4959
27998W        W34448   3.503   1.509  15.110  0.0153  0.0353 -0.0506
27999W        W34449  20.037   3.149   3.389 -0.2787 -0.0691  0.2353
28000W        W34450  25.403   1.118  20.769  0.2059 -0.1698  0.0110
28001W        W34451   1.468   3.415  18.567 -0.0403  0.1313 -0.0577
28002W        W34452  28.675   2.744  11.470 -0.2407  0.4042 -0.3056
28003W        W34453  26.512   3.722   3.957  0.2786 -0.1178  0.2964
28004W        W34454   1.614   4.026  22.064  0.3857 -0.0018  0.0177
28005W        W34455  16.318   6.582   6.692 -0.2003 -0.0769 -0.0418
28006W        W34456  23.246   6.201  19.396  0.3541  0.4490 -0.2485
28007W        W34457   1.807   0.927  11.373 -0.0987 -0.2726 -0.0513
28008W        W34458   6.984   2.763  16.753 -0.0084 -0.1305 -0.3023
28009W        W34459   0.725   2.503  10.412 -0.2850 -0.0497  0.0094
28010W        W34460  19.481   2.801   3.408 -0.0499 -0.1996 -0.2460
28011W        W34461   1.699   7.388   0.411  0.1559  0.1738  0.0505
28012W        W34462  14.508   0.055  20.803  0.2024  0.1074  0.1383
28013W        W34463  29.501   1.651  11.123 -0.0009  0.3730 -0.0940
28014W        W34464  20.358   7.254   3.052 -0.0343 -0.2259 -0.0494
28015W        W34465  29.122   2.758   1.152 -0.2569 -0.1330  0.2079
28016W        W34466  20.085   2.694  15.873 -0.2048 -0.3111  0.5432
28017W        W34467   1.043   4.925   8.698  0.1895  0.0723  0.1035
28018W        W34468  15.376   5.694  15.504  0.1154 -0.2461 -0.2425
28019W        W34469  12.832   5.701   3.095 -0.1290  0.0421  0.1241
28020W        W34470  22.642   2.162   6.072  0.2251  0.0880  0.0770
28021W        W34471   8.315   0.117  22.411  0.0414 -0.2471  0.3901
28022W        W34472  11.494   1.692   8.921 -0.1073 -0.3868 -0.2017
28023W        W34473   8.630   7.348  16.538  0.0043 -0.1079  0.2726
28024W        W34474  17.667   3.828   9.424 -0.0264  0.3473 -0.1201
28025W        W34475  23.554   3.380  21.685  0.1477 -0.2087  0.1691
28026W        W34476  26.962   5.173   4.221  0.1797 -0.2093  0.2015
28027W        W34477  20.838   4.672  19.911  0.1422 -0.0580  0.1502
28028W        W34478  19.995   4.434   3.084  0.0698 -0.1143 -0.0065
28029W        W34479  23.067   2.945  16.223 -0.0065  0.3533 -0.1739
28030W        W34480   6.748   1.987  22.155  0.1277  0.4326  0.0845
28031W        W34481  26.636   7.486   8.261  0.0164  0.0275  0.3966
28032W        W34482  12.791   5.733  20.221 -0.0993 -0.1907  0.0665
28033W        W34483  27.127   3.761   1.321  0.3747 -0.0189 -0.3788
28034W        W34484   4.533   3.229   2.781  0.0406 -0.3244  0.1564
28035W        W34485  28.492   0.533   9.740  0.0207  0.0315  0.1946
28036W        W34486  12.172   4.786  24.141  0.1610 -0.1783 -0.2556
28037W        W34487  11.581   6.142   4.291 -0.1633 -0.0676 -0.0513
28038W        W34488   6.827   3.548   5.830  0.0801 -0.0261  0.2754
28039W        W34489  29.276   6.758  20.047  0.1935  0.0151  0.0722
28040W        W34490  28.004   3.723  24.553 -0.2137 -0.1639  0.2287
28041W        W34491  29.097   1.028  10.800 -0.2998  0.0558  0.1084
28042W        W34492  24.761   1.692   0.880 -0.1691  0.1882  0.1364
28043W        W34493   9.940   0.511   2.383 -0.2816  0.0766 -0.2611
28044W        W34494  12.031   5.564  21.520 -0.0828  0.0645  0.2881
28045W        W34495   8.431   6.642  22.257 -0.0646  0.0983  0.1100
28046W        W34496  27.327   2.611  19.906  0.2326 -0.0802  0.2154
28047W        W34497   1.270   7.268   0.573  0.3274  0.0181 -0.0103
28048W        W34498   5.294   5.961   5.838  0.0875 -0.2833 -0.1678
28049W        W34499  22.635   2.829   2.581  0.3334  0.2992  0.0019
28050W        W34500  19.050   5.236   4.243  0.1819 -0.1394  0.3539
28051W        W34501   8.784   7.473  26.223 -0.0824  0.0061 -0.0127
28052W        W34502  30.653   0.019   6.430  0.1663 -0.2002  0.1002
28053W        W34503   7.752   5.173   7.780 -0.0145 -0.2411  0.0850
28054W        W34504   8.771   3.504  24.174  0.1616  0.2681 -0.0388
28055W        W34505  24.169   0.060  23.037  0.1264  0.0688 -0.1964
28056W        W34506  16.136   7.610  19.317  0.2002 -0.4682 -0.0471
28057W        W34507   4.001   2.293   6.605  0.1186  0.2887  0.0820
28058W        W34508  11.591   6.396  16.953 -0.1530 -0.1348 -0.2762
28059W        W34509  12.588   0.591  25.459 -0.1877  0.2255  0.1125
28060W        W34510  12.231   6.296  15.988 -0.2143 -0.0284 -0.1372
28061W        W34511  13.782   0.399   3.536  0.2183  0.1200 -0.3379
28062W        W34512  12.674   3.997  17.264 -0.1983  0.0060  0.0285
28063W        W34513   7.212   5.063  10.874 -0.2046 -0.4223  0.0918
28064W        W34514   2.362   4.742   6.302  0.1194 -0.1391 -0.0028
28065W        W34515  26.932   2.497  10.425  0.0777 -0.4137  0.0832
28066W        W34516  16.449   6.216  18.540  0.1849 -0.0845  0.1690
28067W        W34517  18.561   1.763  15.048 -0.2005  0.0873 -0.0100
28068W        W34518  12.248   6.736   8.692 -0.0166  0.3917  0.1269
28069W        W34519   2.860   2.317  18.377  0.2191 -0.0134  0.1242
28070W        W34520   4.695   7.305   3.431 -0.1091  0.1203 -0.0281
28071W        W34521  22.568   6.693  23.590 -0.1453 -0.0207 -0.0594
28072W        W34522   6.540   6.991  21.722  0.0050  0.0046  0.0236
28073W        W34523  23.515   4.019   2.463  0.0695 -0.3167  0.3471
28074W        W34524   0.741   0.068   9.766  0.1011  0.1836 -0.0596
28075W        W34525  18.872   3.532  15.974 -0.1015 -0.1757  0.2817
28076W        W34526  13.881   1.965  21.797 -0.1595 -0.0216  0.0196
28077W        W34527  19.629   4.975   6.002 -0.0385  0.2143  0.2967
28078W        W34528  12.185   4.160   2.373  0.0217 -0.1555  0.1073
28079W        W34529  13.965   1.462   3.666  0.0081  0.3748 -0.1603
28080W        W34530  18.076   2.774  18.589 -0.2139  0.0116  0.3082
28081W        W34531  25.211   4.131   2.927  0.2527 -0.0011  0.2633
28082W        W34532  25.136   7.271  20.154 -0.0921 -0.0870  0.0364
28083W        W34533   1.599   5.183  21.654 -0.3558  0.0602  0.0288
28084W        W34534   0.599   5.441  18.486 -0.2610 -0.1186 -0.0802
28085W        W34535  30.460   4.320   7.562 -0.1149  0.2389  0.0585
28086W        W34536   0.350   6.038  19.191 -0.3472 -0.0470 -0.2947
28087W        W34537  28.752   1.645   4.660  0.1234 -0.1573  0.1922
28088W        W34538  25.682   4.753  23.050  0.0020 -0.0607  0.4433
28089W        W34539   9.868   0.198  23.411 -0.0163  0.0986  0.0456
28090W        W34540   9.321   4.354  20.183  0.3328 -0.0650  0.1758
28091W        W34541   6.496   0.040   2.399  0.1648  0.0233 -0.0072
28092W        W34542   8.924   2.430  19.648 -0.2961  0.0414  0.1088
28093W        W34543  19.118   0.862   8.382  0.2087  0.0810  0.0043
28094W        W34544   2.610   0.741   5.897  0.0495  0.0582  0.1167
28095W        W34545  28.042   5.327  18.226  0.0088 -0.3932  0.1177
28096W        W34546  17.044   3.945   5.706  0.0922 -0.2272 -0.0561
28097W        W34547  17.042   5.432  18.792 -0.0554  0.0839 -0.2517
28098W        W34548  29.264   5.996  24.511  0.1330 -0.2414 -0.2453
28099W        W34549  31.110   7.564  15.731 -0.0282  0.1348  0.0311
28100W        W34550  26.447   2.259  23.184  0.1763 -0.2937  0.1524
28101W        W34551  17.636   3.010   3.915 -0.1338  0.1537 -0.1112
28102W        W34552   1.190   0.249  15.193 -0.0723 -0.2046  0.1511
28103W        W34553   8.939   5.553   6.329 -0.0309 -0.1846 -0.3649
28104W        W34554  16.547   5.824   7.291  0.3036  0.0072  0.1833
28105W        W34555  22.581   6.972   7.334  0.0951 -0.0836  0.0163
28106W        W34556  24.002   4.881  15.285  0.0019  0.0385 -0.0107
28107W        W34557  24.111   2.984   9.427  0.0459  0.1428  0.2791
28108W        W34558  10.751   6.641   1.502 -0.0299 -0.1541 -0.0074
28109W        W34559   5.720   2.549   0.691 -0.0913  0.5571  0.3312
28110W        W34560   9.111   6.327   4.671  0.0970  0.1318 -0.1264
28111W        W34561  20.020   1.972  18.013  0.0447  0.1677  0.1258
28112W        W34562  30.493   5.964  25.165 -0.1258  0.1956 -0.0484
28113W        W34563   0.257   5.140  15.413 -0.2388 -0.3419  0.1035
28114W        W34564  29.770   2.661  18.397  0.3426 -0.0104  0.2808
28115W        W34565   7.909   4.497  21.842 -0.0635  0.1852 -0.0001
28116W        W34566  30.747   1.501  16.111  0.1233  0.0076  0.0087
28117W        W34567  29.382   3.981   2.474 -0.0691  0.0214 -0.1740
28118W        W34568   3.986   0.442   3.868  0.1442 -0.2341 -0.0632
28119W        W34569  30.384   1.590  24.280  0.3889 -0.0333  0.1619
28120W        W34570  19.539   0.356  10.084  0.1429 -0.0778  0.2386
28121W        W34571   5.262   6.578  21.040 -0.0703  0.2464 -0.0329
28122W        W34572  18.133   4.520   2.661  0.0656  0.1170 -0.0333
28123W        W34573  26.685   1.156   1.664  0.2565 -0.0063  0.2130
28124W        W34574  15.582   0.841   2.355 -0.2452  0.0136 -0.0073
28125W        W34575  20.903   6.944   6.374  0.0308 -0.0560  0.1838
28126W        W34576   6.343   5.865   2.822 -0.2434 -0.1169 -0.0547
28127W        W34577  26.892   3.390   8.227 -0.2240 -0.3236  0.0190
28128W        W34578  22.825   1.927   1.802  0.0361 -0.4938 -0.3274
28129W        W34579  22.127   1.600  16.341 -0.0671 -0.1100 -0.1068
28130W        W34580   1.434   1.756   4.278 -0.0641 -0.1613  0.1317
28131W        W34581  16.161   4.032  22.354 -0.3560 -0.0528 -0.0118
28132W        W34582  27.169   5.168  23.506  0.0034 -0.2878 -0.0473
28133W        W34583  20.523   0.753  22.219  0.0467  0.3406  0.0202
28134W        W34584   6.475   0.626   3.742 -0.0224 -0.1308 -0.0227
28135W        W34585  18.036   4.047  19.250  0.1412 -0.3243  0.2342
28136W        W34586   0.112   0.966   9.256  0.0758  0.0369 -0.0036
28137W        W34587   0.313   5.821  20.255  0.0627  0.1472  0.2176
28138W        W34588  26.678   3.884   6.202 -0.0009  0.1501  0.1260
28139W        W34589  26.802   6.721  24.428  0.1378  0.1278 -0.0692
28140W        W34590   4.146   5.578  25.271  0.0957 -0.0722  0.0315
28141W        W34591  29.497   1.772   0.347 -0.0831 -0.1983 -0.0912
28142W        W34592  20.556   3.018  15.672  0.1960 -0.2598 -0.0404
28143W        W34593  14.673   0.311   7.306 -0.0889 -0.0844 -0.0716
28144W        W34594  17.954   6.624   0.528 -0.4368  0.0467  0.0188
28145W        W34595  24.293   5.478  24.732  0.3129 -0.1230 -0.2287
28146W        W34596   8.179   2.207  22.518 -0.0256 -0.1840 -0.0066
28147W        W34597  23.763   7.703   7.702 -0.0032 -0.3215 -0.2837
28148W        W34598  12.432   0.836  10.524  0.3568 -0.0451  0.2428
28149W        W34599   3.888   3.020   0.664 -0.0015 -0.2772  0.0323
28150W        W34600   4.635   2.752  18.621 -0.1276  0.0352 -0.1335
28151W        W34601  28.530   4.204   5.668  0.0628 -0.0151 -0.2493
28152W        W34602  19.709   6.886  24.593  0.1611  0.1301 -0.2035
28153W        W34603   9.762   0.471   9.031  0.0384  0.1865 -0.3554
28154W        W34604  25.401   1.877  15.080  0.2503  0.2063 -0.1153
28155W        W34605   0.605   3.291  16.996 -0.1560  0.1640 -0.1453
28156W        W34606  19.473   4.350  10.884 -0.3554 -0.3727  0.1075
28157W        W34607  18.751   1.394   8.099  0.2565  0.0164  0.1956
28158W        W34608  31.103   5.751  21.651 -0.2055  0.0859  0.1710
28159W        W34609  20.704   6.705   9.094 -0.0037  0.1555  0.1480
28160W        W34610  28.070   5.307  20.052  0.1855  0.1556  0.5674
28161W        W34611  12.864   4.161   8.672  0.1104  0.0535 -0.2676
28162W        W34612  21.639   7.793  11.855  0.1975 -0.0614 -0.0913
28163W        W34613  11.245   3.479  23.941  0.2188 -0.0277  0.1855
28164W        W34614  29.963   3.172  10.621 -0.4566 -0.1901 -0.0682
28165W        W34615   7.254   0.160  17.344 -0.1987 -0.1127 -0.0764
28166W        W34616   5.260   6.974  22.402  0.1299  0.3954  0.1309
28167W        W34617  30.633   3.844   1.568  0.1074 -0.2101  0.1397
28168W        W34618  27.252   1.500  16.441 -0.1328  0.0602  0.0777
28169W        W34619  28.130   4.528  10.211 -0.3218  0.2168 -0.1031
28170W        W34620   1.899   1.518  21.431 -0.2641 -0.1719 -0.0212
28171W        W34621   3.428   4.844  15.433  0.2786  0.1341  0.2105
28172W        W34622  12.612   1.980   7.857  0.0560  0.1363 -0.1800
28173W        W34623  21.536   6.049  24.247 -0.0796  0.1826  0.0748
28174W        W34624  26.572   1.970   8.075  0.0777  0.2749  0.0568
28175W        W34625  28.570   1.572  23.062  0.0153  0.0561  0.3190
28176W        W34626  23.134   2.040   5.762 -0.2531  0.1982  0.0678
28177W        W34627   9.632   6.791   7.100 -0.1995 -0.1187 -0.2364
28178W        W34628  20.448   6.522  20.664 -0.0058 -0.0241  0.0658
28179W        W34629  28.510   3.555   7.659  0.1984 -0.2226  0.0282
28180W        W34630  30.563   1.958  26.204  0.0155  0.3932 -0.1497
28181W        W34631   7.334   1.737  25.429 -0.0405 -0.0182  0.0252
28182W        W34632  11.591   2.317   4.241 -0.0760  0.3180 -0.3164
28183W        W34633  22.613   2.576  17.881  0.0339  0.1675  0.0160
28184W        W34634  25.884   5.629   1.955  0.2363 -0.0823  0.1864
28185W        W34635   2.248   6.372  20.087  0.1145  0.0649 -0.0130
28186W        W34636   4.639   1.859   7.226  0.1555  0.3938  0.1982
28187W        W34637  19.043   6.376  10.798  0.1554 -0.3431 -0.1499
28188W        W34638   8.107   1.901  20.004 -0.0030  0.3376 -0.1117
28189W        W34639   7.645   0.173   8.141  0.0615 -0.0258 -0.0374
28190W        W34640   5.114   7.401   2.933 -0.1169 -0.0078 -0.3519
28191W        W34641  27.010   1.756  20.382 -0.0152 -0.2987  0.1177
28192W        W34642   0.740   7.423   5.303  0.1340 -0.2852 -0.1424
28193W        W34643   4.831   5.866   6.874  0.1980 -0.2946 -0.0233
28194W        W34644  23.406   1.559  19.037  0.2753  0.1814  0.0694
28195W        W34645  27.117   6.778  19.956 -0.1641  0.1272 -0.2234
28196W        W34646   9.786   7.518  26.013  0.1426 -0.2932 -0.0720
28197W        W34647   5.959   6.638   3.300 -0.1439  0.1668  0.0071
28198W        W34648  23.516   7.114   3.984  0.0979 -0.2210  0.1419
28199W        W34649  10.421   6.237   8.753  0.3270 -0.1302  0.0503
28200W        W34650  27.474   4.448  10.952 -0.2367 -0.1736 -0.3723
28201W        W34651  19.116   0.588  26.076 -0.1343  0.0668  0.1005
28202W        W34652   1.818   2.638   1.982 -0.2904 -0.1217  0.1502
28203W        W34653   8.975   4.909  24.857  0.2262 -0.4906  0.0798
28204W        W34654   1.659   0.790  21.728  0.0271  0.0689  0.2172
28205W        W34655   6.531   1.457   5.758  0.2566 -0.1076 -0.0878
28206W        W34656   6.512   6.922  16.852  0.0043 -0.2105  0.1730
28207W        W34657  15.298   7.472   2.416 -0.2314  0.0662 -0.0249
28208W        W34658  13.221   2.425  16.233  0.0260 -0.0132 -0.0325
28209W        W34659   0.699   5.035  10.895 -0.3761 -0.0750  0.2503
28210W        W34660  13.627   1.899   4.219 -0.0928 -0.0998  0.2532
28211W        W34661  19.924   0.881  22.984 -0.0214 -0.0068 -0.1828
28212W        W34662  28.339   3.153  15.281  0.0516 -0.0022  0.1652
28213W        W34663   8.433   0.955  25.366 -0.4185  0.0769  0.2275
28214W        W34664  28.405   6.552  19.886  0.2335  0.1135 -0.2378
28215W        W34665  22.089   0.216   4.087 -0.3885  0.1670  0.3233
28216W        W34666   4.263   0.372  18.956  0.0122 -0.1517  0.2277
28217W        W34667   5.189   5.362   1.842 -0.0949 -0.2031 -0.1915
28218W        W34668  27.674   0.747  24.188  0.0477 -0.0938 -0.2178
28219W        W34669   4.030   7.567  22.781 -0.1222  0.2501 -0.0356
28220W        W34670   2.736   3.013   6.804  0.1819  0.2025 -0.0401
28221W        W34671  18.643   2.559  17.909  0.0656 -0.0211  0.3131
28222W        W34672  10.488   0.371  17.626  0.2439 -0.2520 -0.1776
28223W        W34673   3.165   2.468   7.258  0.1986  0.0907  0.1459
28224W        W34674   7.682   6.633  15.601 -0.0177 -0.0920 -0.1773
28225W        W34675  16.367   0.971  23.289 -0.0448  0.0562  0.0112
28226W        W34676  21.256   5.325  20.171  0.0723 -0.0689  0.0519
28227W        W34677  24.693   5.117  19.564  0.1763 -0.2136 -0.0324
28228W        W34678   7.938   6.576  17.295 -0.0138 -0.0004 -0.1022
28229W        W34679   3.804   4.803   6.986 -0.1200 -0.1597  0.2876
28230W        W34680   8.263   6.447  17.588 -0.0518  0.0188  0.0274
28231W        W34681  21.211   6.968  25.337 -0.0027  0.0775 -0.0566
28232W        W34682  22.163   1.819  18.884  0.0657 -0.2253 -0.1889
28233W        W34683   3.637   7.148  19.278  0.1809 -0.0378 -0.1217
28234W        W34684  23.388   0.159   2.021 -0.1499 -0.0940  0.0254
28235W        W34685  21.425   7.733  19.682 -0.0200  0.1872  0.0429
28236W        W34686  25.720   2.279  22.571  0.1240  0.4096  0.2310
28237W        W34687  24.850   2.607  25.980  0.1186  0.1901 -0.1953
28238W        W34688  17.458   6.418  25.587  0.1730  0.0230 -0.1664
28239W        W34689  13.792   4.403   0.159  0.0187 -0.1222  0.0603
28240W        W34690  22.798   5.623  21.905 -0.3252 -0.0412 -0.2676
28241W        W34691   1.202   7.263   6.984 -0.1994  0.0850 -0.1658
28242W        W34692  29.499   3.666  22.630 -0.0371 -0.1362  0.2147
28243W        W34693  29.946   0.641  21.085  0.1833  0.0667 -0.0397
28244W        W34694  19.452   5.631   7.425  0.2182 -0.0242  0.0403
28245W        W34695   3.739   2.232   4.570  0.0801 -0.0692  0.1727
28246W        W34696  11.402   6.328  22.342 -0.0787  0.3120  0.1331
28247W        W34697   1.556   2.881   2.981  0.4326  0.0925 -0.0357
28248W        W34698   0.372   5.094   3.295  0.1182 -0.3526 -0.3471
28249W        W34699   4.506   2.818   7.960  0.0140 -0.2559 -0.0689
28250W        W34700   1.754   5.308  21.172 -0.0696  0.0296 -0.1362
28251W        W34701  15.922   2.620   7.694  0.1838 -0.0087 -0.1164
28252W        W34702  12.764   3.580  26.144 -0.2698 -0.0086  0.0175
28253W        W34703   3.326   2.550  19.529 -0.0869  0.1573 -0.2817
28254W        W34704  18.054   6.095   5.313  0.0897 -0.0290  0.0331
28255W        W34705  18.513   1.480  10.067  0.0890  0.1714 -0.0757
28256W        W34706  20.595   7.520  25.318 -0.0403  0.1889 -0.2937
28257W        W34707  21.608   4.034  20.639  0.1079 -0.2769 -0.1377
28258W        W34708  22.183   6.267  25.102 -0.0516 -0.2681 -0.0698
28259W        W34709  30.925   2.448   8.341 -0.1922 -0.0620  0.0901
28260W        W34710  26.348   6.804   7.458  0.3404 -0.0371 -0.0285
28261W        W34711   1.084   5.009  10.136 -0.2441 -0.0158 -0.0785
28262W        W34712   9.896   6.570  24.632 -0.0160 -0.0447  0.1572
28263W        W34713  21.449   7.651   8.349 -0.4478 -0.0602  0.0544
28264W        W34714   0.250   1.165  24.259  0.1862 -0.2291  0.1751
28265W        W34715  30.525   4.577   1.222  0.1541 -0.0315  0.1119
28266W        W34716  15.004   3.164   9.359  0.0714 -0.1771 -0.0243
28267W        W34717  23.042   3.469   0.580  0.0721 -0.2587 -0.0439
28268W        W34718   4.186   5.678  11.211  0.0776  0.1208  0.0996
28269W        W34719   8.554   3.670  23.280 -0.0659  0.1112 -0.0358
28270W        W34720   1.929   7.709  16.635 -0.4204 -0.0813  0.0493
28271W        W34721   7.413   2.126  20.332 -0.0420  0.0904 -0.0681
28272W        W34722  21.624   3.686   7.669 -0.1129 -0.1206 -0.1137
28273W        W34723   0.734   7.152   9.033 -0.2827  0.2861 -0.0297
28274W        W34724  26.628   6.446  17.755  0.0302 -0.2992  0.0656
28275W        W34725   0.594   5.558  15.264 -0.3933 -0.3576  0.1642
28276W        W34726   1.192   6.819   0.793  0.2180  0.1750 -0.0438
28277W        W34727  29.250   1.751  20.135 -0.2199  0.0388  0.0233
28278W        W34728   6.221   6.888  17.725 -0.1305  0.1014  0.0044
28279W        W34729   4.468   2.807  17.746 -0.0440 -0.1767  0.0491
28280W        W34730   8.249   6.517  15.557 -0.0929  0.1359  0.0715
28281W        W34731  19.782   6.360  24.282 -0.2522  0.0483  0.0020
28282W        W34732   0.873   2.685   2.054  0.1552  0.0199  0.0539
28283W        W34733   9.138   4.633  15.734 -0.3221 -0.0614  0.0151
28284W        W34734   3.970   0.353   6.671 -0.0754 -0.1452  0.0183
28285W        W34735  27.347   2.734   1.584  0.1892  0.0275  0.0904
28286W        W34736  11.001   3.621  16.071 -0.1067 -0.2371  0.1405
28287W        W34737   7.482   5.086   0.298 -0.3294 -0.0612 -0.1481
28288W        W34738   0.593   0.921  19.608 -0.0918 -0.1964  0.0094
28289W        W34739  13.994   0.484  26.211  0.0885  0.0445  0.0694
28290W        W34740  27.387   5.719  23.837 -0.0976  0.0598  0.1290
28291W        W34741  15.457   4.421  19.358 -0.0245  0.0850  0.0506
28292W        W34742  20.439   0.002   8.249  0.0657  0.0433  0.0068
28293W        W34743  14.327   5.571  18.454  0.0396 -0.2114  0.0054
28294W        W34744  16.905   5.580   5.124  0.1135  0.1516 -0.0197
28295W        W34745  15.405   4.519  17.272  0.3433 -0.1751  0.2388
28296W        W34746  25.987   7.554   4.344 -0.1915  0.2778  0.0275
28297W        W34747  14.064   3.201  25.873  0.0367 -0.0671 -0.1683
28298W        W34748  11.163   1.039   2.127 -0.1184 -0.2761  0.1169
28299W        W34749  25.604   4.406   8.849  0.2421 -0.0541 -0.2466
28300W        W34750  11.836   4.806  25.451  0.0683  0.3495 -0.0345
28301W        W34751   7.501   6.399  23.505  0.1317  0.0730  0.0570
28302W        W34752   6.393   1.010  16.615 -0.2948  0.1802 -0.1581
28303W        W34753   1.697   7.725   7.911 -0.4051  0.4255 -0.1399
28304W        W34754  28.979   0.426   9.622  0.2083  0.2742 -0.0748
28305W        W34755  24.208   0.230  19.578 -0.1495 -0.0132 -0.1441
28306W        W34756  19.747   6.906  22.086 -0.1309 -0.0035 -0.1961
28307W        W34757  24.348   1.629  20.483  0.1735  0.0941 -0.1297
28308W        W34758  11.760   1.006   2.687 -0.2951 -0.1465 -0.4921
28309W        W34759   9.917   6.525   3.237 -0.0317  0.1482 -0.1567
28310W        W34760   0.678   6.951  21.377  0.2212 -0.0355  0.3099
28311W        W34761  19.521   6.488   3.038 -0.0528  0.3013 -0.0231
28312W        W34762   3.244   5.414  25.041  0.0672  0.0703 -0.1323
28313W        W34763  23.875   6.019  20.142 -0.0774  0.1338  0.0326
28314W        W34764   6.981   3.412  20.834  0.2253 -0.0326  0.1357
28315W        W34765   4.849   0.563  10.182 -0.1975  0.2427 -0.2399
28316W        W34766  22.466   4.409  24.452 -0.0752  0.4175  0.0619
28317W        W34767  22.839   1.634  21.927 -0.0622 -0.2165 -0.0920
28318W        W34768  14.638   5.795  21.929  0.0926 -0.1417 -0.0085
28319W        W34769  19.097   4.265   2.992 -0.0396 -0.3215 -0.0568
28320W        W34770  27.187   2.621  22.602  0.2927  0.3041 -0.0397
28321W        W34771   8.871   7.590  24.043  0.0176 -0.2019 -0.2761
28322W        W34772  23.667   3.677   5.724  0.1463  0.0532 -0.0032
28323W        W34773  18.665   2.645   8.355  0.0294 -0.0424 -0.1424
28324W        W34774  18.248   2.708  24.079  0.1894  0.2616 -0.1756
28325W        W34775   1.489   3.835   4.039 -0.0213  0.1904  0.0093
28326W        W34776  11.563   6.406  21.812  0.0589  0.1701 -0.1605
28327W        W34777  26.925   0.906  19.059  0.0695  0.4250 -0.1569
28328W        W34778   4.746   5.461  10.492 -0.0237 -0.2942  0.0438
28329W        W34779  23.868   2.394  15.747  0.2023  0.0980  0.2547
28330W        W34780  13.786   3.477   7.885 -0.0762  0.2477 -0.2692
28331W        W34781  16.289   0.592   4.223  0.0702 -0.1626  0.1143
28332W        W34782   4.572   6.658   5.980  0.1173  0.0345  0.2614
28333W        W34783  16.947   5.891   3.649 -0.0647  0.0754 -0.1533
28334W        W34784  26.218   6.718   1.459 -0.2864 -0.0647  0.1592
28335W        W34785   2.762   5.462  20.203  0.0478  0.2080  0.1194
28336W        W34786  29.063   6.750   6.468 -0.2929 -0.0605 -0.2994
28337W        W34787  21.021   3.541  25.075  0.0115 -0.0790 -0.0560
28338W        W34788   7.219   3.962  25.230 -0.3246  0.3083 -0.0914
28339W        W34789  20.949   6.265  26.329 -0.1663 -0.2113 -0.0078
28340W        W34790  25.182   0.729  17.007  0.0339  0.0603  0.0402
28341W        W34791   7.054   0.207   0.537 -0.1080  0.5479  0.2600
28342W        W34792  13.329   2.110  17.755  0.2580  0.0379 -0.0068
28343W        W34793   8.547   5.976   8.342  0.3564 -0.1898 -0.0096
28344W        W34794  12.620   2.259   8.332  0.2480  0.1106  0.3532
28345W        W34795  23.252   3.958  23.700 -0.2981 -0.0641 -0.0295
28346W        W34796  25.522   0.123   6.295 -0.0678 -0.0003 -0.0682
28347W        W34797   2.196   4.992  21.251  0.1474  0.0085  0.0254
28348W        W34798   5.182   5.080   7.974 -0.1238  0.3632 -0.0911
28349W        W34799   8.329   5.587  19.571  0.0395  0.2285  0.2085
28350W        W34800   5.919   4.583  15.254 -0.1222  0.0001  0.0766
28351W        W34801  15.134   3.010   3.918 -0.4663 -0.1250  0.2003
28352W        W34802   5.350   3.810  20.176 -0.2711  0.2627  0.0108
28353W        W34803   5.212   4.847   3.965 -0.1376 -0.0073 -0.2209
28354W        W34804   4.669   5.077   5.875 -0.2403 -0.1218 -0.0884
28355W        W34805   5.556   6.091  24.476  0.2144  0.3326 -0.0247
28356W        W34806   2.335   5.228  24.036 -0.1567  0.0030  0.1995
28357W        W34807   4.479   1.419  22.419 -0.0036  0.1544  0.0784
28358W        W34808   8.462   3.689  16.717  0.0506  0.0570  0.2678
28359W        W34809  27.397   3.572   7.487  0.0437 -0.1510 -0.1874
28360W        W34810  23.694   7.370  11.264 -0.2784  0.0869 -0.1015
28361W        W34811  16.950   7.790  17.956 -0.0045 -0.0199 -0.0118
28362W        W34812  23.904   6.390  18.262 -0.1819 -0.0171 -0.0211
28363W        W34813  18.583   4.696  11.580  0.3604 -0.2189 -0.2306
28364W        W34814   5.124   5.601   9.611 -0.0899  0.1403  0.1041
28365W        W34815  25.990   0.766   1.856 -0.0177  0.1330  0.0592
28366W        W34816  27.925   5.707  23.843 -0.0850 -0.2436 -0.1940
28367W        W34817  14.435   2.585   1.866 -0.2380 -0.0040  0.0350
28368W        W34818  24.613   1.066  25.159 -0.1581 -0.1249 -0.2095
28369W        W34819  21.460   1.509  17.072  0.1533  0.0036 -0.0966
28370W        W34820  11.972   6.226   9.954  0.0824 -0.1578 -0.0610
28371W        W34821   0.026   4.939  21.885  0.2579  0.2243 -0.1976
28372W        W34822   9.340   0.784  11.046  0.0656 -0.0631 -0.1734
28373W        W34823  26.509   4.453  24.340 -0.0104 -0.1025  0.1564
28374W        W34824   1.847   5.472   5.739 -0.3463  0.1420  0.0277
28375W        W34825  20.599   5.968  17.807 -0.0727  0.0768 -0.1822
28376W        W34826  26.911   2.013   2.902 -0.1204  0.0626 -0.2835
28377W        W34827   1.216   3.320   1.238 -0.2225  0.1708  0.0076
28378W        W34828  15.683   3.299  21.850 -0.5300  0.3955 -0.0812
28379W        W34829  21.798   6.265   5.597  0.2814 -0.0922  0.0767
28380W        W34830   6.208   5.271   4.628  0.1946 -0.0104 -0.1995
28381W        W34831   7.668   4.024  24.909  0.4104 -0.3083  0.0754
28382W        W34832   5.555   2.879  24.361  0.0945  0.0120 -0.2282
28383W        W34833   6.029   0.233   3.731 -0.1252 -0.0992 -0.0175
28384W        W34834   2.812   5.510  22.281 -0.1229 -0.1476 -0.0064
28385W        W34835   8.476   2.251   7.413  0.3835  0.0556 -0.0081
28386W        W34836  29.216   1.999   5.242  0.3793 -0.0533  0.1255
28387W        W34837  26.365   7.262   2.205  0.1047 -0.1234 -0.0784
28388W        W34838   4.475   1.694  17.498 -0.0330  0.1683  0.2599
28389W        W34839   8.536   1.996  17.052  0.1492  0.0778  0.0438
28390W        W34840   4.976   4.685  14.913  0.0594  0.3490  0.0551
28391W        W34841  17.079   5.128   6.034  0.0383 -0.0140  0.2394
28392W        W34842   1.583   7.048   3.896  0.1710  0.1520  0.2884
28393W        W34843   2.226   7.041  26.243 -0.1724 -0.3886  0.0567
28394W        W34844  17.071   3.800  26.233 -0.1117  0.0212  0.0128
28395W        W34845   8.260   0.943  21.443  0.0755  0.2312  0.1120
28396W        W34846  29.415   3.502   2.772 -0.2855 -0.0931  0.1088
28397W        W34847  30.516   6.173   6.009  0.0435  0.0051  0.1161
28398W        W34848  26.647   1.301  18.108  0.0731  0.0517 -0.1859
28399W        W34849   8.831   1.822   4.409 -0.0816  0.2844 -0.0151
28400W        W34850  29.577   1.238  10.762 -0.1546  0.0668 -0.0922
28401W        W34851  15.064   7.487  15.359  0.2250  0.1887  0.2200
28402W        W34852  11.667   1.102  25.374 -0.0075 -0.0219 -0.1440
28403W        W34853  18.757   7.592  10.043 -0.2186  0.1442 -0.1123
28404W        W34854  25.682   2.742  17.336 -0.2048 -0.0528  0.3090
28405W        W34855  16.566   3.696   1.228  0.1135  0.1246  0.1368
28406W        W34856   6.022   5.502  18.411  0.1544  0.2307  0.0765
28407W        W34857  30.237   2.885  15.592 -0.0438  0.2157  0.0627
28408W        W34858   4.118   6.328   5.031  0.1703  0.1329 -0.3736
28409W        W34859   1.666   3.631   3.477  0.3010  0.0616  0.0524
28410W        W34860   0.435   5.809   6.558  0.3489 -0.2852 -0.1875
28411W        W34861   2.466   7.696   4.211 -0.1439 -0.1983 -0.1128
28412W        W34862   1.196   4.765  22.490 -0.0900  0.0293 -0.0495
28413W        W34863  11.528   3.664   1.445  0.0973  0.0096  0.1291
28414W        W34864  26.279   4.094   8.893 -0.0531  0.2518  0.1741
28415W        W34865  19.817   3.986  23.650 -0.4674  0.1052  0.1650
28416W        W34866   9.843   0.902  21.086 -0.2815  0.0701  0.0461
28417W        W34867  23.650   5.980  24.605  0.1319  0.0202  0.1479
28418W        W34868   5.074   2.102  10.431 -0.2557  0.0502 -0.0811
28419W        W34869  12.333   1.311   2.173 -0.0133 -0.0120  0.3665
28420W        W34870   1.508   4.575  25.976 -0.0179  0.0036  0.0328
28421W        W34871  12.741   0.568  23.143 -0.0329 -0.2698  0.0279
28422W        W34872   7.395   4.603   7.164  0.0935 -0.1296 -0.0065
28423W        W34873  15.327   4.826   5.298 -0.1185 -0.0215 -0.1582
28424W        W34874   7.642   7.611  25.171 -0.1560 -0.2653  0.1499
28425W        W34875  21.821   3.747  18.048 -0.0578  0.4544  0.1644
28426W        W34876   2.270   0.989  10.494  0.2450 -0.0689 -0.1932
28427W        W34877  27.905   1.569  16.637  0.0400 -0.1170 -0.2991
28428W        W34878  13.779   4.179  21.884  0.1052 -0.0769  0.0538
28429W        W34879  11.853   0.263  16.147 -0.2472 -0.1384  0.1677
28430W        W34880   1.000   3.251  22.101  0.3160 -0.0736  0.0813
28431W        W34881  17.638   1.960   6.828 -0.0627  0.2126 -0.0560
28432W        W34882  12.887   4.848  10.309  0.0889 -0.1311  0.1202
28433W        W34883  16.827   7.383   8.078 -0.1771  0.0995  0.1774
28434W        W34884  20.950   5.209   5.136 -0.0827  0.1106 -0.0701
28435W        W34885  24.597   4.218   4.301 -0.2359 -0.2746  0.2554
28436W        W34886  20.507   1.167   4.383 -0.1221  0.1123  0.0209
28437W        W34887  19.010   5.375  18.444  0.1356 -0.1021  0.0846
28438W        W34888   8.190   0.983  16.054 -0.0515  0.0709 -0.2265
28439W        W34889   3.122   6.703   9.621 -0.0083 -0.2273  0.0970
28440W        W34890   4.571   6.738   4.280 -0.2121  0.1831 -0.1305
28441W        W34891  22.457   1.285  19.331  0.1146  0.1685  0.0980
28442W        W34892   7.296   3.194  23.469 -0.2556 -0.0236  0.0894
28443W        W34893  30.205   3.047  17.147  0.0348  0.2996 -0.0057
28444W        W34894  22.707   6.716   5.444  0.1244 -0.0856  0.2703
28445W        W34895  18.308   3.808   8.883 -0.0846  0.1159  0.2399
28446W        W34896   2.679   7.112  21.057  0.2038  0.0214 -0.1560
28447W        W34897  30.374   0.312  24.676 -0.2057 -0.0525  0.2275
28448W        W34898   1.050   6.800   6.715  0.0746 -0.1714  0.1373
28449W        W34899  14.783   5.010   4.591 -0.2071  0.2590  0.2070
28450W        W34900  15.600   1.753   5.630 -0.4869  0.0497 -0.2058
28451W        W34901  28.594   2.465   1.072  0.0381  0.1558  0.0734
28452W        W34902  26.486   5.805  22.669 -0.0722 -0.2741  0.0570
28453W        W34903   4.048   0.890  25.194  0.0341  0.2224  0.2833
28454W        W34904  24.188   5.189  19.671  0.0727  0.1204  0.1704
28455W        W34905  20.650   2.953   6.520  0.2418  0.2395  0.0092
28456W        W34906  22.827   1.920  16.736  0.2147  0.1291  0.1389
28457W        W34907  28.647   1.988  17.744 -0.1394  0.0539 -0.0446
28458W        W34908  14.209   3.254   6.459  0.2089 -0.0739  0.0175
28459W        W34909  12.607   7.755  24.554  0.1270  0.2877  0.2712
28460W        W34910  24.253   4.940   3.041 -0.1209 -0.0566  0.1195
28461W        W34911   7.295   6.502  22.985  0.0509  0.1808 -0.1671
28462W        W34912  18.800   0.755  10.312  0.0060 -0.0114  0.1837
28463W        W34913  16.038   3.712  21.676  0.4006 -0.2091 -0.0541
28464W        W34914  23.941   0.540   8.280  0.2225  0.1423 -0.0427
28465W        W34915  20.518   5.303  20.963 -0.0727 -0.1448 -0.0924
28466W        W34916  28.030   2.080  15.755  0.1205  0.0215  0.0334
28467W        W34917   8.776   1.753  11.378 -0.1995  0.2902 -0.2913
28468W        W34918  11.103   1.715   9.757  0.0668  0.3165  0.2071
28469W        W34919  12.275   5.727  16.104 -0.0167  0.0242 -0.2662
28470W        W34920  16.998   7.009  25.843 -0.0180 -0.1539  0.1155
28471W        W34921   8.689   7.150   7.859  0.0906 -0.1236 -0.1842
28472W        W34922  15.895   1.391   4.156  0.0099  0.0044  0.2584
28473W        W34923  22.846   2.813  22.870  0.2364 -0.0114 -0.0638
28474W        W34924  25.095   7.295   5.954 -0.0497 -0.1935 -0.1437
28475W        W34925   2.298   5.303   7.395  0.0136 -0.1659  0.0840
28476W        W34926  12.572   6.013  19.714 -0.0508 -0.1951 -0.0533
28477W        W34927   1.677   0.832  19.230  0.3198  0.2025  0.2447
28478W        W34928  17.257   4.485  21.450  0.2633  0.0092  0.1083
28479W        W34929  21.299   2.449   7.544  0.0665  0.1416 -0.0456
28480W        W34930   0.296   7.113  26.247 -0.0688 -0.1742 -0.2068
28481W        W34931   1.464   0.714   9.573  0.1588  0.2519 -0.1171
28482W        W34932  17.337   1.163  18.387  0.1055  0.0801  0.1099
28483W        W34933  16.798   2.197  22.232  0.2155 -0.1013 -0.1443
28484W        W34934  27.007   6.616  22.054  0.0239 -0.1502  0.0131
28485W        W34935  27.687   1.081  22.332 -0.2993  0.0280 -0.2956
28486W        W34936  25.673   6.302   7.941  0.1237 -0.0408 -0.3235
28487W        W34937   8.439   2.766  23.488 -0.1322  0.1665  0.2682
28488W        W34938   9.998   3.177   7.839 -0.0826  0.2226 -0.0208
28489W        W34939  13.786   0.719  22.370 -0.1203  0.1961  0.0332
28490W        W34940  11.986   0.279  19.026  0.2737 -0.0855 -0.1864
28491W        W34941   1.707   5.024   2.333 -0.0025 -0.1503  0.2079
28492W        W34942  19.815   5.980  21.200 -0.2426  0.2194 -0.0253
28493W        W34943  30.157   0.365   7.176 -0.0102 -0.2879 -0.0378
28494W        W34944   4.233   3.827  22.060  0.3783 -0.5653 -0.1134
28495W        W34945   1.641   1.536   3.882  0.0197 -0.1219  0.1174
28496W        W34946   9.520   6.057  24.788  0.0676 -0.0046  0.2543
28497W        W34947  14.912   6.936  25.212 -0.1393  0.0887 -0.0068
28498W        W34948  21.869   6.891   0.940  0.2080  0.0341 -0.4347
28499W        W34949   1.254   3.521   8.845 -0.4610  0.1856  0.2452
28500W        W34950   5.945   4.162  24.151 -0.0133  0.0165 -0.2013
28501W        W34951  24.751   4.584  20.340 -0.0474  0.1119  0.0441
28502W        W34952   1.117   4.901  24.448 -0.0434  0.1671  0.0211
28503W        W34953  23.201   3.147  17.570 -0.0932  0.1485 -0.1452
28504W        W34954   5.568   0.325  18.840 -0.2507 -0.2134 -0.2659
28505W        W34955  14.545   3.838   7.401 -0.0213  0.1072  0.1820
28506W        W34956  21.726   1.141   3.109 -0.1309  0.1294  0.1006
28507W        W34957   4.467   1.795  18.823  0.4725 -0.3321 -0.0775
28508W        W34958  16.184   0.036  22.587 -0.5307  0.0742 -0.0357
28509W        W34959  11.274   2.242   9.605  0.0000  0.3070 -0.0581
28510W        W34960   8.998   7.170  18.792 -0.1340 -0.2635  0.0422
28511W        W34961  20.581   3.618  10.373 -0.1353 -0.4058 -0.0796
28512W        W34962  13.740   2.710  22.260  0.0512 -0.0350 -0.4924
28513W        W34963  14.992   1.205  24.211  0.0748  0.2152  0.0831
28514W        W34964  11.314   4.356  23.333 -0.1897 -0.1452 -0.2399
28515W        W34965   9.264   2.884   9.772 -0.1205 -0.0827 -0.1436
28516W        W34966  25.715   4.350  18.631  0.1724  0.1846  0.2027
28517W        W34967   3.989   1.317   5.077 -0.0011  0.2147  0.0730
28518W        W34968  28.991   1.749  21.136  0.0102  0.3140  0.0548
28519W        W34969  27.038   6.879  26.380 -0.2204 -0.2468  0.0528
28520W        W34970   2.309   7.580  20.929  0.0495 -0.2775 -0.0429
28521W        W34971  16.255   2.910  19.658 -0.2795  0.3118 -0.2815
28522W        W34972   7.860   5.548  11.079  0.1486 -0.3144 -0.0410
28523W        W34973   4.241   4.283   7.607  0.0125  0.0517 -0.0281
28524W        W34974  18.381   1.360  18.695 -0.0309 -0.0930 -0.0604
28525W        W34975  14.350   3.386  25.432 -0.0287  0.0768  0.1312
28526W        W34976  30.679   6.904   6.616 -0.0371 -0.0690 -0.2027
28527W        W34977  20.072   1.608   1.394  0.0328 -0.1304 -0.1317
28528W        W34978  30.339   2.142  24.316 -0.1760 -0.1209 -0.1390
28529W        W34979   5.281   2.883   6.493 -0.0604  0.0905  0.0936
28530W        W34980  17.441   7.127  11.068  0.1216 -0.0712 -0.1096
28531W        W34981   6.875   5.188  17.734  0.1806 -0.0339  0.0070
28532W        W34982  20.380   6.740   8.716  0.2181  0.0768  0.0033
28533W        W34983  25.396   0.211   0.357 -0.0171  0.1836  0.0423
28534W        W34984  11.594   0.879  24.005 -0.0495 -0.0184 -0.1257
28535W        W34985   4.620   5.031   3.326  0.2565  0.0193 -0.2709
28536W        W34986   0.751   4.819  25.668 -0.0133 -0.1848  0.0648
28537W        W34987  23.208   7.132  10.696 -0.0928  0.2536  0.1395
28538W        W34988  27.880   3.340   7.442 -0.1843 -0.1070 -0.2327
28539W        W34989  15.709   5.238  10.218 -0.3963  0.1479 -0.2419
28540W        W34990   2.689   4.898  21.424  0.1944  0.0894  0.3115
28541W        W34991  23.252   4.192  25.317 -0.1535  0.2923  0.1043
28542W        W34992  22.205   5.655  18.401 -0.1795  0.1654  0.1019
28543W        W34993   8.217   3.679  22.362  0.0641 -0.2636  0.0613
28544W        W34994  20.425   2.787  18.998 -0.1226 -0.2631 -0.0925
28545W        W34995  25.059   4.690  24.640 -0.1289 -0.0661  0.1715
28546W        W34996   4.648   6.642   2.857 -0.3031 -0.0346 -0.2131
28547W        W34997   4.916   5.622   6.353  0.1626  0.1737  0.2904
28548W        W34998  29.975   1.990   7.192  0.3323 -0.2890 -0.2271
28549W        W34999  13.969   1.951  24.488 -0.0430  0.2248 -0.0775
28550W        W35000   7.451   6.204   8.996  0.1866 -0.0477  0.1845
28551W        W35001   3.890   6.834   5.533 -0.0596  0.0176 -0.0206
28552W        W35002   5.325   3.422   4.006  0.0972 -0.3993 -0.1200
28553W        W35003  29.741   6.870  22.350 -0.2787  0.2982 -0.0699
28554W        W35004  20.552   0.160  11.112  0.0125  0.0005  0.0046
28555W        W35005   7.125   3.250   0.946  0.1182 -0.1385 -0.2419
28556W        W35006  30.370   1.945   3.483 -0.2357 -0.0522 -0.0391
28557W        W35007  10.227   2.277  19.339  0.1964  0.1564  0.1354
28558W        W35008  30.213   2.655  14.837  0.2042  0.3772  0.1630
28559W        W35009  12.073   7.017  10.570 -0.0608  0.1634 -0.0386
28560W        W35010  11.925   4.577  17.192  0.1876  0.1211 -0.0685
28561W        W35011   0.313   6.547  25.057 -0.1482 -0.0075 -0.2749
28562W        W35012  26.344   4.706  23.607 -0.1084  0.3008  0.1843
28563W        W35013  27.423   2.530  10.648 -0.0564 -0.3695 -0.1134
28564W        W35014   0.850   4.559  16.324  0.1242  0.0082  0.0567
28565W        W35015   2.612   5.349  17.262 -0.1863  0.1256 -0.1671
28566W        W35016   3.315   2.729  24.880 -0.0102  0.0576  0.4323
28567W        W35017  23.167   2.790   2.195  0.0110 -0.1053 -0.0197
28568W        W35018  12.211   0.671  16.994 -0.1606  0.2717 -0.0554
28569W        W35019  18.046   5.006   2.206  0.0527  0.0270  0.1427
28570W        W35020  26.131   7.582  19.224  0.0786 -0.0063 -0.1081
28571W        W35021  10.090   1.784  21.246 -0.1302  0.3453  0.0733
28572W        W35022   4.995   1.019  24.118 -0.1617 -0.2251  0.0923
28573W        W35023   8.016   1.016   6.288  0.1642 -0.2142 -0.3514
28574W        W35024  16.628   4.837  15.718  0.1848 -0.0091 -0.0083
28575W        W35025  14.947   1.236  15.566  0.5125 -0.1819 -0.0650
28576W        W35026  11.569   4.349   5.455 -0.0439 -0.2651 -0.1237
28577W        W35027   7.190   0.310   0.028 -0.0077 -0.0947 -0.1894
28578W        W35028  23.230   6.008  17.079  0.0541 -0.1339  0.0124
28579W        W35029  26.216   1.411  22.693  0.2189 -0.0169 -0.1594
28580W        W35030   2.839   3.906   8.140  0.1468  0.0355 -0.0421
28581W        W35031  28.803   6.953   7.148 -0.1112 -0.1633 -0.2562
28582W        W35032  22.839   1.856   7.924 -0.2841  0.0348 -0.3657
28583W        W35033  15.786   6.191  10.098  0.0662  0.3438 -0.2437
28584W        W35034  10.422   1.420  16.346 -0.1601 -0.3070 -0.2666
28585W        W35035  22.115   1.944   6.270 -0.0729  0.2166 -0.0941
28586W        W35036   3.109   4.777   7.638  0.0697  0.0919 -0.0741
28587W        W35037  29.011   3.514  25.575  0.1766 -0.0713 -0.1844
28588W        W35038   3.839   5.369  18.650  0.3253  0.0286  0.1345
28589W        W35039   1.466   3.898   5.398  0.1173 -0.1127 -0.3219
28590W        W35040  13.276   5.236   1.166  0.0488 -0.0665  0.0917
28591W        W35041  18.209   5.950  23.850  0.3023 -0.2326 -0.1359
28592W        W35042  29.623   4.583  10.430  0.0485  0.0974 -0.0157
28593W        W35043   4.165   3.594  18.837  0.1763  0.0693  0.1128
28594W        W35044   0.135   3.456   1.635 -0.3160  0.0581 -0.2377
28595W        W35045   1.954   0.929   6.226 -0.0876 -0.0129 -0.0267
28596W        W35046   7.284   6.138  22.677  0.3431 -0.3106  0.0243
28597W        W35047   6.777   5.190   4.116 -0.1039  0.2556 -0.0069
28598W        W35048  21.663   6.601   7.676 -0.0526 -0.1627  0.2669
28599W        W35049   1.507   2.676  21.594  0.3236 -0.2108  0.0295
28600W        W35050  17.599   2.090   0.777 -0.1471 -0.0615  0.3740
28601W        W35051  27.447   3.714  26.288 -0.0061  0.3241 -0.0642
28602W        W35052  17.615   1.720  23.463 -0.0464 -0.2981 -0.2452
28603W        W35053   0.265   1.382  17.311  0.0411  0.2362 -0.2454
28604W        W35054  29.014   6.621  24.017 -0.3555 -0.2943 -0.0036
28605W        W35055  16.875   6.251   1.665 -0.1755 -0.0870  0.1160
28606W        W35056   0.097   5.188  19.069  0.2245  0.1070 -0.0632
28607W        W35057   6.691   3.204  26.350  0.3800  0.1143  0.0793
28608W        W35058  27.492   0.426  15.242 -0.2791  0.0537  0.0677
28609W        W35059  17.271   5.899  24.729 -0.1723 -0.1061 -0.1918
28610W        W35060   4.088   3.435  25.188 -0.2887 -0.0881 -0.0324
28611W        W35061  27.945   5.070   4.157  0.0410  0.1648  0.1674
28612W        W35062  26.123   2.828  21.604  0.1203  0.1162 -0.0841
28613W        W35063   9.964   5.305  15.759  0.0111 -0.1817 -0.2867
28614W        W35064  11.920   3.076  20.972 -0.3409  0.0553 -0.0907
28615W        W35065  12.726   0.595  19.898 -0.0767  0.4187 -0.2207
28616W        W35066  15.687   4.162   0.915 -0.0956  0.1285 -0.0046
28617W        W35067   7.920   6.141   8.248 -0.2163 -0.1136 -0.2182
28618W        W35068  16.140   5.477   0.031 -0.1072 -0.0216 -0.1117
28619W        W35069   1.959   1.429  20.142 -0.1963 -0.0642 -0.0592
28620W        W35070   8.593   7.679  22.117 -0.1124  0.0255  0.1440
28621W        W35071   6.626   4.622  19.517  0.1385  0.0805 -0.0954
28622W        W35072  21.501   0.034   1.661  0.1008  0.1278 -0.0827
28623W        W35073  28.093   4.810   8.664  0.3537 -0.2371 -0.0361
28624W        W35074  24.723   5.247  21.866  0.2764 -0.0750 -0.2368
28625W        W35075  16.604   6.517   4.364 -0.0101  0.0346  0.3338
28626W        W35076   3.565   0.028  23.036  0.0527  0.0956  0.1418
28627W        W35077  28.451   2.792  19.591  0.0071 -0.1436 -0.1233
28628W        W35078  27.604   6.986  18.653  0.1501  0.0313  0.1418
28629W        W35079  13.270   6.827   9.953  0.0570  0.4109 -0.0946
28630W        W35080  23.990   4.417  23.673 -0.0205  0.3690 -0.0174
28631W        W35081   3.378   6.138   8.957  0.0033  0.1125 -0.1171
28632W        W35082  17.201   1.505  22.015  0.2119 -0.2839 -0.4920
28633W        W35083  30.954   2.258  18.734  0.1631 -0.0233  0.0427
28634W        W35084  17.916   4.159  20.762  0.1713  0.1418 -0.0488
28635W        W35085  29.196   4.956  18.314  0.1003 -0.0773 -0.0190
28636W        W35086   0.574   5.542  17.989  0.2350  0.2313 -0.3528
28637W        W35087  11.592   3.807  23.812 -0.1187  0.1038 -0.0257
28638W        W35088  23.788   0.355  23.853  0.1664 -0.2681 -0.1298
28639W        W35089  15.723   5.078   6.974 -0.0906 -0.0377 -0.0355
28640W        W35090  12.762   3.418  10.397  0.1568  0.2170 -0.1334
28641W        W35091  14.362   6.918   1.241 -0.0588  0.0244  0.1230
28642W        W35092   0.494   4.670   1.086 -0.0759  0.0497 -0.1184
28643W        W35093  16.424   1.707   5.869  0.0570 -0.0324  0.2433
28644W        W35094  26.619   7.221   6.518 -0.1622 -0.3449  0.3724
28645W        W35095  17.161   4.605   8.274 -0.2050 -0.0151  0.0236
28646W        W35096  10.052   3.281   0.722  0.2343  0.0504 -0.1298
28647W        W35097   9.735   7.250   2.872 -0.0585 -0.0700  0.1112
28648W        W35098  18.232   6.698  25.021  0.0156  0.0265 -0.2296
28649W        W35099  13.712   2.225  26.116  0.2129 -0.2091 -0.0915
28650W        W35100   3.662   0.373  22.651 -0.1857  0.2702 -0.1885
28651W        W35101   5.966   7.381   0.470 -0.0551 -0.3476 -0.1953
28652W        W35102  26.589   3.968  24.149 -0.1363  0.0041  0.1255
28653W        W35103   0.277   4.123  11.076 -0.1441  0.0547 -0.0319
28654W        W35104  23.462   2.806   6.177 -0.1774  0.3908  0.2780
28655W        W35105   5.716   6.380   6.956  0.0694  0.1409 -0.1278
28656W        W35106  16.932   5.928  14.835  0.0242 -0.0960  0.1014
28657W        W35107  23.826   5.571  10.140 -0.1311  0.1983  0.1769
28658W        W35108  19.115   0.863  19.913 -0.1333  0.0018 -0.1738
28659W        W35109   0.956   1.210  11.368 -0.1898  0.2666  0.2068
28660W        W35110  17.660   6.598   6.207 -0.1242 -0.0389 -0.0741
28661W        W35111  25.647   7.527   3.322  0.0666  0.1951 -0.0175
28662W        W35112  22.305   5.618   2.478 -0.0358 -0.0653 -0.0803
28663W        W35113  28.727   7.366   0.551 -0.0686  0.0952  0.1163
28664W        W35114  10.509   3.827  18.337 -0.2208 -0.1430 -0.0767
28665W        W35115   1.175   6.137  19.244  0.2467 -0.0361  0.0221
28666W        W35116   9.671   1.706  15.848 -0.0149  0.0101  0.0114
28667W        W35117  18.457   4.222   8.440  0.2170  0.1306  0.1576
28668W        W35118  21.732   6.247  25.425  0.1246 -0.1179 -0.1735
28669W        W35119  21.790   6.735  10.905  0.2397  0.0332  0.4482
28670W        W35120  21.730   3.731   8.195  0.0794  0.1023  0.0129
28671W        W35121   5.010   5.183  18.160 -0.1445 -0.2761  0.2134
28672W        W35122   2.564   3.040  24.873 -0.2037  0.0953 -0.1009
28673W        W35123  23.111   3.101   9.223  0.0155  0.1583  0.3195
28674W        W35124  19.786   3.703   9.314 -0.0820  0.1699  0.3175
28675W        W35125   8.630   7.641   6.779 -0.0007  0.1593 -0.1493
28676W        W35126   0.829   4.296  21.149 -0.3825 -0.0382  0.0228
28677W        W35127   3.244   4.340  10.786 -0.0102 -0.2685 -0.1264
28678W        W35128  13.949   2.388  17.900  0.0053 -0.2203 -0.1267
28679W        W35129  29.382   2.717   5.740 -0.1459 -0.0580  0.0807
28680W        W35130   0.439   6.292   7.339 -0.2880 -0.0117 -0.0622
28681W        W35131   9.756   1.260  26.377 -0.1256  0.1144 -0.1331
28682W        W35132  24.203   3.004  19.188  0.2852  0.2562  0.0584
28683W        W35133  25.266   5.950  19.162  0.1879  0.2009  0.0966
28684W        W35134   6.464   3.558   6.589 -0.3194  0.1482  0.3652
28685W        W35135  15.672   0.887   4.689  0.1443  0.2345 -0.1806
28686W        W35136   7.969   1.159   9.170 -0.4150  0.0188  0.2167
28687W        W35137  26.200   7.678   9.944 -0.2941  0.3081  0.0561
28688W        W35138   4.126   7.634   5.683 -0.2426  0.0940 -0.0363
28689W        W35139   9.165   5.185  15.668 -0.0776 -0.0076 -0.0967
28690W        W35140   5.182   5.863   3.411 -0.0555  0.1413  0.1042
28691W        W35141  23.429   2.714  17.857  0.4406 -0.0486 -0.0838
28692W        W35142  24.323   5.267  11.303 -0.0703 -0.0355 -0.1271
28693W        W35143  17.121   2.930  23.486 -0.0847  0.1058  0.0812
28694W        W35144  13.754   7.593  15.843  0.0909 -0.2177 -0.0730
28695W        W35145   3.822   5.618  23.352  0.1635 -0.1116  0.0138
28696W        W35146  24.901   6.873   2.960 -0.2235 -0.2142  0.2688
28697W        W35147  18.447   7.264  24.062  0.0292  0.0781  0.3187
28698W        W35148  14.570   6.641  25.969 -0.1111  0.1213 -0.0598
28699W        W35149  24.441   6.495   4.022 -0.0039  0.3945 -0.1645
28700W        W35150   9.710   7.361  19.250 -0.3708 -0.4203 -0.2371
28701W        W35151   2.850   1.715  10.794 -0.0609 -0.4473  0.2542
28702W        W35152   4.115   3.286   6.072 -0.1286 -0.0737 -0.0333
28703W        W35153  19.109   1.235   1.729  0.0615  0.0264 -0.0076
28704W        W35154  24.034   0.218  20.511 -0.1448  0.0942  0.2955
28705W        W35155  23.927   4.110   5.599  0.0805  0.2280  0.2912
28706W        W35156   2.832   3.864  19.739 -0.1321  0.3102 -0.0460
28707W        W35157  29.895   1.844  25.777  0.0701  0.0016 -0.0559
28708W        W35158   6.406   1.059  11.094  0.5976  0.0542  0.0748
28709W        W35159   3.854   0.455   5.127  0.0310 -0.3351  0.0334
28710W        W35160  23.991   4.137   8.906  0.1498 -0.2059 -0.1377
28711W        W35161  20.047   3.629   7.860 -0.0401 -0.1359 -0.0540
28712W        W35162  30.874   0.487   7.120 -0.0249 -0.0019  0.0216
28713W        W35163  24.799   7.251   7.985  0.2214 -0.1333 -0.0956
28714W        W35164  14.149   7.633   9.883  0.1160  0.3477  0.4923
28715W        W35165   3.293   1.438   4.388 -0.1838  0.3896 -0.0359
28716W        W35166  12.143   2.247   8.520  0.1646 -0.1061 -0.0682
28717W        W35167  22.799   1.200   0.823  0.1800 -0.0488  0.3870
28718W        W35168  15.617   6.033  15.111  0.0410 -0.0762  0.2698
28719W        W35169   1.796   7.184  24.422  0.0141  0.1104  0.0361
28720W        W35170  18.876   1.730  23.294 -0.0748 -0.0733  0.0935
28721W        W35171   7.682   1.665  10.599  0.0313 -0.1619  0.1937
28722W        W35172   0.417   0.971  26.244 -0.0091 -0.0873 -0.0033
28723W        W35173   9.785   0.413  24.282 -0.2076 -0.1238  0.2032
28724W        W35174  24.064   7.527  17.260 -0.0301 -0.0159  0.1596
28725W        W35175   5.056   0.932   9.847  0.4069  0.0794  0.3542
28726W        W35176   8.614   0.642  10.783  0.0482  0.3313 -0.0990
28727W        W35177  20.842   7.124   6.901 -0.1243 -0.1027  0.1880
28728W        W35178   8.408   4.602  19.689 -0.3496  0.0606  0.0082
28729W        W35179  11.426   5.035   9.613 -0.0813 -0.1537  0.0212
28730W        W35180  14.693   5.015   2.168  0.1425  0.1093  0.1924
28731W        W35181   8.092   5.190  17.288  0.0025  0.3542 -0.1305
28732W        W35182  14.667   5.671   9.908  0.3374 -0.0218  0.1386
28733W        W35183   5.313   7.258   2.332  0.0307 -0.0058 -0.0533
28734W        W35184  25.637   5.281  22.819  0.0830  0.0080  0.1920
28735W        W35185   6.982   2.511  20.956 -0.2738 -0.0715 -0.1521
28736W        W35186  26.355   1.743   6.082  0.3051 -0.1256  0.5189
28737W        W35187  26.651   1.030  24.955 -0.0713  0.0087  0.0443
28738W        W35188  28.884   6.247   9.466 -0.0993  0.0330 -0.0484
28739W        W35189  16.425   0.036   0.900  0.1218  0.3383  0.2173
28740W        W35190  15.716   0.254   8.389  0.2183  0.0746  0.0097
28741W        W35191  28.029   0.271   5.233  0.2084  0.1217  0.1532
28742W        W35192  25.257   1.673   5.329 -0.0940 -0.5112  0.0517
28743W        W35193  28.113   1.494  22.841  0.2104  0.2151 -0.0728
28744W        W35194  14.865   0.752  10.546  0.0485  0.0156 -0.0657
28745W        W35195   0.161   6.424  19.458  0.2879  0.0765 -0.5198
28746W        W35196  22.727   7.528  11.157 -0.0422 -0.2134 -0.3124
28747W        W35197  28.254   2.768  20.530  0.0424 -0.0358  0.1377
28748W        W35198  12.885   3.121   8.120  0.0152 -0.1651 -0.0918
28749W        W35199  31.134   2.835  10.097  0.0639 -0.0884  0.0714
28750W        W35200  23.025   6.363  22.529 -0.0513 -0.1917  0.2411
28751W        W35201   0.712   5.497   7.071  0.0414 -0.0360  0.0672
28752W        W35202   3.120   6.921   5.762  0.0080 -0.1042 -0.3189
28753W        W35203  23.544   3.671  20.078 -0.1119  0.1286  0.0519
28754W        W35204  10.100   5.003  17.983 -0.1667  0.1294  0.1836
28755W        W35205  17.631   5.923  22.648  0.2065  0.1297 -0.2955
28756W        W35206  23.077   1.937   7.282  0.1229  0.5101  0.1236
28757W        W35207  17.653   2.680   6.057 -0.2079  0.0083  0.0304
28758W        W35208  20.515   4.617  16.541  0.0996 -0.2511 -0.2241
28759W        W35209  26.429   0.180   5.949  0.0154  0.2687 -0.2863
28760W        W35210  27.614   4.499  23.432  0.1778 -0.1942  0.0072
28761W        W35211  27.592   5.898  24.264  0.1107  0.0792 -0.1885
28762W        W35212  22.723   5.301   7.506  0.0907  0.0304  0.2822
28763W        W35213  17.970   3.116  15.911  0.2684 -0.0518  0.2170
28764W        W35214   7.171   1.979  10.630 -0.1455  0.4384  0.3661
28765W        W35215  17.915   5.315   1.072  0.1167 -0.1651 -0.0542
28766W        W35216   1.157   7.682   1.099  0.1915  0.1861 -0.1690
28767W        W35217  30.866   4.205   4.217 -0.4675  0.0489  0.1235
28768W        W35218   3.991   2.177  20.997  0.0545  0.1817  0.3055
28769W        W35219  27.318   3.783   5.555  0.3190  0.0452  0.1294
28770W        W35220  23.595   0.090   0.367 -0.3535 -0.0529  0.0952
28771W        W35221   7.535   6.189   5.762 -0.1362  0.1839  0.1805
28772W        W35222  16.165   4.873  17.413  0.3322  0.2885  0.0673
28773W        W35223  17.024   2.004   9.321 -0.3844  0.2292  0.0146
28774W        W35224  22.699   0.819  15.849  0.3077  0.1426  0.0486
28775W        W35225  17.289   6.834  23.433  0.0373 -0.0887 -0.0871
28776W        W35226   5.364   0.677   3.657  0.1996  0.1611 -0.0327
28777W        W35227   6.622   1.043  20.114 -0.0639  0.1952 -0.0257
28778W        W35228  23.772   7.731  20.897 -0.1760 -0.0162  0.1045
28779W        W35229  14.239   6.112   1.369 -0.0458  0.1974 -0.0358
28780W        W35230  20.877   6.508  25.257 -0.0242  0.0073 -0.2692
28781W        W35231   5.542   4.962   8.726  0.3308  0.0640  0.1587
28782W        W35232   3.352   4.724   8.099 -0.1956 -0.0165 -0.1408
28783W        W35233   7.829   2.376   5.439 -0.2977  0.0040  0.2465
28784W        W35234   9.610   3.643   0.680 -0.1881  0.0512  0.0443
28785W        W35235  22.947   7.736   2.738  0.0454  0.1146  0.1907
28786W        W35236  15.334   5.562   4.017 -0.2687  0.3546  0.0024
28787W        W35237  20.988   6.981  21.647 -0.3263  0.2057 -0.5782
28788W        W35238   3.121   4.649   3.261  0.0271  0.0253 -0.2542
28789W        W35239  13.250   4.718  15.563  0.2428 -0.0193  0.1241
28790W        W35240  20.265   5.215  22.481  0.2311 -0.0516 -0.0941
28791W        W35241   7.515   5.417  15.132  0.2366 -0.0347 -0.0974
28792W        W35242  11.948   2.514  24.769 -0.0379  0.0770 -0.0579
28793W        W35243  30.405   6.267   4.774  0.1534  0.1251  0.0949
28794W        W35244  23.189   0.387   2.473 -0.0849 -0.0738 -0.0735
28795W        W35245   0.442   5.759  26.394 -0.2457 -0.1514  0.0021
28796W        W35246   8.706   7.028   2.972 -0.0508 -0.0302 -0.0991
28797W        W35247  12.670   3.097  18.793 -0.2368 -0.1074 -0.0428
28798W        W35248  16.318   5.776   2.440 -0.2441 -0.1906 -0.1376
28799W        W35249  29.537   3.988   8.613 -0.0228 -0.1345  0.4333
28800W        W35250  13.548   1.157  19.126 -0.2495 -0.2512 -0.4430
28801W        W35251  28.379   6.699   7.181 -0.0775  0.1983  0.1624
28802W        W35252  29.142   6.797  25.823 -0.0378 -0.0119 -0.1561
28803W        W35253  22.269   2.497   2.528 -0.0336  0.0807 -0.2363
28804W        W35254   6.646   7.630  10.630 -0.1787  0.2018 -0.0680
28805W        W35255  11.987   0.235   6.907 -0.2291 -0.1214 -0.0838
28806W        W35256  11.145   3.070   8.673  0.0077 -0.4387 -0.0864
28807W        W35257   9.440   2.577   8.834  0.0204 -0.2523  0.1455
28808W        W35258  10.022   3.423   0.244  0.4249 -0.0485  0.4276
28809W        W35259  14.026   4.791   0.491  0.2652  0.2747 -0.0917
28810W        W35260   9.900   6.726  14.707  0.1866 -0.1001 -0.0657
28811W        W35261  23.429   3.324   8.349  0.0893 -0.0453 -0.1956
28812W        W35262  27.807   2.659   2.587  0.2540  0.1363  0.1303
28813W        W35263  22.181   1.170  25.309  0.1136  0.2393 -0.0418
28814W        W35264  14.067   1.365   6.519 -0.1662 -0.3268  0.2432
28815W        W35265  15.808   5.690  23.199 -0.1392 -0.2194 -0.2147
28816W        W35266  27.575   3.902  19.438 -0.1494  0.2647  0.0451
28817W        W35267  28.083   6.911   2.921  0.2911  0.0302 -0.1998
28818W        W35268  31.051   4.630  20.395  0.3027  0.2215 -0.1595
28819W        W35269   9.427   0.811   9.166 -0.1711  0.1413  0.3523
28820W        W35270   8.284   3.838  21.092 -0.3553 -0.4372 -0.0759
28821W        W35271  29.330   2.261  10.113 -0.0556 -0.0753 -0.0396
28822W        W35272   3.769   5.632   6.283  0.0289  0.1416 -0.0750
28823W        W35273  15.012   3.353   2.148 -0.0164 -0.4053  0.2374
28824W        W35274  13.410   5.191  17.659 -0.0850 -0.0049 -0.0975
28825W        W35275  29.167   4.281   8.584  0.0329  0.3810  0.0912
28826W        W35276  12.314   5.801  19.364 -0.1556 -0.2687  0.0276
28827W        W35277  15.719   6.430   1.797 -0.2067  0.2652 -0.0097
28828W        W35278   4.081   0.845   4.810 -0.1948  0.1129 -0.0417
28829W        W35279  13.006   4.109  10.455 -0.0391 -0.1200  0.0375
28830W        W35280  30.419   1.612  18.179 -0.3596  0.1864 -0.1142
28831W        W35281  16.336   5.566  16.441  0.2305  0.0764 -0.2521
28832W        W35282  18.133   1.971   0.254  0.2208  0.0852  0.0956
28833W        W35283  24.287   7.166   7.851 -0.2679 -0.2277 -0.0047
28834W        W35284  13.736   3.498  10.642 -0.3049 -0.2600 -0.0325
28835W        W35285  20.285   1.874  10.492  0.1208  0.1883 -0.1363
28836W        W35286  19.515   7.636  25.590  0.1435 -0.2970  0.3022
28837W        W35287   9.045   7.023  23.747 -0.0237 -0.0983  0.1871
28838W        W35288  13.713   6.300  16.449  0.1982  0.0916 -0.1392
28839W        W35289  21.142   6.598   3.767  0.0333  0.0766 -0.0442
28840W        W35290   3.342   4.677   2.408  0.2528  0.1543 -0.2840
28841W        W35291   7.463   0.187  17.872 -0.1207 -0.2048 -0.0837
28842W        W35292  16.373   7.683  17.369 -0.0399  0.1517 -0.0010
28843W        W35293  15.676   3.427   6.839 -0.2800 -0.0072 -0.1412
28844W        W35294  30.719   4.337   6.265 -0.2167  0.1503  0.0232
28845W        W35295  13.289   3.685  24.132  0.0156 -0.0978  0.0503
28846W        W35296  18.343   5.661  21.741  0.0793  0.1721  0.0516
28847W        W35297   0.073   0.905  22.673  0.3273 -0.2398 -0.0547
28848W        W35298   3.942   3.575  21.700 -0.0511 -0.0952  0.1377
28849W        W35299  10.645   3.729  25.094  0.0810  0.0345 -0.1562
28850W        W35300  18.224   6.140   4.373 -0.0487  0.1037  0.0839
28851W        W35301  16.632   4.615   7.077  0.0595 -0.2127 -0.0316
28852W        W35302   5.082   4.311  20.428 -0.0922  0.2597 -0.0320
28853W        W35303  26.507   4.672   6.022 -0.0767  0.1003 -0.0329
28854W        W35304  22.058   3.253  25.898 -0.2060  0.0010  0.1393
28855W        W35305  27.218   4.682   5.259  0.0776 -0.1063 -0.0018
28856W        W35306  18.935   6.196  24.855  0.0395  0.1777 -0.3214
28857W        W35307  20.025   5.688   4.108  0.0716 -0.0215  0.0913
28858W        W35308  27.658   0.926   5.697 -0.0776 -0.2864  0.1068
28859W        W35309  11.730   0.020  19.471 -0.0017 -0.0241 -0.0045
28860W        W35310  14.553   4.886   6.802  0.1855 -0.0179 -0.2122
28861W        W35311  18.481   5.536  25.643 -0.1024  0.0275 -0.1212
28862W        W35312   7.211   4.011  16.549 -0.3479 -0.1978 -0.1754
28863W        W35313  25.878   5.274  26.128 -0.1768  0.2186 -0.1335
28864W        W35314   2.644   6.186   0.054  0.1486 -0.1579  0.4170
28865W        W35315  25.158   1.004  11.785 -0.2599  0.0638  0.1669
28866W        W35316  21.106   1.805   1.274  0.0754  0.2595  0.0588
28867W        W35317  30.723   1.189  24.384 -0.1208  0.1313  0.0889
28868W        W35318  21.021   0.929  18.920  0.2021 -0.1181 -0.1116
28869W        W35319  16.101   6.741   2.146  0.0736  0.1653  0.1546
28870W        W35320  29.701   1.411   3.989  0.2716  0.0318  0.1034
28871W        W35321  11.819   2.700  20.287  0.1203  0.1616  0.1041
28872W        W35322  28.873   0.494   5.065  0.2615 -0.0819  0.1674
28873W        W35323   4.100   1.109   5.950 -0.0801  0.1115  0.1105
28874W        W35324  14.071   1.562  23.262  0.0592 -0.1543  0.3030
28875W        W35325   8.086   4.813  10.090  0.0168 -0.2461 -0.3135
28876W        W35326   2.152   3.122   0.478 -0.0995 -0.1829 -0.0127
28877W        W35327  22.283   5.481  21.502  0.3942  0.0090  0.0996
28878W        W35328   4.902   2.693  16.470 -0.1646 -0.0311 -0.1222
28879W        W35329   9.961   3.702  18.415  0.1108 -0.0438  0.2624
28880W        W35330  21.145   5.130  17.597 -0.1817 -0.1567  0.1442
28881W        W35331   1.002   2.170   1.471 -0.1703  0.0003 -0.1517
28882W        W35332  22.483   2.986  24.611 -0.0038 -0.1227  0.0059
28883W        W35333  24.129   1.238   3.512  0.1026  0.0586  0.2597
28884W        W35334  27.868   1.131   8.111  0.0003  0.0816  0.0253
28885W        W35335  12.428   3.541   1.769 -0.0580  0.1289 -0.0934
28886W        W35336  23.511   6.715  25.369 -0.1072  0.1485  0.1930
28887W        W35337  27.432   0.313   9.541 -0.0219 -0.2161  0.0664
28888W        W35338  11.469   0.343  15.671  0.0208  0.1882  0.0393
28889W        W35339  16.183   0.040  21.610 -0.1480  0.0414 -0.3487
28890W        W35340  17.376   4.335   5.609 -0.0224  0.1233  0.1371
28891W        W35341   5.145   2.949  10.985 -0.0881 -0.0816 -0.4549
28892W        W35342   2.243   7.668   0.808 -0.1068  0.2124  0.0766
28893W        W35343  29.794   2.451  23.256  0.0666  0.0170 -0.0595
28894W        W35344  28.148   4.349  18.269  0.2072  0.2331  0.1182
28895W        W35345  13.333   0.227  15.224  0.0765 -0.2990  0.0588
28896W        W35346  29.522   3.626  16.236 -0.0331 -0.3198  0.1498
28897W        W35347   0.819   1.974   9.299  0.1728 -0.2764 -0.3677
28898W        W35348   1.675   5.668  11.330 -0.1944 -0.0202  0.1410
28899W        W35349  24.146   1.639  12.180 -0.0673 -0.0289 -0.1601
28900W        W35350  24.718   3.668   3.496 -0.1669  0.1675  0.0206
28901W        W35351  16.164   3.921  19.873 -0.0763  0.1277 -0.0027
28902W        W35352  18.572   3.443   7.723 -0.1983 -0.0765 -0.0694
28903W        W35353  15.990   7.485   9.746  0.3959 -0.2107 -0.0206
28904W        W35354   8.889   1.961  26.184 -0.2677  0.1626 -0.2593
28905W        W35355  30.330   6.866  19.548 -0.2759  0.3994 -0.0885
28906W        W35356  27.225   3.613  25.151  0.0359 -0.1326  0.2122
28907W        W35357  27.085   6.553   6.785  0.1808  0.1744  0.1180
28908W        W35358  24.045   7.523   9.699 -0.2343  0.0994 -0.0868
28909W        W35359   5.224   0.135  18.544  0.0224 -0.0263  0.0415
28910W        W35360  10.329   5.273   0.799 -0.1528 -0.1993 -0.1750
28911W        W35361  20.250   7.400  20.234 -0.3524  0.0491  0.3798
28912W        W35362   5.257   5.949  21.782 -0.3473  0.2144  0.2943
28913W        W35363  26.949   3.999  18.163 -0.1833 -0.4368  0.1768
28914W        W35364  12.006   7.304   6.270 -0.1392  0.1130 -0.1816
28915W        W35365  12.161   2.328   8.008 -0.1028  0.0565  0.1945
28916W        W35366   5.718   2.361   9.700 -0.3258  0.1192  0.0566
28917W        W35367  20.443   4.318   0.706 -0.2192  0.0051 -0.3207
28918W        W35368  21.757   2.128  25.220  0.2159  0.1203  0.1926
28919W        W35369   2.600   2.974  18.191 -0.0166 -0.1038 -0.2034
28920W        W35370  12.664   3.221   5.890  0.1347  0.3549  0.1369
28921W        W35371  27.563   5.666  21.100  0.1537 -0.3342 -0.1697
28922W        W35372  23.639   1.892  22.005 -0.1291 -0.1359 -0.2681
28923W        W35373  17.236   2.548  19.649  0.0659  0.0635  0.0902
28924W        W35374   6.901   5.375   1.404  0.1880  0.0525 -0.1328
28925W        W35375  25.946   5.503  17.340 -0.2800  0.4601  0.0667
28926W        W35376  21.944   0.018  26.133 -0.0184 -0.1344  0.0319
28927W        W35377  18.034   7.625   9.684  0.0383 -0.0427  0.0409
28928W        W35378   8.917   5.162   6.636  0.2969 -0.1845  0.2776
28929W        W35379  29.296   5.609   7.938  0.1833 -0.1097 -0.0147
28930W        W35380  27.288   7.379  10.278  0.0841 -0.0483 -0.0982
28931W        W35381  17.157   2.390   3.463 -0.1244 -0.2360  0.0676
28932W        W35382  15.940   5.831   8.642 -0.0434 -0.2097 -0.1177
28933W        W35383  23.613   4.200   6.121  0.0369 -0.3833 -0.2917
28934W        W35384   4.090   7.250  17.894  0.1496  0.1843 -0.2712
28935W        W35385  29.057   4.871  23.410 -0.0932  0.0158 -0.1309
28936W        W35386  17.180   6.189   7.872  0.2687  0.0573 -0.1065
28937W        W35387   3.442   4.149  25.140 -0.0706  0.0779 -0.1063
28938W        W35388  19.811   2.887   4.462  0.0758  0.0101 -0.1921
28939W        W35389  25.645   3.863  22.518 -0.0203  0.0999 -0.1633
28940W        W35390  28.511   6.474  15.513 -0.1969  0.0650 -0.2581
28941W        W35391   9.838   0.013  21.739  0.0530  0.1006  0.2273
28942W        W35392   5.419   1.812  20.608  0.0739  0.1332 -0.4229
28943W        W35393   5.904   6.973   2.928  0.0880 -0.0045 -0.0455
28944W        W35394   1.035   7.125   2.088  0.2147 -0.0429 -0.0443
28945W        W35395  26.689   1.808  18.754 -0.0191 -0.0035 -0.0923
28946W        W35396  29.519   0.054  22.279 -0.1665 -0.0205 -0.1519
28947W        W35397  17.760   3.787  16.203 -0.2629 -0.2523 -0.0906
28948W        W35398  11.705   5.533   0.387  0.1486  0.2381  0.1040
28949W        W35399  22.664   3.484  11.828  0.0270 -0.1578 -0.0737
28950W        W35400  23.952   4.204   1.736 -0.1563 -0.0953 -0.1803
28951W        W35401  29.869   4.885   7.161 -0.1612  0.0375 -0.4851
28952W        W35402   2.884   4.839   8.804  0.0382 -0.0136  0.1230
28953W        W35403  28.541   4.178  23.843 -0.0912  0.1933  0.1422
28954W        W35404  29.447   5.929   5.198 -0.1156  0.1645 -0.0379
28955W        W35405  14.964   4.932   5.614 -0.0868  0.1803 -0.1417
28956W        W35406   6.913   7.461  22.163  0.0397 -0.1853  0.2699
28957W        W35407  16.650   1.378  23.102 -0.0604 -0.1495  0.1121
28958W        W35408   3.552   6.384   8.059 -0.1183 -0.3585 -0.2493
28959W        W35409  17.729   2.693  22.378  0.2777  0.0890 -0.0522
28960W        W35410  29.147   3.453   5.478  0.0377  0.1710 -0.2179
28961W        W35411  24.354   3.334   0.379  0.1391  0.0687 -0.0203
28962W        W35412  29.808   3.293  17.937 -0.1116  0.1056  0.1547
28963W        W35413  24.370   6.148   0.311  0.3531 -0.0744  0.0583
28964W        W35414  19.993   1.866   2.831 -0.0027  0.1110  0.0738
28965W        W35415  17.974   5.542   6.039  0.1440  0.0179  0.1533
28966W        W35416   2.653   2.042   0.599 -0.2993  0.0343 -0.0543
28967W        W35417  26.849   5.110   6.909  0.0018 -0.2024  0.1795
28968W        W35418   6.638   0.612  24.688  0.1917 -0.2273 -0.0231
28969W        W35419  10.858   4.440   3.001 -0.1417 -0.0590  0.0594
28970W        W35420  27.642   0.102   1.169  0.0763 -0.1027  0.1064
28971W        W35421  29.028   3.833  20.561 -0.1701  0.2091  0.2840
28972W        W35422  10.892   2.805   7.194  0.0070  0.0531 -0.1499
28973W        W35423  25.032   0.622  17.794  0.1832 -0.2285 -0.0292
28974W        W35424   8.759   5.653   6.810  0.0883 -0.4697 -0.1240
28975W        W35425  20.044   2.515  21.024 -0.0698 -0.2276 -0.1246
28976W        W35426  27.070   0.309  20.404  0.2930  0.0084 -0.1965
28977W        W35427   6.735   3.475   9.484 -0.0717 -0.0032  0.0994
28978W        W35428  27.829   7.382   9.412 -0.0031  0.0466 -0.1019
28979W        W35429   9.915   1.241   6.038 -0.0800  0.0244 -0.1129
28980W        W35430   9.202   6.645  22.587  0.1861  0.0241 -0.0245
28981W        W35431   0.483   2.332  10.824  0.0913 -0.0949 -0.2514
28982W        W35432  23.555   5.292   8.518 -0.0985 -0.0215  0.3054
28983W        W35433  20.744   6.079   9.927 -0.0955 -0.0506  0.5342
28984W        W35434  28.810   0.530  26.027  0.0495  0.2171  0.0190
28985W        W35435  20.326   4.625  10.294  0.3115 -0.0039 -0.1280
28986W        W35436   3.350   0.009   0.963  0.0858  0.2286  0.4139
28987W        W35437   1.469   1.682   7.503 -0.1531  0.2874 -0.0950
28988W        W35438   2.950   3.505   3.008  0.2300  0.0120  0.0877
28989W        W35439   4.951   1.199  21.177  0.0723  0.0348  0.0233
28990W        W35440   7.524   5.399  10.722 -0.1627  0.1066  0.1440
28991W        W35441  28.312   4.740  20.746  0.0302 -0.2081  0.0687
28992W        W35442  29.925   0.109   5.214  0.0828 -0.2450  0.1526
28993W        W35443  28.691   5.998   6.162 -0.0998 -0.0068 -0.1582
28994W        W35444  23.515   5.512   5.194 -0.1512  0.1463 -0.1787
28995W        W35445  14.995   2.029   0.827 -0.0521  0.3808  0.3900
28996W        W35446  21.432   0.618  18.053 -0.0899  0.4138  0.1134
28997W        W35447  12.345   3.766   9.263  0.1449  0.3018  0.3735
28998W        W35448  23.849   4.606  20.238  0.2019  0.0459 -0.1923
28999W        W35449   7.028   3.609   5.320  0.0293 -0.0934  0.1742
29000W        W35450   3.776   2.313  16.619  0.0336  0.1817 -0.3376
29001W        W35451  26.359   0.295  25.577  0.0580 -0.0440 -0.3065
29002W        W35452  30.545   5.336  16.582  0.0491 -0.1233  0.0443
29003W        W35453  25.374   5.737  23.614  0.0753  0.1245  0.1796
29004W        W35454   7.737   3.141  25.061  0.0152  0.4031 -0.0934
29005W        W35455   7.253   2.290   7.671 -0.1148  0.0714  0.1819
29006W        W35456  28.747   4.269  16.044  0.1993 -0.2420  0.2882
29007W        W35457  21.589   3.933   8.892  0.3739  0.1250 -0.2540
29008W        W35458  12.861   4.417   5.197 -0.2259  0.1947  0.1518
29009W        W35459  12.953   3.822  23.811  0.3855 -0.0733  0.1195
29010W        W35460   9.104   7.327   1.358  0.1537 -0.2121  0.2855
29011W        W35461  25.717   4.587   5.455 -0.1470  0.0467  0.0078
29012W        W35462   8.347   4.473   0.471  0.0292  0.1865  0.0185
29013W        W35463   6.203   4.366  22.785 -0.1454 -0.0481  0.0568
29014W        W35464  10.846   7.764  24.213  0.2733  0.0659 -0.0277
29015W        W35465   5.780   7.007   3.591 -0.0606  0.1111 -0.1849
29016W        W35466  24.506   2.825   3.077 -0.0487  0.0882 -0.2007
29017W        W35467   5.791   2.912  23.222 -0.0859  0.1013 -0.0572
29018W        W35468  28.936   1.602  22.030  0.0734  0.2731  0.3964
29019W        W35469  10.436   1.887  22.536  0.0758  0.2791 -0.2484
29020W        W35470  16.956   2.738  25.918 -0.0072  0.1619  0.1398
29021W        W35471   3.723   5.911   7.314 -0.1517 -0.0439  0.1637
29022W        W35472  27.745   6.695   7.442  0.2047 -0.0726  0.1407
29023W        W35473  22.175   5.451  23.029 -0.0498 -0.2025  0.2201
29024W        W35474   7.778   3.893  18.455 -0.0698 -0.0448  0.1358
29025W        W35475  15.311   6.287  17.468  0.0471  0.0138 -0.3566
29026W        W35476  25.096   3.951  24.157  0.0259 -0.2803  0.0615
29027W        W35477  22.879   2.537   0.602  0.0112 -0.0096  0.1089
29028W        W35478   9.610   4.395  22.647  0.0183 -0.0003 -0.0068
29029W        W35479  13.287   1.356   5.895  0.2762  0.0234  0.2664
29030W        W35480  19.781   2.826  20.683  0.0482  0.2106 -0.2267
29031W        W35481  28.633   0.784  25.388  0.1259  0.1340  0.1421
29032W        W35482  28.034   7.577  19.595 -0.0898  0.1307 -0.0651
29033W        W35483   1.803   4.748  21.601  0.0854  0.0354 -0.3844
29034W        W35484  19.373   1.898   9.100 -0.0248  0.0881 -0.0164
29035W        W35485  28.623   4.793  16.926 -0.0741 -0.1047  0.0402
29036W        W35486  10.636   7.028  21.519  0.0370  0.2963  0.1627
29037W        W35487  11.751   6.000   3.861  0.0830 -0.1190  0.1537
29038W        W35488  26.769   3.783  10.971  0.0684  0.0282  0.1917
29039W        W35489   8.284   0.198  18.479 -0.0887  0.0922 -0.0041
29040W        W35490   4.942   7.251  22.103 -0.4576  0.1531 -0.0822
29041W        W35491  16.756   1.988   6.624 -0.0256 -0.0529 -0.2722
29042W        W35492  12.731   3.875   5.242 -0.1340 -0.2775  0.0142
29043W        W35493  30.220   4.105  11.107 -0.0392  0.1088  0.1080
29044W        W35494   5.280   0.571  22.909 -0.1518 -0.2424  0.2745
29045W        W35495  11.217   2.575  19.028 -0.1254  0.0170  0.0510
29046W        W35496  15.869   0.918   6.494 -0.0650  0.0753 -0.1093
29047W        W35497  24.122   4.347  15.677  0.0425  0.0258  0.1906
29048W        W35498  26.835   3.821   4.847 -0.0816  0.0957  0.1048
29049W        W35499   5.818   2.921  18.523  0.0585 -0.0248 -0.0462
29050W        W35500  23.061   1.047   9.574  0.0562 -0.2919  0.0340
29051W        W35501  17.509   3.194  22.503 -0.1901  0.0966  0.0666
29052W        W35502  22.186   0.900   9.564 -0.4631 -0.0843 -0.0709
29053W        W35503  11.053   6.644  17.376 -0.1881  0.0502 -0.2418
29054W        W35504   1.254   5.511  26.127  0.3309 -0.2080  0.0446
29055W        W35505   9.253   7.744  20.366  0.0953 -0.0187 -0.0830
29056W        W35506  26.885   6.525   9.122  0.2679 -0.2710 -0.1501
29057W        W35507  30.201   2.524  18.280 -0.2214 -0.3785 -0.2052
29058W        W35508  30.500   7.671  18.922  0.3468  0.2787 -0.1099
29059W        W35509  13.120   1.650   5.004  0.1117 -0.2060  0.0841
29060W        W35510   4.293   0.284   1.889  0.1835 -0.1412  0.1014
29061W        W35511  21.437   5.582  21.925 -0.0645  0.1863  0.0502
29062W        W35512  23.536   2.956  23.940 -0.0728  0.2281  0.4245
29063W        W35513   3.487   7.737   4.553  0.2793  0.1758  0.0821
29064W        W35514   1.550   3.725  20.169  0.0563  0.1925 -0.2502
29065W        W35515  21.061   7.503   5.857  0.0453  0.0532  0.1328
29066W        W35516  10.984   7.688  23.728  0.2602  0.1697  0.0036
29067W        W35517  10.459   5.291   9.202  0.0205  0.0407  0.4266
29068W        W35518  16.625   5.260  18.488 -0.2762  0.2489 -0.1263
29069W        W35519   0.831   0.290  24.040 -0.1052 -0.0724  0.3862
29070W        W35520   2.406   4.897  19.394  0.0124  0.0476 -0.0820
29071W        W35521   6.083   6.337   9.410  0.3283  0.1580  0.3737
29072W        W35522  14.640   3.539  16.951  0.1585  0.0749 -0.2278
29073W        W35523  14.931   6.789  16.037  0.2767 -0.0360  0.0707
29074W        W35524   8.955   1.325  15.576 -0.0763  0.1376 -0.1612
29075W        W35525   5.507   6.571  10.968 -0.2106  0.0151  0.0993
29076W        W35526   4.071   5.868  20.490  0.1124  0.0067  0.1914
29077W        W35527   9.410   0.159   0.332 -0.1884 -0.0188 -0.0180
29078W        W35528   2.816   1.242   0.782  0.0302  0.2939 -0.3716
29079W        W35529   4.475   2.904   7.417 -0.2951 -0.2128  0.0323
29080W        W35530   8.297   1.688  24.106 -0.3004 -0.1089  0.0159
29081W        W35531  30.862   5.595  15.752 -0.0573 -0.2911  0.0798
29082W        W35532   2.762   5.715  23.129 -0.0714  0.3975 -0.2849
29083W        W35533  10.793   3.491  20.780 -0.2320  0.1193 -0.2686
29084W        W35534   8.985   5.927  24.007 -0.0565  0.0919  0.0836
29085W        W35535  30.187   2.790   3.572 -0.1964 -0.1236 -0.0848
29086W        W35536  20.320   3.343  11.463  0.0016 -0.0100  0.0613
29087W        W35537   8.821   6.720  15.387  0.0581  0.0063 -0.0931
29088W        W35538   7.133   0.379  22.262 -0.1430 -0.1107 -0.2684
29089W        W35539   9.206   0.213  19.512  0.2509 -0.0336  0.2742
29090W        W35540   2.630   3.665  16.762  0.2592 -0.1737  0.0042
29091W        W35541  16.316   3.551  25.751 -0.0055 -0.1485 -0.0420
29092W        W35542   0.449   7.223   6.624  0.2577  0.1863 -0.3168
29093W        W35543  27.682   1.837  15.088  0.1737  0.0166 -0.2596
29094W        W35544  13.799   2.989  25.471 -0.3833  0.0434  0.0457
29095W        W35545  13.060   6.009   6.440  0.2009 -0.0764 -0.0074
29096W        W35546  13.344   1.566   4.520  0.0568 -0.0175  0.0609
29097W        W35547   4.271   6.349  10.563  0.0110  0.2227 -0.0195
29098W        W35548   3.604   2.296  24.729 -0.1465 -0.0898  0.0423
29099W        W35549  16.621   0.194   1.871  0.0917 -0.2181  0.2853
29100W        W35550   0.027   2.973   3.527  0.0016  0.1380 -0.1295
29101W        W35551  16.399   2.660  26.059  0.0925  0.1559  0.1411
29102W        W35552   2.772   2.585   1.902  0.0599 -0.2903 -0.3939
29103W        W35553  14.176   3.326  20.795  0.2840  0.1726  0.0635
29104W        W35554  26.433   5.566   7.834  0.0847 -0.1505  0.0815
29105W        W35555  21.118   0.184   8.475 -0.1091  0.1279 -0.1400
29106W        W35556  11.457   5.569   8.204 -0.1712 -0.2417 -0.0694
29107W        W35557  27.105   3.372  20.178  0.0296 -0.1051  0.0565
29108W        W35558  27.855   1.103  19.312  0.0708 -0.1290 -0.2073
29109W        W35559   3.594   1.445  16.473  0.1196  0.0048  0.0537
29110W        W35560  15.719   1.569  23.272  0.0508  0.0963  0.1182
29111W        W35561  14.648   5.556  24.079 -0.0746  0.0460  0.2751
29112W        W35562  21.923   0.389  25.753 -0.1274 -0.2073 -0.1506
29113W        W35563  25.026   3.009   8.653 -0.0777  0.0538  0.3329
29114W        W35564  27.696   3.442  24.980  0.0057  0.1646 -0.2286
29115W        W35565  30.190   6.639  25.648  0.0340  0.1185 -0.0890
29116W        W35566  29.117   0.424  17.549  0.3448 -0.2225 -0.2648
29117W        W35567   0.895   4.593   1.919 -0.0389  0.2551  0.0409
29118W        W35568   4.264   5.675  21.256 -0.0792  0.2248  0.0484
29119W        W35569   2.993   1.393   0.278  0.2281 -0.0711 -0.1081
29120W        W35570   0.732   6.654   9.057 -0.1811 -0.1006 -0.0823
29121W        W35571  29.194   4.372  18.229  0.1846 -0.3572 -0.0622
29122W        W35572   9.876   4.987   7.645 -0.0222  0.1067  0.1207
29123W        W35573  21.427   7.318   6.652 -0.2936 -0.0923 -0.3070
29124W        W35574   6.081   3.993  19.137 -0.0108  0.0534 -0.0489
29125W        W35575   8.512   5.560   6.114  0.2027  0.0152  0.2357
29126W        W35576   9.798   4.267  24.613  0.1528  0.0350 -0.3754
29127W        W35577  13.391   5.134   8.411 -0.1020  0.0526  0.0019
29128W        W35578  30.622   4.408   2.519  0.3403  0.0288 -0.0143
29129W        W35579  21.210   1.277  20.999 -0.1381  0.2385  0.0586
29130W        W35580  28.732   5.032  19.021 -0.0913  0.1050  0.2670
29131W        W35581  11.986   0.968  19.611  0.0647  0.3824 -0.5662
29132W        W35582  19.195   5.132  19.256 -0.3147  0.0152  0.3386
29133W        W35583  30.219   7.746  15.673  0.2778 -0.0513  0.1189
29134W        W35584   3.799   3.320   5.640 -0.2275 -0.3339  0.2352
29135W        W35585  28.315   2.964  21.030 -0.0766  0.1586 -0.3434
29136W        W35586  29.796   1.843   1.882 -0.0845 -0.0431  0.0769
29137W        W35587   9.846   1.554  17.731  0.0889  0.0072 -0.0779
29138W        W35588  10.175   4.470   1.080 -0.0080  0.0267 -0.0230
29139W        W35589   7.363   4.089   3.629 -0.0503  0.1470  0.2352
29140W        W35590  26.443   7.358  18.762 -0.1480  0.1082 -0.0520
29141W        W35591  25.079   2.023  23.574  0.2873 -0.0033  0.1694
29142W        W35592  27.023   1.592  10.277  0.0458 -0.0549 -0.0276
29143W        W35593   8.377   3.289   6.347 -0.0343 -0.4505  0.0775
29144W        W35594   6.203   0.718   2.327 -0.0327 -0.0598  0.0038
29145W        W35595  17.418   0.418  20.849 -0.2296 -0.3799 -0.0217
29146W        W35596   0.553   0.594  24.946 -0.0101  0.1166  0.0673
29147W        W35597  27.155   2.605  16.661  0.2065  0.1408 -0.1084
29148W        W35598  20.914   2.511  25.269  0.0921  0.3337  0.3322
29149W        W35599   1.238   6.156  10.690 -0.0131 -0.0233 -0.3145
29150W        W35600   9.596   4.110   5.116 -0.3221 -0.0056 -0.1997
29151W        W35601  17.968   0.325  17.075  0.1159 -0.2770 -0.1858
29152W        W35602  19.132   5.666  16.557  0.2482  0.0984  0.0245
29153W        W35603  10.576   3.994  18.921  0.0342  0.1192  0.0248
29154W        W35604   0.761   7.391  19.065 -0.1039 -0.0159  0.3384
29155W        W35605   4.674   6.160  17.481 -0.0771  0.2534 -0.2609
29156W        W35606  12.950   2.205   2.090 -0.1301  0.1306 -0.4021
29157W        W35607  19.370   0.214   2.628  0.0438 -0.4932 -0.0388
29158W        W35608  17.015   1.870  18.943 -0.1571 -0.1203  0.0519
29159W        W35609   9.901   3.235   7.194  0.0632 -0.2261  0.1918
29160W        W35610  28.126   4.371  25.926 -0.0326  0.0287 -0.3206
29161W        W35611   0.731   6.289   6.539  0.1217 -0.2189 -0.1786
29162W        W35612   2.095   1.648   3.066  0.0287 -0.2205 -0.0574
29163W        W35613   9.718   0.015   3.610  0.0747 -0.1104 -0.1866
29164W        W35614   8.288   3.790   7.172 -0.0156  0.0476 -0.1371
29165W        W35615  14.723   3.207  24.008  0.0949  0.0726 -0.0151
29166W        W35616   7.313   6.287   0.045  0.1925  0.0632 -0.0721
29167W        W35617  11.110   3.922  23.731 -0.0846  0.0410 -0.0658
29168W        W35618   7.066   5.999   7.471 -0.0053 -0.1856 -0.2329
29169W        W35619   0.290   7.604   6.947  0.2886 -0.1730  0.1932
29170W        W35620   7.573   4.837  24.669  0.1006 -0.0169  0.3929
29171W        W35621  17.298   6.669  22.443  0.1346 -0.2456  0.1525
29172W        W35622  19.830   6.261  21.696  0.1141 -0.0062 -0.0511
29173W        W35623  26.362   7.665  19.604  0.1028 -0.0881 -0.0561
29174W        W35624   2.693   5.938  20.289 -0.1316  0.1943 -0.1632
29175W        W35625   1.492   4.542  24.718  0.2047  0.0702 -0.1384
29176W        W35626   2.696   4.844  22.915  0.2755 -0.2790  0.1290
29177W        W35627  28.263   0.689   4.253  0.0323 -0.0215 -0.4421
29178W        W35628   9.308   3.640  19.104  0.1121  0.2917 -0.0489
29179W        W35629  17.936   2.349  16.145  0.1405 -0.0956 -0.2034
29180W        W35630   7.070   2.115  19.392  0.1704  0.1627  0.3671
29181W        W35631   5.895   5.791  16.390 -0.0185  0.2884 -0.1619
29182W        W35632  13.776   5.987  24.150 -0.2314  0.0598 -0.0859
29183W        W35633  18.018   6.100  10.548  0.0532 -0.5194 -0.0214
29184W        W35634   7.819   3.272  15.721  0.0038 -0.0532 -0.1238
29185W        W35635  16.047   6.807  16.811  0.1827 -0.2809 -0.0082
29186W        W35636  18.020   6.386  25.579 -0.2800 -0.1593 -0.0817
29187W        W35637  19.058   4.462  18.698  0.0878 -0.1654  0.3375
29188W        W35638  21.845   4.873  22.948  0.1531  0.0756 -0.0940
29189W        W35639   3.669   7.133  21.538 -0.2270  0.1559  0.0967
29190W        W35640  30.226   5.769   5.168 -0.3063  0.1977  0.1872
29191W        W35641  12.847   5.096   3.349 -0.2284 -0.0158  0.2474
29192W        W35642   9.383   3.599   8.989 -0.2035 -0.1142 -0.0435
29193W        W35643  15.014   0.898   6.693 -0.1819 -0.0033  0.1567
29194W        W35644  23.675   5.871   1.014  0.0347 -0.1541 -0.2763
29195W        W35645   2.992   1.171   8.124 -0.2647  0.0106 -0.1968
29196W        W35646   3.373   1.689  26.353 -0.1640 -0.1556  0.0232
29197W        W35647  26.812   3.357  17.073 -0.2947 -0.2491 -0.0141
29198W        W35648  23.247   7.215  16.838  0.1679 -0.0735  0.0186
29199W        W35649   2.253   4.816  10.571  0.1049 -0.0872 -0.2750
29200W        W35650  25.679   3.747  22.971  0.1040  0.0446 -0.2049
29201W        W35651   3.947   0.191  18.312 -0.0310 -0.0610  0.0834
29202W        W35652  21.384   7.452  26.233 -0.1992 -0.0972 -0.2186
29203W        W35653  16.678   5.803   1.446 -0.1215 -0.2464  0.0840
29204W        W35654  15.945   2.114  22.375 -0.0342 -0.3157  0.1641
29205W        W35655   9.876   2.462  15.432  0.1653  0.1834 -0.0730
29206W        W35656   4.081   4.278   9.332 -0.1115 -0.0497  0.3162
29207W        W35657   3.096   6.312   0.859  0.2208 -0.1518  0.1224
29208W        W35658  24.594   2.909  23.788  0.0153  0.2632 -0.0077
29209W        W35659   4.273   1.114   8.169 -0.1209  0.1832  0.2189
29210W        W35660  27.029   3.440  23.571 -0.0075  0.1161 -0.2390
29211W        W35661   6.173   2.479  23.321 -0.0793 -0.0886 -0.0525
29212W        W35662  28.713   1.681  20.256 -0.1143  0.3088 -0.1222
29213W        W35663  15.735   2.116  23.207 -0.1249 -0.1405 -0.1477
29214W        W35664   8.269   3.840  22.844  0.0213 -0.3882 -0.0412
29215W        W35665   0.854   0.799   0.372 -0.2258 -0.0590 -0.0207
29216W        W35666  21.356   7.112  16.355 -0.2222 -0.0062 -0.1207
29217W        W35667  12.598   7.073  25.336  0.1408  0.1517  0.1783
29218W        W35668   5.893   0.359  22.179  0.0036 -0.0457 -0.0078
29219W        W35669   1.618   1.208  22.040 -0.1215 -0.1054 -0.2476
29220W        W35670  19.702   0.361   4.657  0.0338 -0.1240  0.0779
29221W        W35671  30.788   5.726  16.300 -0.0921  0.2355  0.2091
29222W        W35672   0.585   6.231  17.385  0.3328  0.0043 -0.1173
29223W        W35673  20.729   4.273  19.169 -0.2375  0.0033  0.2836
29224W        W35674  18.939   5.398  23.038  0.1873 -0.3499 -0.4235
29225W        W35675  30.322   1.065  26.040  0.1067 -0.0017 -0.0997
29226W        W35676  23.030   6.014   8.740 -0.2802  0.0469 -0.0906
29227W        W35677   0.785   0.456   8.970 -0.0108  0.1022 -0.4917
29228W        W35678   3.664   2.847  17.394 -0.1594 -0.4422  0.0131
29229W        W35679   8.315   3.944   2.175  0.1424 -0.0524 -0.0044
29230W        W35680  16.292   1.112   9.610  0.0434 -0.3163 -0.1685
29231W        W35681  10.919   6.720   7.966 -0.0999  0.1398 -0.0831
29232W        W35682  18.548   6.144  22.551 -0.0048 -0.1297 -0.0158
29233W        W35683  15.645   4.045  24.378 -0.0606 -0.0730 -0.0846
29234W        W35684   3.285   0.214  18.938 -0.0730 -0.1839  0.3336
29235W        W35685   2.052   3.029   3.329 -0.4534 -0.2151  0.0366
29236W        W35686  14.963   4.560  17.717  0.0166 -0.3776  0.2341
29237W        W35687  26.915   7.170  16.761  0.0741 -0.0888  0.1823
29238W        W35688   8.013   4.790   3.602 -0.0206  0.0168  0.1171
29239W        W35689  30.218   6.592  23.760  0.1166 -0.1519 -0.0939
29240W        W35690  24.823   1.313   1.176 -0.0098 -0.0611 -0.0338
29241W        W35691   4.634   7.580  10.651  0.4079  0.0433 -0.0042
29242W        W35692  14.954   3.134  19.755 -0.0781 -0.3374  0.1682
29243W        W35693  22.585   4.138  16.493 -0.2088 -0.0032 -0.3886
29244W        W35694   9.679   4.788  24.439 -0.0430  0.0707 -0.0503
29245W        W35695   2.278   3.731  17.862  0.2014 -0.3626 -0.1550
29246W        W35696  14.313   0.984   1.058 -0.0209  0.2173  0.5138
29247W        W35697  14.869   4.562  22.495 -0.0573  0.0451 -0.2525
29248W        W35698  20.996   1.177   7.491 -0.1350  0.3339  0.1606
29249W        W35699   1.942   6.470  15.691 -0.0491  0.4005  0.0648
29250W        W35700  30.952   7.491   8.958  0.0063 -0.0811 -0.1813
29251W        W35701  10.652   6.891  19.061  0.0964 -0.0317 -0.0260
29252W        W35702  12.024   1.750  16.161  0.1730 -0.1679 -0.1007
29253W        W35703   9.740   6.690   3.671  0.0433  0.0986  0.0940
29254W        W35704   4.075   7.085  25.831  0.0789  0.0333  0.0025
29255W        W35705  25.576   7.142   3.596 -0.0186  0.2268 -0.1102
29256W        W35706  24.711   5.533  17.342  0.2648  0.2258  0.0300
29257W        W35707  17.608   4.978   1.281 -0.1098  0.0905  0.3409
29258W        W35708  26.158   3.490   4.263 -0.1041  0.1757 -0.0049
29259W        W35709  16.614   1.090   4.244 -0.1456 -0.4405 -0.0599
29260W        W35710  25.680   0.373   8.180  0.2856 -0.1264 -0.1187
29261W        W35711  10.114   5.583   4.451  0.2773 -0.1891 -0.1469
29262W        W35712   4.464   0.672  25.949 -0.2274  0.3800  0.2940
29263W        W35713  30.011   5.505   0.373 -0.1322 -0.0532 -0.0991
29264W        W35714  17.311   4.574  26.032 -0.0165 -0.1622  0.0512
29265W        W35715  28.479   1.353  19.408  0.0522  0.1551  0.1605
29266W        W35716  26.802   1.428   1.282 -0.0759  0.4056  0.0118
29267W        W35717   3.149   1.950  21.925  0.1773 -0.0918  0.0804
29268W        W35718   0.886   0.614   4.928  0.0735 -0.0005  0.5906
29269W        W35719   2.210   6.326   9.660  0.0430  0.4356  0.0922
29270W        W35720  10.425   5.256   7.768  0.1676 -0.2833 -0.1915
29271W        W35721   3.091   0.741  25.949  0.0660  0.2077 -0.0417
29272W        W35722  29.153   2.440  20.785  0.1164 -0.1408 -0.0949
29273W        W35723  23.994   3.131  21.633  0.0147 -0.1329  0.3092
29274W        W35724  24.560   5.915  12.074 -0.0303  0.0140  0.1877
29275W        W35725   9.934   4.733   5.112 -0.1006  0.0785  0.1131
29276W        W35726  15.085   6.892  18.567 -0.0240 -0.3385 -0.0220
29277W        W35727  24.932   7.565   5.470  0.0662 -0.0824  0.1422
29278W        W35728  23.044   2.364   0.186 -0.0993 -0.0064 -0.0543
29279W        W35729  16.821   0.226   4.017 -0.2828  0.0287 -0.0711
29280W        W35730  21.401   1.640  11.115  0.0183 -0.0646  0.1229
29281W        W35731  18.939   0.387   7.274 -0.2595 -0.0351 -0.1199
29282W        W35732  30.090   5.603  25.120 -0.2200  0.1623 -0.1487
29283W        W35733  22.821   0.919  22.546  0.2398 -0.1414  0.0870
29284W        W35734   7.632   7.330  16.666  0.0199 -0.1339 -0.0191
29285W        W35735  22.415   0.413  16.745 -0.1061  0.0396  0.1374
29286W        W35736   1.153   1.884   5.647  0.1035 -0.1114 -0.0134
29287W        W35737   7.550   0.922   9.579  0.0085  0.1115 -0.0134
29288W        W35738  22.559   2.212  26.366  0.2124  0.2347  0.2480
29289W        W35739  27.782   2.125   9.787 -0.0233  0.1095  0.2404
29290W        W35740  21.603   1.858   2.203 -0.0432 -0.3565 -0.2034
29291W        W35741  16.475   1.379   8.208 -0.1304 -0.1213 -0.1452
29292W        W35742   6.139   0.961   4.072 -0.1281  0.0238 -0.0142
29293W        W35743  17.594   7.598   2.117  0.2801 -0.0451 -0.0859
29294W        W35744  16.147   1.353   9.053  0.0996  0.2583 -0.0596
29295W        W35745   9.848   0.414   8.178 -0.0875  0.2485 -0.1196
29296W        W35746  29.295   3.988   9.216  0.0231  0.1824 -0.3673
29297W        W35747  23.944   3.451   1.725  0.0258 -0.2208  0.2599
29298W        W35748  17.591   1.109  21.986 -0.3709 -0.0432 -0.2592
29299W        W35749   9.011   6.284   5.540 -0.2488  0.2117 -0.1675
29300W        W35750   0.054   3.807   7.005  0.1126  0.0350  0.0132
29301W        W35751  18.545   0.776   5.760 -0.0497 -0.1525 -0.1234
29302W        W35752  25.981   2.984   0.330  0.2560 -0.4035 -0.0613
29303W        W35753  28.575   6.308  22.531 -0.1708 -0.1604 -0.0406
29304W        W35754   8.244   5.677   1.395 -0.0022  0.1515  0.0268
29305W        W35755   5.527   6.905  15.208 -0.2376  0.1222 -0.1159
29306W        W35756  16.331   5.947   8.267  0.0525  0.1129 -0.1312
29307W        W35757  30.364   5.475   7.092  0.1624  0.0488  0.0233
29308W        W35758  28.138   4.948   8.118  0.0186  0.0158  0.0953
29309W        W35759  24.414   5.267   1.269 -0.2196  0.0224  0.2588
29310W        W35760   9.727   5.684   6.987  0.1875  0.0286 -0.1633
29311W        W35761  21.405   2.673  17.164  0.2246  0.1164 -0.0595
29312W        W35762   2.538   4.952  26.149 -0.1601 -0.0477  0.0757
29313W        W35763   2.214   4.211  24.232 -0.1820  0.1676  0.2809
29314W        W35764  19.334   5.518   2.936 -0.2929  0.0129 -0.1271
29315W        W35765  27.710   5.802  16.232 -0.1240  0.0383  0.0240
29316W        W35766  30.060   5.489   4.752 -0.3393  0.0127 -0.2827
29317W        W35767   4.092   4.920   4.880  0.2289 -0.1101  0.1693
29318W        W35768  28.246   4.880  25.867 -0.1251 -0.0590 -0.1183
29319W        W35769   1.271   1.733   8.126  0.0513  0.0300  0.0171
29320W        W35770  15.031   6.846   1.100 -0.3231 -0.3399 -0.0424
29321W        W35771  23.609   2.075  24.820 -0.1127  0.3354  0.3335
29322W        W35772  21.196   6.281  20.952 -0.2861 -0.0085 -0.0539
29323W        W35773   7.878   5.076   1.963 -0.2120  0.1938 -0.0415
29324W        W35774   9.263   7.449   9.291  0.0063  0.2052 -0.0476
29325W        W35775  26.807   0.959   2.477  0.1179  0.2480  0.0495
29326W        W35776  27.477   7.353   9.783  0.0221 -0.0192 -0.0514
29327W        W35777  30.105   7.759  19.237  0.3726 -0.2835  0.3190
29328W        W35778   7.388   2.526   7.242 -0.0627 -0.0502 -0.0112
29329W        W35779   0.324   5.264  24.264  0.1540  0.2512  0.0304
29330W        W35780  18.499   4.196  23.069  0.1192 -0.3285 -0.2219
29331W        W35781   5.411   4.231  11.176  0.0120 -0.0910 -0.4696
29332W        W35782  10.534   6.424  24.516 -0.0899  0.1397 -0.2504
29333W        W35783  16.982   0.831  15.877  0.0008  0.0226 -0.0801
29334W        W35784  29.226   3.631  10.336 -0.0066 -0.0958  0.0829
29335W        W35785  13.182   0.164  19.206  0.0442 -0.1488 -0.1456
29336W        W35786  22.341   5.003   5.859  0.1492 -0.2422  0.0664
29337W        W35787  26.185   5.427  22.492 -0.0802 -0.0873  0.2431
29338W        W35788   7.879   7.722  20.418  0.1097  0.0509 -0.1649
29339W        W35789   1.660   6.838   9.491 -0.2153 -0.1648  0.2472
29340W        W35790   6.054   1.189  11.627  0.0590  0.0640  0.2639
29341W        W35791   0.180   3.561  21.482 -0.1401  0.4926  0.3818
29342W        W35792   9.928   1.618  25.868 -0.0513 -0.1053 -0.4974
29343W        W35793   6.398   2.362  24.266  0.2179 -0.2548  0.0350
29344W        W35794  13.640   6.389  17.737  0.3181  0.0884 -0.2005
29345W        W35795   1.003   2.777  17.126  0.4365 -0.1357 -0.0510
29346W        W35796   4.930   4.253   0.672 -0.1083 -0.0331 -0.0617
29347W        W35797   4.050   4.102  18.858 -0.2682 -0.0793 -0.1499
29348W        W35798  10.913   5.426   2.427  0.1881 -0.2339  0.0212
29349W        W35799   4.782   5.450  19.808 -0.0291  0.1073  0.0237
29350W        W35800  27.055   4.444   0.218  0.0618  0.2548  0.1479
29351W        W35801  17.013   4.082   0.280  0.1288 -0.0161 -0.1413
29352W        W35802  30.329   4.481   6.533 -0.2808  0.0685 -0.2953
29353W        W35803   3.484   5.782   1.692  0.0518  0.1875  0.2311
29354W        W35804   6.649   2.714  23.036  0.1099 -0.2349  0.2994
29355W        W35805  23.297   6.566   7.684  0.2356 -0.1286  0.0010
29356W        W35806  28.679   2.007  25.064  0.1004  0.0457  0.0123
29357W        W35807  17.931   1.777   5.861 -0.4730 -0.2196 -0.0009
29358W        W35808  19.199   6.928  24.599 -0.1999 -0.3564 -0.0013
29359W        W35809   9.267   4.417  19.614 -0.3304 -0.1529 -0.3025
29360W        W35810  26.763   0.406   0.204  0.0339  0.0972  0.2528
29361W        W35811  22.394   1.782   0.837  0.0183 -0.0786  0.0208
29362W        W35812  29.126   5.738   4.095  0.0029  0.0168  0.0095
29363W        W35813   0.505   0.937   8.921 -0.0908  0.0144  0.1612
29364W        W35814   7.743   1.537  19.268 -0.0907 -0.0320 -0.3389
29365W        W35815  21.790   3.805  21.051  0.0224 -0.1363  0.3020
29366W        W35816  24.691   7.243   0.623  0.1915  0.0845 -0.1837
29367W        W35817  28.923   0.534   7.683  0.0727  0.1498 -0.2144
29368W        W35818  24.498   0.933   8.876 -0.1115  0.0847  0.0685
29369W        W35819  14.047   3.719  16.110  0.0106 -0.0200 -0.2071
29370W        W35820  23.492   4.666   6.365 -0.5228 -0.3341 -0.2079
29371W        W35821   1.325   0.319  23.768 -0.0376  0.2372 -0.1282
29372W        W35822  27.134   6.903  19.449 -0.0060  0.0791  0.2950
29373W        W35823  15.787   1.499   1.042 -0.1491  0.2114  0.3219
29374W        W35824  30.344   0.182  10.433 -0.1259  0.2437 -0.2016
29375W        W35825  20.268   3.388  22.815  0.2379 -0.3026 -0.1931
29376W        W35826   6.367   6.044  24.486 -0.1728 -0.0835  0.1164
29377W        W35827  16.617   4.996   3.858  0.1356 -0.2895  0.1597
29378W        W35828  12.196   4.596  14.574 -0.3999  0.1072  0.0193
29379W        W35829  18.334   2.696   2.526  0.1351  0.1074 -0.1901
29380W        W35830  23.848   6.706   0.469  0.1142  0.0099  0.0791
29381W        W35831   3.558   6.278  15.832 -0.3481  0.3972 -0.1413
29382W        W35832  10.998   5.461   4.278 -0.1246  0.0235  0.2324
29383W        W35833  21.992   0.173   6.686  0.1308 -0.4196 -0.3174
29384W        W35834   8.316   7.408   1.961  0.1360  0.0153 -0.0451
29385W        W35835  30.892   3.514  20.171 -0.1701 -0.1423 -0.0844
29386W        W35836   5.145   3.477  20.796  0.2843 -0.2364 -0.1263
29387W        W35837   3.451   3.003  25.825 -0.2110  0.0262 -0.3221
29388W        W35838   2.023   4.773   6.731  0.2956  0.1592  0.0991
29389W        W35839  14.554   1.942   6.833 -0.3718 -0.1642  0.3007
29390W        W35840  19.497   0.486  23.823  0.1209 -0.0074  0.0922
29391W        W35841  16.639   2.481   9.311 -0.4362  0.0468  0.0565
29392W        W35842   4.239   6.769  24.878  0.0349 -0.0711  0.0429
29393W        W35843   5.527   7.719  21.635 -0.2554  0.1617 -0.1162
29394W        W35844  31.143   3.304  20.615  0.1893 -0.0456  0.0592
29395W        W35845  13.116   6.100  24.595  0.1611  0.1468  0.1090
29396W        W35846  17.884   3.417   4.123 -0.0282 -0.3190 -0.0757
29397W        W35847  29.793   6.795  24.613  0.3935 -0.0832 -0.0362
29398W        W35848  24.038   3.321  20.817  0.2456 -0.0952  0.2269
29399W        W35849  20.123   0.970  25.308  0.1300 -0.1362  0.0762
29400W        W35850  14.578   3.861  19.228 -0.2343 -0.3563 -0.0420
29401W        W35851  17.625   4.114  18.196 -0.0968 -0.0508 -0.1932
29402W        W35852  10.246   7.028  22.798 -0.2081  0.0153 -0.1480
29403W        W35853   6.377   4.281   7.168  0.1335 -0.0318 -0.2373
29404W        W35854   3.532   7.337   0.905  0.0143 -0.0799  0.0834
29405W        W35855   9.676   7.424  22.054 -0.2009  0.1957  0.0918
29406W        W35856  30.102   1.481   8.364 -0.0324 -0.1793 -0.0511
29407W        W35857  11.863   5.048  19.513 -0.3368 -0.0130 -0.1257
29408W        W35858   6.113   5.570   6.916  0.0274 -0.3784 -0.1408
29409W        W35859   7.744   4.777  25.570 -0.1034 -0.2947 -0.0974
29410W        W35860  11.318   1.877  10.698 -0.0014 -0.3133 -0.3562
29411W        W35861  23.779   1.868   6.579 -0.1594 -0.0702  0.2225
29412W        W35862  19.435   5.441  24.861 -0.0317  0.0311 -0.0182
29413W        W35863   7.295   3.741  10.160 -0.0344 -0.4080  0.2521
29414W        W35864  14.127   2.047  18.809 -0.0044 -0.0520  0.1720
29415W        W35865  23.657   3.102  25.030 -0.1606 -0.4320  0.1734
29416W        W35866   6.590   7.596  15.982  0.1835  0.1009  0.0750
29417W        W35867   5.648   6.156   5.538 -0.0838 -0.3320  0.0790
29418W        W35868   8.560   2.242   2.057 -0.1920 -0.1403  0.0797
29419W        W35869  29.168   0.291  20.039 -0.0042 -0.0844 -0.1399
29420W        W35870   8.040   6.856  24.857 -0.0602  0.1687 -0.3193
29421W        W35871  22.064   3.221  10.244  0.1465 -0.1507  0.0225
29422W        W35872  13.118   7.581  20.266  0.1005 -0.0444 -0.3634
29423W        W35873  26.099   6.494  23.832  0.1504 -0.3399  0.2942
29424W        W35874  22.559   4.703   1.107  0.1526  0.1107  0.2526
29425W        W35875   2.947   6.091  23.930  0.1623  0.1469  0.0543
29426W        W35876   4.811   5.868  21.493  0.2450 -0.2845 -0.0918
29427W        W35877   8.155   7.492   4.398  0.0026 -0.1400 -0.2412
29428W        W35878  24.447   5.939   3.200 -0.0325 -0.0488  0.0331
29429W        W35879   3.726   4.747  25.779  0.2053 -0.0297  0.2667
29430W        W35880  12.019   0.429  25.771  0.1206  0.0415  0.0706
29431W        W35881  23.608   1.532  23.459 -0.1320 -0.3070 -0.2834
29432W        W35882  13.434   7.342   3.193  0.3171  0.0802 -0.2051
29433W        W35883  12.202   0.170  18.049  0.2449  0.0141 -0.3836
29434W        W35884  30.872   4.443  21.435 -0.2416 -0.0883 -0.1051
29435W        W35885  25.710   5.513  17.761 -0.2191 -0.1300  0.0358
29436W        W35886  12.333   6.628   6.074 -0.2535 -0.0744  0.0018
29437W        W35887  23.559   1.768  11.775 -0.1694 -0.1236  0.0307
29438W        W35888   3.265   5.558   5.931 -0.2910  0.0937 -0.2677
29439W        W35889   5.895   1.137  23.463 -0.0073 -0.1736  0.3541
29440W        W35890  25.171   0.392   7.689  0.2335  0.1753 -0.1386
29441W        W35891  26.116   4.044  26.403 -0.1460  0.0712  0.0378
29442W        W35892   0.578   5.499   6.228 -0.0310 -0.0441 -0.0093
29443W        W35893  25.574   6.480  23.880  0.0904 -0.0579 -0.0737
29444W        W35894  18.367   2.386   8.672 -0.2858 -0.1953  0.4621
29445W        W35895  19.673   5.925  24.033 -0.1005  0.1727  0.0329
29446W        W35896  24.566   1.647  25.305 -0.1900  0.0100 -0.0422
29447W        W35897  20.685   2.066  25.130 -0.2222  0.1322 -0.2308
29448W        W35898  26.127   4.207  20.295  0.0700 -0.3761 -0.0989
29449W        W35899  27.607   0.931   2.393  0.0806 -0.2062  0.0837
29450W        W35900   9.405   5.746   1.039  0.3638 -0.2410  0.0061
29451W        W35901  26.532   5.406   8.644  0.2604 -0.3088 -0.1367
29452W        W35902   4.600   4.672  24.577  0.1474  0.1934  0.3500
29453W        W35903  13.836   5.191  18.461 -0.0688  0.4622 -0.1097
29454W        W35904   1.426   5.391   0.247  0.1963  0.1803 -0.0183
29455W        W35905  25.784   6.022   0.908  0.0547 -0.0100 -0.0529
29456W        W35906  27.783   1.624  23.696  0.2107  0.1423 -0.0338
29457W        W35907  12.219   1.731   5.136 -0.0655 -0.0321  0.0598
29458W        W35908   6.816   7.007   0.084  0.0830  0.3518  0.0493
29459W        W35909   4.122   6.553   4.059  0.3015 -0.0420 -0.1298
29460W        W35910  25.713   1.982  10.189  0.0920 -0.0620  0.1411
29461W        W35911  26.877   6.501   3.314 -0.0003  0.0434 -0.0522
29462W        W35912  12.403   2.267  21.037 -0.2688  0.3125 -0.0947
29463W        W35913  12.966   4.086  22.234 -0.1819  0.2779  0.2029
29464W        W35914  13.913   0.084   1.134 -0.2431  0.0536  0.2193
29465W        W35915  10.825   4.531   8.146  0.2557  0.1786  0.2750
29466W        W35916  31.159   1.667  10.752  0.1850 -0.0161 -0.1183
29467W        W35917  16.907   6.156  23.771  0.2480 -0.0597 -0.2945
29468W        W35918  26.473   6.476   4.309  0.0194 -0.1947  0.2522
29469W        W35919   0.662   3.168  22.457  0.2732 -0.1936 -0.1821
29470W        W35920  20.597   6.526   3.659 -0.0162 -0.2472 -0.2436
29471W        W35921  29.021   6.748   9.275 -0.0262  0.1808  0.0113
29472W        W35922   3.149   0.938  18.005 -0.2307  0.0279 -0.3303
29473W        W35923  18.020   6.845  19.094  0.2531 -0.1094 -0.2421
29474W        W35924   8.737   3.909  10.508 -0.2054  0.0545  0.0508
29475W        W35925  13.784   6.781  18.925 -0.1606  0.1367  0.1580
29476W        W35926  30.817   5.201   8.442  0.1423 -0.0588 -0.3728
29477W        W35927  23.734   5.646  23.613 -0.1908  0.0385  0.0213
29478W        W35928  22.219   6.723  24.511  0.1096  0.0648 -0.0903
29479W        W35929  29.317   7.476  19.714 -0.0259  0.3231  0.1240
29480W        W35930   6.805   3.633   8.483  0.3370 -0.0264  0.1362
29481W        W35931   6.419   2.833  24.531 -0.0222  0.1144  0.2771
29482W        W35932  29.958   0.854  21.976 -0.0191  0.1921 -0.1514
29483W        W35933  17.020   4.715  10.446 -0.1789  0.2074 -0.0696
29484W        W35934  24.402   1.911  18.242  0.1275  0.1164  0.0218
29485W        W35935  21.141   6.832  24.383 -0.0126  0.1167 -0.1731
29486W        W35936  28.853   4.632  18.546 -0.0200  0.1887 -0.0816
29487W        W35937   4.557   7.168  17.596 -0.0946 -0.0959  0.1378
29488W        W35938  13.091   0.899  17.238  0.2893 -0.1587 -0.0711
29489W        W35939   0.698   7.060   7.016 -0.0066  0.0791  0.1161
29490W        W35940  28.829   2.468   2.516 -0.1380  0.0297  0.1294
29491W        W35941  15.806   0.363  18.548  0.3018  0.1376 -0.1073
29492W        W35942   8.471   3.875  15.475  0.1848 -0.0017 -0.0380
29493W        W35943  11.152   4.802   3.373  0.0055 -0.2009  0.0761
29494W        W35944  23.521   1.721  24.389  0.0791 -0.2425 -0.1115
29495W        W35945  27.225   1.637  18.011  0.0062  0.0514 -0.0081
29496W        W35946   1.520   4.486  15.493 -0.3336  0.0760 -0.0878
29497W        W35947   6.385   5.872  19.796 -0.0927  0.0779  0.1728
29498W        W35948  28.886   3.425  20.327  0.3411 -0.0725  0.0190
29499W        W35949  14.818   3.684  18.599  0.4394  0.0905 -0.0247
29500W        W35950  31.101   2.688   4.993 -0.3767  0.1063  0.0699
29501W        W35951   1.258   6.884   4.359  0.0459 -0.0040  0.1377
29502W        W35952  16.531   1.305  25.151 -0.2637  0.0583 -0.0739
29503W        W35953  24.099   1.238  20.761  0.0555  0.0308  0.1475
29504W        W35954  14.662   0.655  21.922 -0.0901 -0.0289  0.3360
29505W        W35955  25.547   3.487  25.953 -0.2872  0.1539  0.1444
29506W        W35956  12.810   0.857  20.319 -0.2532  0.1442  0.1222
29507W        W35957  25.974   5.765  25.755  0.2842 -0.0959  0.0578
29508W        W35958   4.459   7.532  22.082 -0.0532  0.0392  0.1020
29509W        W35959  17.781   6.545   7.137 -0.1792 -0.1398 -0.0830
29510W        W35960   9.351   6.182  18.872 -0.1016 -0.0800  0.2834
29511W        W35961   1.388   0.822  22.634 -0.0867 -0.1493  0.0805
29512W        W35962  23.417   4.587   0.719  0.1071 -0.4027  0.3143
29513W        W35963  18.944   3.509   3.542  0.0885  0.0346  0.1626
29514W        W35964  29.020   0.289   2.812 -0.0940  0.0733  0.0454
29515W        W35965  17.237   5.369   0.953 -0.1642 -0.2462  0.0496
29516W        W35966  16.597   1.262   6.720 -0.2227 -0.0271 -0.0013
29517W        W35967   9.998   3.813   7.209  0.3657  0.0915 -0.1012
29518W        W35968  20.956   1.969  20.713 -0.1324 -0.1216  0.0847
29519W        W35969   6.171   3.178   0.040 -0.0536  0.1724 -0.1293
29520W        W35970  24.695   6.746  23.442  0.4618  0.1327 -0.1533
29521W        W35971  22.193   6.671   7.068  0.1096  0.0871 -0.1899
29522W        W35972   7.943   0.881  18.834  0.2744  0.0905  0.1200
29523W        W35973  28.804   2.135  20.869 -0.0332  0.2754  0.0548
29524W        W35974  27.821   0.047  23.937  0.0195 -0.0136  0.2682
29525W        W35975  27.165   0.342   8.418  0.1417 -0.2398 -0.0443
29526W        W35976   8.456   3.235  10.805 -0.0846  0.1106 -0.1233
29527W        W35977   0.629   0.215  16.300 -0.0752  0.1274  0.0702
29528W        W35978  15.582   5.250  25.004 -0.1427 -0.0331 -0.0503
29529W        W35979  19.491   6.894  25.586 -0.0895 -0.2575 -0.0883
29530W        W35980  26.832   4.559   6.935  0.1953  0.1835 -0.1173
29531W        W35981   0.360   0.412   3.029 -0.1010  0.1716  0.1412
29532W        W35982  11.235   0.141  14.724  0.0383 -0.2623 -0.1082
29533W        W35983  25.140   7.494  19.296  0.0382 -0.1785  0.2225
29534W        W35984   9.223   1.149  20.578  0.1411  0.0220 -0.0094
29535W        W35985   0.721   4.641  20.664  0.4296  0.0569  0.1318
29536W        W35986  17.844   1.154   7.893  0.0052  0.1389 -0.1523
29537W        W35987  30.734   4.838  17.962 -0.1973  0.0331  0.0131
29538W        W35988  12.278   0.463  22.922 -0.0202  0.1963 -0.1696
29539W        W35989   4.822   4.658  25.471  0.0082 -0.0838  0.0315
29540W        W35990   9.351   5.053   2.955  0.1846  0.1070  0.1612
29541W        W35991   3.543   2.580  11.195 -0.1107  0.4324 -0.0922
29542W        W35992  18.843   7.170  25.734 -0.3096  0.2164 -0.2640
29543W        W35993   3.710   1.369  21.892 -0.0757  0.3001 -0.0463
29544W        W35994  22.636   1.025   9.872  0.3346 -0.2157  0.3273
29545W        W35995  28.698   7.533  16.981 -0.0742  0.1101  0.1321
29546W        W35996   8.892   4.233  23.028  0.3460  0.1020  0.0203
29547W        W35997  18.803   0.662  25.578 -0.0887  0.2224 -0.0487
29548W        W35998  13.468   2.221  21.282 -0.1250  0.2105 -0.0328
29549W        W35999  26.431   7.605   4.138  0.0064  0.2275 -0.0888
29550W        W36000  17.798   4.141   2.171  0.0786 -0.3074 -0.0323
29551W        W36001  23.483   7.717   3.386  0.0906 -0.0702 -0.1215
29552W        W36002  29.929   0.497   4.897 -0.2050  0.0863 -0.0233
29553W        W36003  25.970   4.117  23.205  0.1645 -0.0145  0.0974
29554W        W36004  27.341   6.961   7.208  0.2279 -0.1042 -0.1971
29555W        W36005  16.898   7.119   1.894 -0.1811  0.2157  0.3254
29556W        W36006  29.817   1.375  26.016  0.1641 -0.2568  0.1133
29557W        W36007   2.543   4.143   8.592  0.1276 -0.0236  0.1481
29558W        W36008  11.860   7.011   8.790 -0.3622 -0.1569 -0.3309
29559W        W36009  29.534   0.577   6.348 -0.2790 -0.0391 -0.2623
29560W        W36010  17.940   6.066  23.032  0.0979  0.1821 -0.0030
29561W        W36011  15.252   1.246  20.957 -0.0064  0.1211  0.3465
29562W        W36012  17.429   7.549   0.674 -0.1957 -0.3237 -0.2181
29563W        W36013  22.217   4.260  15.750  0.3140 -0.0760  0.0695
29564W        W36014  13.559   2.107  18.218  0.1094 -0.3217  0.3457
29565W        W36015  19.950   4.187   9.334 -0.0184 -0.0556 -0.0951
29566W        W36016  17.564   0.517  21.339  0.0154 -0.1144 -0.2236
29567W        W36017  10.929   3.752   6.948  0.1689  0.0592  0.3289
29568W        W36018  11.669   6.531  25.320 -0.0893  0.2286  0.1536
29569W        W36019  16.894   3.346  20.196  0.1240  0.1803 -0.0556
29570W        W36020   4.299   2.564   1.625  0.2301  0.2891 -0.1550
29571W        W36021   8.958   6.413   6.065  0.2850 -0.1007  0.3176
29572W        W36022   8.138   1.201  11.063  0.0800  0.1347  0.5018
29573W        W36023  21.572   4.919   3.486 -0.1443 -0.0610  0.0041
29574W        W36024   8.231   4.539  18.141  0.1343 -0.3423  0.0329
29575W        W36025   9.979   1.702   1.282  0.1599  0.0613  0.3819
29576W        W36026   4.024   6.887   8.840 -0.0921  0.4588 -0.0906
29577W        W36027  14.944   7.496   3.764 -0.1760 -0.1602 -0.0004
29578W        W36028  28.855   2.711  21.040 -0.1259  0.2353 -0.1046
29579W        W36029  25.352   5.832   4.312  0.1972  0.1876 -0.3559
29580W        W36030  22.056   7.248   6.042 -0.1447  0.1360  0.2035
29581W        W36031  22.069   3.489  26.333 -0.1021 -0.0129 -0.0880
29582W        W36032   7.551   4.070   4.159 -0.0238  0.0055 -0.0720
29583W        W36033   8.129   4.087   6.775  0.0803  0.0294  0.0710
29584W        W36034  28.390   5.557   2.849  0.2617 -0.0212 -0.0990
29585W        W36035   1.280   2.364  17.021  0.1095 -0.0844 -0.2018
29586W        W36036  10.479   5.269   4.311 -0.0567 -0.2909 -0.0179
29587W        W36037   5.991   3.832   5.474 -0.0278 -0.1080  0.1705
29588W        W36038  17.305   6.304   6.334 -0.1883 -0.1821  0.0459
29589W        W36039  20.813   0.808   6.249  0.0125 -0.0948 -0.1284
29590W        W36040  19.492   4.178  19.109 -0.1812  0.1897  0.0524
29591W        W36041  24.350   3.602  15.544  0.0573  0.0458 -0.1100
29592W        W36042   4.980   5.799   3.874  0.0971 -0.0283  0.2294
29593W        W36043   3.166   1.916  18.559  0.0607 -0.1659  0.0131
29594W        W36044  13.269   2.199  24.995  0.0314 -0.4622 -0.0933
29595W        W36045  28.752   6.773  16.039  0.0828  0.0465  0.1883
29596W        W36046  18.297   3.900  15.237 -0.2256 -0.0440  0.0558
29597W        W36047  16.660   2.748   3.844 -0.3272  0.4253  0.3211
29598W        W36048  29.722   7.584  16.492 -0.1594 -0.2070  0.2256
29599W        W36049   6.690   4.993   9.634  0.2012 -0.0152 -0.1162
29600W        W36050  21.310   5.581   7.680 -0.0575  0.2485  0.2225
29601W        W36051   2.577   0.423   6.440 -0.1322  0.1442  0.0373
29602W        W36052  25.284   3.284  22.152  0.4724 -0.0702 -0.0097
29603W        W36053  11.844   6.336  20.121  0.0558  0.1786 -0.0508
29604W        W36054  20.199   4.568   0.232 -0.0863  0.1151  0.0317
29605W        W36055   3.771   2.135  19.270 -0.2959 -0.2161  0.3184
29606W        W36056  24.809   5.167   7.191  0.1200  0.1080 -0.1545
29607W        W36057   0.297   4.509  22.034 -0.1633  0.2660  0.2719
29608W        W36058  12.820   7.095  19.383 -0.1671  0.2806 -0.0386
29609W        W36059  16.944   3.543  19.631 -0.0611  0.0388  0.0312
29610W        W36060  18.761   2.125  20.940 -0.0650 -0.0581  0.0257
29611W        W36061  18.396   4.409   9.953  0.1941  0.0734  0.1029
29612W        W36062  12.931   2.663  10.151  0.0402  0.0348 -0.0129
29613W        W36063  14.933   0.359   4.998 -0.0531  0.1560  0.0288
29614W        W36064  25.411   6.970   3.041 -0.0757 -0.3568 -0.3436
29615W        W36065  15.364   4.452  10.751 -0.3042 -0.1220  0.0135
29616W        W36066  11.597   3.147  23.862  0.0967 -0.1334  0.0964
29617W        W36067  12.634   1.294   0.489  0.0353 -0.0174  0.0068
29618W        W36068  29.974   3.021  23.361 -0.1012 -0.3812 -0.0394
29619W        W36069  30.899   0.642   4.164 -0.1286 -0.0767  0.0948
29620W        W36070  13.273   0.032   0.205  0.0628 -0.1562  0.1522
29621W        W36071  23.841   7.470  17.756  0.0321  0.4626  0.0648
29622W        W36072  27.575   7.685  18.287 -0.2270 -0.0566  0.2401
29623W        W36073  31.060   3.126  23.192  0.0938  0.2768 -0.4649
29624W        W36074   1.039   3.392   9.306 -0.0992 -0.1071 -0.3282
29625W        W36075  18.395   3.544  10.508  0.1986  0.2226 -0.1976
29626W        W36076  22.762   7.599  22.041 -0.1035  0.1076  0.2081
29627W        W36077  29.953   1.733   7.620  0.0405  0.0824 -0.0416
29628W        W36078  10.216   3.127  10.537 -0.1382  0.0206  0.0464
29629W        W36079  15.718   6.741  18.358 -0.2027  0.0828  0.0945
29630W        W36080  14.761   1.907  21.315 -0.1566 -0.0846  0.0615
29631W        W36081   4.085   0.198  22.973  0.0163  0.0529 -0.3041
29632W        W36082   9.150   5.324   1.257  0.0236  0.1820 -0.2669
29633W        W36083  29.413   2.980  17.924 -0.0661  0.2286  0.0262
29634W        W36084  19.828   3.409  22.582 -0.1692  0.1387 -0.3425
29635W        W36085  28.899   3.023  18.823 -0.0146  0.1931  0.1153
29636W        W36086   8.312   4.560  20.196 -0.3467  0.1671  0.0776
29637W        W36087  17.086   2.160  19.349  0.3702 -0.1651 -0.2248
29638W        W36088   4.743   2.685  20.578  0.1769  0.2601 -0.0593
29639W        W36089  16.333   0.133   3.946 -0.0375 -0.2940 -0.2892
29640W        W36090   7.760   7.798  18.647 -0.2117 -0.0819 -0.0805
29641W        W36091   0.442   1.872  10.529  0.0219  0.2794 -0.1957
29642W        W36092  17.799   6.962  22.546  0.0593  0.0289 -0.2001
29643W        W36093  24.985   3.097  17.567  0.1799  0.0281 -0.0576
29644W        W36094  16.339   6.568   6.133  0.2051 -0.0080 -0.0590
29645W        W36095  26.770   1.954  20.025  0.1784  0.0708  0.2780
29646W        W36096  26.557   7.672  18.378  0.0051 -0.2679  0.0655
29647W        W36097  16.036   5.600   9.474 -0.1693 -0.0231  0.0721
29648W        W36098  13.520   3.099  23.253  0.1042  0.0881 -0.0377
29649W        W36099  28.972   5.244  17.900 -0.1991 -0.1948 -0.0386
29650W        W36100   5.017   6.163  18.565 -0.0332  0.0551  0.1587
29651W        W36101   7.669   1.300  18.864 -0.1862  0.0802 -0.0082
29652W        W36102  22.316   4.567  16.615  0.0900 -0.0886  0.1963
29653W        W36103  27.243   0.581   7.400 -0.0503 -0.2089  0.2680
29654W        W36104  15.956   1.456  19.926  0.0998  0.1559 -0.1565
29655W        W36105   9.091   6.772   7.866  0.1110  0.0483 -0.0135
29656W        W36106   1.861   0.534   9.187 -0.0143  0.0218 -0.0480
29657W        W36107  16.808   3.353   7.160 -0.1792  0.1822 -0.1618
29658W        W36108  26.886   1.604   8.255  0.0832 -0.2733  0.0153
29659W        W36109   2.596   4.967   1.358  0.0895  0.2121  0.3415
29660W        W36110  30.472   0.112  22.517 -0.0274  0.1695 -0.2188
29661W        W36111  24.689   3.760   4.547  0.2084 -0.2383  0.2830
29662W        W36112  28.758   2.632  16.138 -0.1153  0.4418 -0.1425
29663W        W36113  21.931   5.207  18.250 -0.1306 -0.1153  0.0303
29664W        W36114  22.826   3.362   9.633  0.0116  0.0665  0.3538
29665W        W36115  30.287   2.575  23.317  0.2606  0.0271 -0.2657
29666W        W36116  22.913   7.130  19.740 -0.2150 -0.1203 -0.0766
29667W        W36117  27.679   6.878   4.970  0.1582 -0.0414  0.0571
29668W        W36118  26.378   2.125  26.329  0.1538 -0.0856 -0.0796
29669W        W36119   0.880   4.672   5.387  0.2160 -0.1719 -0.2082
29670W        W36120  20.721   7.062   8.500  0.0284  0.0877 -0.2006
29671W        W36121  24.653   2.829  17.305  0.0893  0.2661 -0.0705
29672W        W36122  11.142   6.414  25.958 -0.4358 -0.2447 -0.1774
29673W        W36123  12.774   1.826  23.241 -0.1248 -0.0223  0.0624
29674W        W36124   2.980   2.019   9.870 -0.0423  0.0019  0.2012
29675W        W36125  27.202   4.717  15.699 -0.0630 -0.2424  0.0456
29676W        W36126  28.804   0.710   2.474 -0.3748 -0.2082 -0.1322
29677W        W36127   4.806   2.477  17.571 -0.1370  0.1510 -0.0686
29678W        W36128  28.533   5.853  24.298  0.1064  0.1242  0.3340
29679W        W36129  29.903   7.771  21.829 -0.0891 -0.0999 -0.0726
29680W        W36130  25.806   1.575  18.343 -0.1824  0.0243 -0.0958
29681W        W36131  28.735   5.266  23.362  0.2423 -0.2993 -0.0814
29682W        W36132  18.463   5.390   0.240 -0.1220 -0.3168 -0.1360
29683W        W36133  21.017   0.853  10.382  0.2054  0.0872  0.0484
29684W        W36134  23.126   5.626   0.240 -0.0502 -0.2509 -0.1765
29685W        W36135   2.302   3.434  16.547 -0.2454 -0.1613  0.0080
29686W        W36136  28.320   6.202  22.136  0.1576 -0.1217 -0.0069
29687W        W36137  23.513   5.585  24.962  0.2481 -0.1902  0.0215
29688W        W36138  25.577   7.228  21.116  0.0865  0.3429  0.1139
29689W        W36139   0.394   2.556   8.432 -0.1075 -0.1890 -0.0452
29690W        W36140   8.351   6.630  16.927 -0.1489  0.0279 -0.0650
29691W        W36141  13.954   6.529   1.190  0.1675 -0.0402  0.1056
29692W        W36142   9.251   2.876   8.490  0.0410  0.1660  0.0178
29693W        W36143  10.245   4.533  20.127 -0.3098  0.1853  0.3735
29694W        W36144  12.744   5.270  26.101 -0.2344  0.2691 -0.2007
29695W        W36145  23.603   7.427   0.928  0.1646  0.1063 -0.2210
29696W        W36146  21.796   5.201  21.559  0.0851 -0.0259 -0.1752
29697W        W36147   1.929   0.754   8.009  0.0349 -0.1066  0.0929
29698W        W36148  23.847   4.227  18.651  0.0107  0.0345  0.2266
29699W        W36149   0.662   0.335  17.936  0.3753 -0.0316  0.2208
29700W        W36150   3.788   2.715  23.568  0.3694 -0.0580 -0.4261
29701W        W36151  12.278   5.691  26.240  0.0303  0.0515 -0.2139
29702W        W36152  12.959   5.575  15.519  0.0320  0.3342 -0.1459
29703W        W36153  23.002   7.032  17.799 -0.1384  0.1309 -0.0948
29704W        W36154  20.230   2.294   7.673 -0.0568  0.0217 -0.2007
29705W        W36155   4.388   6.875   3.233  0.0063 -0.2899  0.2205
29706W        W36156  15.597   2.342   4.633  0.1656 -0.0874 -0.0453
29707W        W36157  11.188   0.449   7.912 -0.1554 -0.2064 -0.2416
29708W        W36158  25.219   1.811  16.249  0.0004 -0.0075  0.0086
29709W        W36159  14.885   2.801   5.515 -0.2917  0.0448 -0.1834
29710W        W36160  11.619   6.740   0.567  0.0213  0.0175 -0.1884
29711W        W36161   0.216   5.733   7.010  0.0263  0.1221 -0.0016
29712W        W36162  23.137   2.570   1.099 -0.1243 -0.1992  0.1195
29713W        W36163   5.572   1.636  21.809 -0.3432 -0.0493 -0.0349
29714W        W36164  24.378   1.503   0.000 -0.1263  0.1158 -0.1280
29715W        W36165   1.051   0.391  19.485 -0.1678  0.0254 -0.0299
29716W        W36166  28.633   4.307   9.882 -0.0702  0.2734 -0.1501
29717W        W36167  25.760   0.467  23.939  0.0024  0.0485  0.3139
29718W        W36168  20.347   1.715  17.101 -0.2113 -0.0412  0.2040
29719W        W36169  15.603   4.708  21.816 -0.3783  0.2309 -0.1088
29720W        W36170  31.196   4.782  16.974  0.0885  0.1893 -0.0199
29721W        W36171   7.686   4.062   9.531  0.2672 -0.0057  0.0126
29722W        W36172  16.121   3.095   1.914 -0.1827 -0.1091 -0.2251
29723W        W36173  22.332   0.079  23.061 -0.1774 -0.0155  0.0218
29724W        W36174  30.813   2.638  10.749  0.1049  0.0730  0.0053
29725W        W36175   6.528   3.357  15.546 -0.0539  0.2049 -0.1045
29726W        W36176  30.665   4.031   1.114 -0.1458 -0.3995 -0.0736
29727W        W36177  15.967   6.654  22.477  0.3541 -0.0657 -0.0351
29728W        W36178  21.703   3.873   6.632  0.3303 -0.3029 -0.0906
29729W        W36179  22.512   4.684  15.737 -0.0605  0.1100 -0.0179
29730W        W36180  26.865   2.717   4.950 -0.3187  0.0010 -0.1209
29731W        W36181  11.419   1.795  25.604  0.2382  0.2276 -0.0395
29732W        W36182  22.401   1.767  24.167 -0.0178  0.2388  0.0598
29733W        W36183  30.052   1.231   5.053 -0.2564 -0.1382 -0.3112
29734W        W36184  18.921   3.802  16.922 -0.0651 -0.2044 -0.2866
29735W        W36185  28.263   1.548   2.555 -0.0558 -0.0037 -0.0695
29736W        W36186  17.876   2.749  26.149 -0.2836  0.0971  0.0019
29737W        W36187  27.152   4.519  16.549  0.1002 -0.0016  0.0334
29738W        W36188   4.606   7.264  25.837 -0.2565 -0.0585 -0.1563
29739W        W36189  29.613   2.963  11.151  0.0291  0.1395 -0.0159
29740W        W36190  26.770   0.758  20.380 -0.0806 -0.0393 -0.1436
29741W        W36191  29.993   1.892   3.720  0.2860  0.1212 -0.1762
29742W        W36192  27.342   2.034  15.539 -0.0119  0.1506 -0.0204
29743W        W36193  29.457   1.360  24.764  0.1561 -0.1446  0.2185
29744W        W36194   3.073   0.674  10.200 -0.1080  0.1028  0.1543
29745W        W36195  29.734   2.073  10.926  0.0603 -0.2251  0.0585
29746W        W36196  18.284   2.042   9.622 -0.0325 -0.0291 -0.1623
29747W        W36197  20.179   6.148   0.704 -0.0681  0.0404  0.1204
29748W        W36198   6.056   5.423  21.485 -0.0908 -0.1692  0.0616
29749W        W36199  23.722   1.184   1.269  0.0696 -0.1128 -0.0499
29750W        W36200  12.835   0.731  24.984 -0.0045 -0.0965 -0.2872
29751W        W36201  13.779   2.201   5.509  0.1072 -0.4230 -0.4117
29752W        W36202  17.986   2.059   8.422 -0.1683  0.1314 -0.1177
29753W        W36203  21.942   3.109   7.115 -0.1341  0.0177 -0.0912
29754W        W36204  17.385   5.064   3.880 -0.1014  0.0649  0.3972
29755W        W36205   3.068   5.789   6.854  0.2148 -0.0344 -0.0593
29756W        W36206  10.076   7.487  22.795 -0.0306  0.2886  0.0620
29757W        W36207  22.143   0.312  22.585 -0.1488  0.0496  0.3979
29758W        W36208  31.118   1.154  18.351 -0.0689  0.0849  0.1605
29759W        W36209   0.632   5.264  21.097 -0.1810  0.1469  0.0442
29760W        W36210   8.279   6.835   9.622  0.0199 -0.0919 -0.1426
29761W        W36211  28.685   4.608   6.371 -0.0967  0.1640  0.0957
29762W        W36212   0.368   3.383  17.404  0.0474 -0.1108 -0.0740
29763W        W36213  20.690   1.910   0.067  0.0488  0.0054  0.0282
29764W        W36214  15.976   4.568   1.146  0.0112 -0.1510  0.0455
29765W        W36215  29.780   0.286  15.811  0.2368 -0.0084  0.0465
29766W        W36216  20.908   2.685  22.517 -0.0226  0.1524 -0.2864
29767W        W36217   5.094   0.198   3.664  0.1757 -0.2398  0.3576
29768W        W36218  23.539   0.987  11.253 -0.0005  0.1369 -0.0725
29769W        W36219  29.959   0.317  18.168 -0.0964 -0.0774 -0.1251
29770W        W36220  20.108   3.662  20.323  0.0001  0.2051 -0.1658
29771W        W36221  26.375   0.207   3.829  0.3393 -0.3838 -0.1564
29772W        W36222  21.429   1.996  19.506  0.2803  0.0490 -0.5505
29773W        W36223   2.562   4.290  24.992  0.0095  0.0812  0.0403
29774W        W36224  18.934   5.027  25.311  0.0751 -0.1028 -0.1258
29775W        W36225   5.647   5.790  20.552  0.0545  0.1247 -0.0179
29776W        W36226  28.582   2.908   3.391 -0.0668 -0.1246 -0.1979
29777W        W36227   9.972   7.368   9.537 -0.4254  0.1257  0.0093
29778W        W36228  29.888   0.152   8.733  0.0098 -0.0654  0.0058
29779W        W36229  11.990   1.068  17.868 -0.2347  0.0718  0.1164
29780W        W36230  26.487   7.396   7.366 -0.1185  0.1830  0.0439
29781W        W36231  29.995   3.673   8.572  0.0903  0.1528  0.1203
29782W        W36232   5.870   4.874   6.615  0.2116  0.3014 -0.0673
29783W        W36233   7.207   5.344   4.283 -0.2518 -0.3593 -0.0900
29784W        W36234  14.064   2.213   3.364  0.1802 -0.2514  0.2160
29785W        W36235  14.390   5.461   8.369 -0.0133 -0.2031  0.0558
29786W        W36236   2.296   2.636   3.438 -0.0758 -0.1038  0.0777
29787W        W36237  23.724   1.889  16.961  0.1253 -0.0942 -0.2460
29788W        W36238  19.833   3.624   4.145 -0.0731  0.1783  0.0558
29789W        W36239  20.538   0.161  20.511 -0.1126 -0.1657 -0.0298
29790W        W36240  29.221   2.009   4.515 -0.2672 -0.0487 -0.0933
29791W        W36241  14.405   0.125  26.083  0.0893  0.1229 -0.0110
29792W        W36242  27.711   7.103   0.485  0.1434 -0.0213  0.0221
29793W        W36243   1.816   0.419   7.667 -0.1207 -0.0996 -0.1156
29794W        W36244  17.217   6.673  25.231 -0.1535 -0.2058  0.0786
29795W        W36245  17.455   5.235   9.681 -0.0392 -0.1910 -0.2363
29796W        W36246  17.574   7.031   5.901  0.0697 -0.1043 -0.0363
29797W        W36247  21.017   2.163  22.559  0.3240 -0.0198  0.3117
29798W        W36248  23.960   7.714   1.157 -0.0883 -0.1717 -0.3845
29799W        W36249   4.121   4.421  17.518 -0.1204 -0.0103 -0.3290
29800W        W36250  19.736   2.695   1.144  0.3101 -0.0516 -0.0264
29801W        W36251  20.690   5.466   1.909  0.1517  0.2801  0.0082
29802W        W36252   7.141   6.853  10.151  0.0064  0.5326  0.1843
29803W        W36253  21.833   1.076  24.185 -0.0071 -0.1134  0.1886
29804W        W36254   1.560   4.074  15.249  0.1898 -0.2279 -0.1564
29805W        W36255   0.003   5.017   4.052  0.3367 -0.0262  0.0029
29806W        W36256  10.569   6.201   3.773  0.2553 -0.0924 -0.4171
29807W        W36257  19.644   2.133  15.687 -0.1529 -0.0188 -0.2395
29808W        W36258  30.106   3.955  16.124 -0.2188  0.0535 -0.1034
29809W        W36259  17.140   3.868   9.843  0.2556  0.0250 -0.1296
29810W        W36260  24.904   7.439  18.808  0.0243 -0.1935  0.1574
29811W        W36261  15.796   2.308  16.063 -0.0848  0.3762  0.0316
29812W        W36262  29.539   0.326  17.819 -0.0735 -0.4848 -0.0687
29813W        W36263   7.937   7.561   9.344 -0.3420 -0.0327 -0.4054
29814W        W36264   6.038   3.542   1.560  0.1603 -0.0022  0.1653
29815W        W36265   8.306   1.794  16.257  0.2249 -0.0322 -0.1642
29816W        W36266   8.921   6.285  20.166 -0.2169 -0.2031  0.0709
29817W        W36267  29.982   1.552  15.650 -0.0992  0.3520  0.3295
29818W        W36268  14.084   5.492  18.880  0.0137 -0.1954  0.1098
29819W        W36269  21.760   5.337  16.903  0.1786 -0.0896  0.0187
29820W        W36270   9.111   3.079  16.284  0.0312 -0.2848  0.1525
29821W        W36271  29.828   0.449   4.307 -0.0167  0.0552  0.1061
29822W        W36272  24.252   6.696  15.916  0.0990 -0.1256 -0.1408
29823W        W36273  18.795   6.088  25.814 -0.0389  0.1204  0.2771
29824W        W36274  15.636   5.455  22.510 -0.0844 -0.0972  0.0012
29825W        W36275  10.208   1.532  26.286 -0.0403 -0.1549 -0.1617
29826W        W36276  13.603   0.900  19.621  0.3371  0.0413 -0.2719
29827W        W36277  20.220   3.850   5.485 -0.2908  0.0289  0.2014
29828W        W36278  17.297   2.066   4.718  0.0048  0.0616 -0.1208
29829W        W36279  10.235   5.037   3.070  0.2842  0.1167 -0.0852
29830W        W36280   7.590   2.610  25.060 -0.0533  0.4798  0.0210
29831W        W36281  27.933   0.088   4.737  0.0150 -0.1233 -0.1139
29832W        W36282  10.580   0.598   4.010 -0.0706  0.2974  0.0113
29833W        W36283   5.929   2.977   9.088 -0.1938 -0.0140 -0.1942
29834W        W36284   7.555   7.156   8.640  0.0880  0.1837 -0.0548
29835W        W36285  28.007   2.627  25.500 -0.0981  0.0983  0.3056
29836W        W36286  20.129   0.379  25.797 -0.1353 -0.1727  0.1346
29837W        W36287  20.808   1.409  23.809  0.3623  0.1036  0.0100
29838W        W36288  28.251   0.498   3.780 -0.0621  0.2553 -0.0066
29839W        W36289  30.608   1.363  19.895  0.0534 -0.1278 -0.1747
29840W        W36290  11.869   5.525  15.423 -0.1462 -0.0138  0.1762
29841W        W36291   1.498   6.588   6.700  0.0677 -0.3475 -0.1187
29842W        W36292   3.130   4.276  21.040 -0.2404 -0.0831 -0.3270
29843W        W36293  11.105   5.465  18.273  0.6294 -0.1888 -0.0483
29844W        W36294  22.348   4.390  25.772  0.1578  0.1447  0.2780
29845W        W36295  15.789   0.406   4.969 -0.0867  0.1570 -0.3812
29846W        W36296   3.202   7.732  25.174 -0.3181  0.2763 -0.1680
29847W        W36297   8.970   0.371  24.023 -0.0604  0.2862 -0.3724
29848W        W36298  22.554   3.682  20.273 -0.1287  0.0772  0.1868
29849W        W36299  24.321   4.651   5.247  0.1840  0.0479  0.0263
29850W        W36300  25.570   5.516  11.077  0.1030 -0.1583  0.0055
29851W        W36301  13.104   4.087   9.478  0.1673  0.3611 -0.2364
29852W        W36302   6.031   3.313   7.955  0.1516 -0.1268 -0.1812
29853W        W36303   4.547   5.040  10.200  0.0807 -0.4168 -0.1084
29854W        W36304  14.142   6.408   4.089 -0.1859  0.0667  0.2777
29855W        W36305   3.474   2.690  26.281  0.4547 -0.2586  0.2928
29856W        W36306  11.686   0.943   0.058  0.0439 -0.2571  0.0271
29857W        W36307  11.753   0.699  15.961  0.0661  0.3226 -0.0296
29858W        W36308  24.183   5.264   0.283  0.3107  0.0607  0.0855
29859W        W36309  18.724   6.266   2.545  0.2808 -0.4313 -0.2354
29860W        W36310  23.746   5.914   3.782  0.0285 -0.1355  0.1823
29861W        W36311  14.156   7.316  19.640  0.2220 -0.0171 -0.2591
29862W        W36312  10.168   6.181   3.512  0.2959 -0.1950  0.1022
29863W        W36313  19.258   6.430  15.833  0.1068  0.1231  0.1677
29864W        W36314   5.640   7.761  22.976  0.0191 -0.0140  0.0030
29865W        W36315  19.536   7.014  10.787 -0.0836  0.1430 -0.1135
29866W        W36316   8.269   5.901   4.574  0.3126 -0.0543 -0.1654
29867W        W36317  14.866   4.389  20.575 -0.1287  0.2123  0.3514
29868W        W36318  20.276   3.389   4.471 -0.0761  0.2479  0.0067
29869W        W36319   8.609   0.692   5.458  0.2532  0.1242 -0.0395
29870W        W36320  27.493   6.573  20.947  0.0406  0.0613  0.0888
29871W        W36321  21.283   2.983  23.258  0.1080  0.2107  0.1823
29872W        W36322   1.052   2.083   1.947 -0.0359  0.2644  0.0763
29873W        W36323   6.446   7.098  10.598  0.0080  0.0479  0.0385
29874W        W36324   6.264   5.020  18.449  0.0652  0.0249  0.2899
29875W        W36325  24.694   3.205   8.302 -0.2105  0.3108 -0.3285
29876W        W36326   4.960   4.114   1.947 -0.0597 -0.0241 -0.2504
29877W        W36327  14.883   0.072   0.814  0.0718 -0.0299 -0.0984
29878W        W36328   7.084   6.797   7.775  0.2566  0.1230  0.1390
29879W        W36329   2.227   7.333   1.431  0.2284 -0.3008 -0.1237
29880W        W36330  25.210   4.559  18.528 -0.3268 -0.0222 -0.1763
29881W        W36331   8.595   1.418   4.793 -0.2673 -0.1932 -0.2039
29882W        W36332  14.411   4.245   4.180  0.1918  0.1035 -0.2915
29883W        W36333  26.978   1.617  22.584  0.4039  0.0103  0.0567
29884W        W36334  19.801   6.033  20.479 -0.1278  0.1147 -0.2317
29885W        W36335  30.207   0.946  19.173  0.1055  0.1021  0.2196
29886W        W36336  17.978   2.000  14.858 -0.1540  0.1495 -0.1425
29887W        W36337   5.585   6.155  15.541  0.1247 -0.2181  0.1290
29888W        W36338  23.312   0.377  11.154  0.2253  0.1435  0.1637
29889W        W36339  11.338   6.004   2.140  0.2201 -0.0052 -0.2943
29890W        W36340  27.385   3.309  25.498 -0.1173  0.0692  0.0689
29891W        W36341  14.519   2.919  22.483  0.0385 -0.2088  0.0370
29892W        W36342  18.509   0.459  17.101 -0.1278 -0.0619  0.3326
29893W        W36343   1.354   1.446  25.971 -0.1991 -0.0785  0.1598
29894W        W36344   4.398   2.088   8.707 -0.0845  0.3254  0.1172
29895W        W36345  29.787   3.705  25.211 -0.1230 -0.0519  0.2470
29896W        W36346  18.272   6.819   7.693  0.3183 -0.0139 -0.1652
29897W        W36347  15.024   2.197   3.456  0.1383 -0.1579  0.1390
29898W        W36348  20.411   1.398  10.652 -0.0788 -0.0449 -0.0521
29899W        W36349   0.327   0.634  18.106 -0.0016  0.2306 -0.0272
29900W        W36350  24.869   3.446  20.292 -0.1472 -0.0997 -0.0722
29901W        W36351  27.116   2.930  17.428 -0.2641 -0.1644 -0.0587
29902W        W36352  27.143   3.476  11.216 -0.3458  0.2909 -0.0664
29903W        W36353  18.545   1.323  21.578 -0.0724 -0.0854 -0.2422
29904W        W36354  20.773   6.580   5.064  0.0202  0.1208  0.2259
29905W        W36355   2.770   1.260   3.978  0.4077 -0.0462 -0.2382
29906W        W36356  19.561   0.592   0.993  0.1134  0.2175 -0.2640
29907W        W36357  15.724   3.628  21.275 -0.1987 -0.0120  0.1299
29908W        W36358   0.387   6.238  24.681 -0.1015  0.1061  0.4756
29909W        W36359  24.464   1.556  19.739 -0.2055  0.0468 -0.1038
29910W        W36360  21.191   1.991  18.563  0.0930  0.0113  0.2774
29911W        W36361   6.598   7.519   4.110  0.2124  0.1016 -0.2146
29912W        W36362  12.139   0.294  22.408 -0.0677  0.0457  0.0451
29913W        W36363   2.848   3.896   5.364 -0.2339  0.1264  0.2222
29914W        W36364  13.898   3.101  17.244  0.0501  0.0444 -0.0915
29915W        W36365   3.568   4.290  25.602  0.0713 -0.0174 -0.1048
29916W        W36366   5.880   5.691  25.638  0.1581  0.0324  0.1626
29917W        W36367  21.790   5.214   6.740 -0.0229 -0.0640  0.4379
29918W        W36368  23.787   2.530  25.920  0.2218 -0.1560  0.1080
29919W        W36369  25.950   5.789  22.782  0.0035 -0.1316 -0.2120
29920W        W36370  31.101   3.576  15.086 -0.0471  0.1994  0.0898
29921W        W36371   4.254   5.551   0.008  0.0427  0.1146  0.2235
29922W        W36372   1.845   5.377  19.863  0.0403 -0.1584  0.0483
29923W        W36373  15.757   1.721   3.743  0.0995  0.0151  0.2989
29924W        W36374   0.397   2.223   1.015 -0.1376  0.0666  0.2219
29925W        W36375  23.987   6.838   1.508  0.1175  0.0616 -0.0285
29926W        W36376   4.678   0.741  17.267 -0.0631  0.0011 -0.0615
29927W        W36377  24.003   7.068  17.378 -0.1309 -0.0784  0.0603
29928W        W36378  23.195   3.425  18.901 -0.0845  0.0629 -0.0484
29929W        W36379  19.378   1.633  10.670  0.4747 -0.0641 -0.2455
29930W        W36380  19.747   6.798  25.116  0.2590 -0.0340 -0.1318
29931W        W36381  16.033   6.518   0.111 -0.3100  0.1648 -0.0997
29932W        W36382  23.917   6.124  23.774 -0.0697 -0.0794  0.1347
29933W        W36383  13.777   6.043   1.161 -0.3179  0.1296  0.2694
29934W        W36384  27.265   5.572   0.269 -0.0577  0.0725  0.0753
29935W        W36385   4.075   3.816   7.658  0.3649 -0.2194  0.0496
29936W        W36386  30.195   0.535   2.484  0.0764 -0.1116  0.1894
29937W        W36387   2.423   3.823  15.754  0.0951 -0.2709  0.2234
29938W        W36388  12.724   0.986  18.490 -0.2112  0.0018  0.0379
29939W        W36389  24.833   0.284  25.088 -0.0515 -0.2659 -0.0672
29940W        W36390   0.083   4.920   8.402 -0.0277  0.2770  0.1151
29941W        W36391   5.550   6.771  24.660 -0.1077 -0.1985 -0.1811
29942W        W36392  29.551   4.436   1.381  0.0968 -0.2468  0.2432
29943W        W36393  20.942   0.120  23.049 -0.0511 -0.0549 -0.0001
29944W        W36394   4.374   5.887  21.689  0.1724 -0.0414 -0.0330
29945W        W36395  30.832   2.800   7.420  0.2406 -0.3770 -0.0269
29946W        W36396   9.092   2.454   2.840 -0.0386  0.2014  0.2774
29947W        W36397   5.619   5.701  22.049 -0.3294 -0.0449  0.1499
29948W        W36398  14.699   1.518   8.452  0.0022 -0.0383  0.1460
29949W        W36399   8.910   1.079   5.060  0.3733 -0.1868  0.1350
29950W        W36400   4.198   3.772   3.621 -0.1946 -0.2217 -0.0832
29951W        W36401  30.524   1.138   7.882  0.0930  0.0342 -0.1372
29952W        W36402   2.831   6.072  18.023  0.0482 -0.0162  0.3325
29953W        W36403  12.323   0.818  25.844  0.1405  0.0617 -0.0361
29954W        W36404  29.668   3.324  22.931 -0.1559 -0.1545  0.0150
29955W        W36405  23.461   0.237  18.949  0.4052 -0.1965 -0.2171
29956W        W36406  29.010   6.395  16.287 -0.0476  0.0114 -0.4489
29957W        W36407   6.666   6.347  15.272 -0.1757  0.0532 -0.0770
29958W        W36408  17.286   2.825  15.475  0.2666  0.0301 -0.4732
29959W        W36409  21.168   6.878  17.844 -0.2619 -0.1948 -0.1285
29960W        W36410  23.209   2.766   7.469  0.1837  0.3004  0.2811
29961W        W36411   0.282   1.900   0.181  0.1114 -0.2587  0.2332
29962W        W36412   6.730   5.601  18.124 -0.0272  0.0700  0.0956
29963W        W36413  11.974   7.222  22.015 -0.0905 -0.3133 -0.0168
29964W        W36414  27.646   5.644   5.609  0.0993  0.3756  0.0679
29965W        W36415   8.685   5.339  24.897  0.2915 -0.0975 -0.1232
29966W        W36416  27.578   0.464   2.845  0.1098  0.1577  0.3476
29967W        W36417   9.827   2.169   5.587  0.0022 -0.1047  0.1190
29968W        W36418  16.032   0.363  18.048 -0.0301  0.1066  0.2725
29969W        W36419  13.979   5.926  16.217  0.0011 -0.0858  0.1194
29970W        W36420  17.770   6.289  24.136 -0.3507 -0.0508  0.1566
29971W        W36421   7.832   4.947  21.577 -0.0882 -0.1308 -0.0097
29972W        W36422  19.242   5.236   5.241  0.1160 -0.1887 -0.1486
29973W        W36423   8.117   6.658  10.137 -0.2816  0.0306 -0.0493
29974W        W36424   5.956   0.762   9.642  0.4171  0.0558 -0.3707
29975W        W36425   1.708   3.843  16.083  0.1279 -0.0915  0.1064
29976W        W36426  30.752   2.597  14.722 -0.2691 -0.3360  0.1157
29977W        W36427  26.391   1.627  22.258  0.0240 -0.2507  0.0517
29978W        W36428  22.253   3.196  24.138 -0.0684  0.1517 -0.1775
29979W        W36429  21.438   1.149  17.867 -0.0641  0.3546  0.0218
29980W        W36430  24.353   0.607  10.654  0.1584 -0.0628  0.1631
29981W        W36431  28.629   6.722   9.601  0.0792  0.1457 -0.0570
29982W        W36432   5.634   4.002   1.717  0.0487 -0.0445  0.1856
29983W        W36433  25.617   5.180   2.019 -0.3214 -0.0761  0.2783
29984W        W36434  13.315   4.483  26.387  0.1098  0.1341 -0.1124
29985W        W36435  12.923   5.457   4.592  0.2386  0.1114 -0.0248
29986W        W36436   8.030   2.299  19.563  0.4235  0.0215 -0.2624
29987W        W36437  18.654   5.916   4.133  0.3113 -0.1968 -0.0658
29988W        W36438  16.502   2.650   4.306 -0.0796  0.3269 -0.0056
29989W        W36439   8.444   0.356  19.345  0.1372  0.0580  0.2393
29990W        W36440   7.120   5.632  24.075  0.0910 -0.3660  0.0303
29991W        W36441   0.273   6.711  16.258  0.0795 -0.1291  0.0566
29992W        W36442  30.495   4.790  20.358 -0.0297  0.0085 -0.1576
29993W        W36443  10.984   4.796  22.625  0.2152  0.3296  0.1602
29994W        W36444  28.888   3.640  14.796  0.0556 -0.0360  0.1015
29995W        W36445  27.016   7.489  25.161  0.1318  0.0152  0.0165
29996W        W36446   6.465   0.149  25.654  0.0222 -0.0175 -0.4459
29997W        W36447   6.412   4.186  15.043 -0.0972 -0.2490 -0.1636
29998W        W36448  29.299   2.277  17.379  0.1577 -0.0456 -0.1191
29999W        W36449  26.538   7.013   7.054  0.3160 -0.0319  0.2024
30000W        W36450   7.008   5.528  10.521  0.2650  0.0577  0.1334
30001W        W36451  22.320   5.155  25.305 -0.0576  0.0625  0.2707
30002W        W36452  25.569   1.254   6.399  0.1482  0.2383  0.2213
30003W        W36453   0.153   0.005  22.359  0.1399 -0.1757  0.0691
30004W        W36454  16.340   0.524   0.960 -0.0256  0.0624 -0.2560
30005W        W36455  28.762   7.165  22.608  0.1318  0.0795  0.0338
30006W        W36456   4.869   0.063  16.121 -0.2428 -0.1492  0.0888
30007W        W36457  17.334   5.069  19.791 -0.1039  0.2511 -0.0553
30008W        W36458  20.701   0.346  26.031 -0.0647 -0.0936  0.0184
30009W        W36459  21.501   5.465   2.450  0.3288  0.0141  0.0469
30010W        W36460   6.279   4.717   0.694  0.2428  0.2417  0.0632
30011W        W36461   5.465   6.087  25.705  0.1435  0.0347 -0.0986
30012W        W36462  17.629   7.391   9.897  0.0850  0.2768 -0.0393
30013W        W36463  24.941   6.814   7.759 -0.3604 -0.2132  0.2751
30014W        W36464   3.462   5.022   3.809 -0.0135 -0.0743  0.1147
30015W        W36465  24.852   6.763  22.618 -0.1219  0.1033  0.1682
30016W        W36466   4.796   4.415  16.340  0.2521 -0.4637 -0.2144
30017W        W36467  23.712   2.805  21.988 -0.0746  0.0067  0.0308
30018W        W36468  20.176   4.558   1.052  0.2116  0.2299 -0.1750
30019W        W36469  24.279   4.025   6.099 -0.2496 -0.0306 -0.1731
30020W        W36470  17.390   7.265  15.597 -0.2239  0.2191  0.0557
30021W        W36471  29.257   3.128   1.418  0.0731  0.2642  0.0301
30022W        W36472   5.649   2.523  23.509 -0.1312 -0.1163 -0.0533
30023W        W36473  30.924   2.471  17.493  0.4060 -0.1851 -0.0984
30024W        W36474  30.669   3.049  19.267 -0.1682 -0.3896  0.3094
30025W        W36475  28.087   5.579  17.781  0.2700 -0.1250  0.0942
30026W        W36476   6.617   5.992   1.243  0.3228 -0.3747  0.0256
30027W        W36477  25.460   7.175   1.755  0.4295 -0.0526 -0.2314
30028W        W36478  16.654   5.151   5.289 -0.0225 -0.1711 -0.2984
30029W        W36479  18.839   2.165   7.335 -0.1330  0.0198 -0.0620
30030W        W36480  16.152   2.792   3.976 -0.1923  0.0274 -0.0033
30031W        W36481  12.599   2.553   9.400  0.0652 -0.0779  0.3329
30032W        W36482  15.323   0.600  21.581  0.1328 -0.1698  0.0761
30033W        W36483   2.110   3.217   7.761  0.0358 -0.1906  0.0969
30034W        W36484  12.950   3.996  21.667 -0.3356  0.1690 -0.2271
30035W        W36485  11.009   0.006  19.945  0.1882 -0.1076  0.0977
30036W        W36486   4.126   3.753   0.260 -0.1592 -0.0228  0.2918
30037W        W36487  10.924   0.902  16.937 -0.0768 -0.1832  0.0704
30038W        W36488   2.239   1.739  21.064  0.0592 -0.1468 -0.1368
30039W        W36489  29.239   4.274  18.765 -0.1782  0.0758  0.0971
30040W        W36490  10.251   5.481   5.321  0.2137  0.0718 -0.2278
30041W        W36491  21.455   1.304   7.256  0.0235  0.0416  0.0437
30042W        W36492   4.986   1.281   1.862  0.2367 -0.1507  0.0612
30043W        W36493  27.242   0.898  21.297  0.1139  0.0191  0.1117
30044W        W36494  21.889   2.398  18.868  0.0012 -0.0136 -0.1513
30045W        W36495  17.105   6.110   9.389  0.2399  0.0307  0.1099
30046W        W36496   9.696   4.994   4.748  0.1363  0.0638  0.0832
30047W        W36497   0.989   6.572  10.909  0.0090  0.0593  0.0920
30048W        W36498  16.410   0.408   9.972 -0.0965  0.2816  0.3759
30049W        W36499  22.504   2.247  24.963  0.2317 -0.0574 -0.1411
30050W        W36500   8.149   4.207  19.282 -0.0005 -0.0812 -0.3153
30051W        W36501  12.942   1.000   1.820 -0.0107 -0.0065  0.0054
30052W        W36502  12.188   2.951  17.988  0.2976 -0.1102 -0.0870
30053W        W36503   4.901   7.337   4.817  0.0513  0.5301 -0.0265
30054W        W36504   5.742   3.434   7.011  0.0012 -0.0443 -0.2786
30055W        W36505  19.053   1.735   1.814  0.1334  0.1866  0.1342
30056W        W36506  19.327   2.749   6.888  0.0063  0.1326 -0.0449
30057W        W36507   9.527   2.506  25.007  0.0449 -0.0539  0.1243
30058W        W36508  30.230   5.943  26.037 -0.0109 -0.0008  0.0308
30059W        W36509   2.282   5.164  15.588 -0.5223 -0.1269  0.1573
30060W        W36510   7.220   0.152  26.024 -0.1312  0.3357 -0.0533
30061W        W36511   2.081   6.032   0.054  0.1073  0.0559 -0.1489
30062W        W36512   3.648   2.392   7.415  0.0773 -0.0633 -0.0578
30063W        W36513  19.573   4.730  19.549  0.1003 -0.2077 -0.3192
30064W        W36514  27.810   2.481  19.861  0.2692 -0.0411 -0.0861
30065W        W36515  23.709   0.328  23.006  0.1932  0.0584  0.1537
30066W        W36516  25.413   1.889  10.877 -0.0411  0.2526 -0.0281
30067W        W36517   3.721   5.275  15.993  0.0613 -0.0760 -0.3225
30068W        W36518  30.076   5.299   3.361 -0.0186 -0.5399  0.0790
30069W        W36519  14.323   2.591   9.635 -0.0449  0.2859  0.0311
30070W        W36520  17.932   7.229   5.003 -0.3291 -0.1906  0.2623
30071W        W36521   7.290   6.651   5.692 -0.0727 -0.1328  0.1454
30072W        W36522   7.103   4.724   8.912  0.2107 -0.0526 -0.1712
30073W        W36523   4.487   5.778   8.465 -0.1705 -0.0454 -0.0069
30074W        W36524  20.610   1.953  24.639 -0.1251  0.1071 -0.2619
30075W        W36525  13.736   0.219  23.234 -0.3044 -0.0887 -0.2045
30076W        W36526  19.935   5.534  10.091  0.0457  0.4482  0.2311
30077W        W36527   1.302   1.276   1.463  0.3378  0.1658  0.0419
30078W        W36528  21.992   6.686   3.239  0.2755  0.4244 -0.0055
30079W        W36529  30.491   5.212  24.520 -0.1311 -0.1725  0.0040
30080W        W36530  15.173   4.837   6.040 -0.2184 -0.0484  0.0556
30081W        W36531   7.361   0.245   6.070  0.0792  0.2867 -0.1794
30082W        W36532   1.596   7.666  24.310 -0.1355 -0.1544 -0.0639
30083W        W36533   8.359   7.493  15.691  0.0119 -0.0179 -0.2730
30084W        W36534  25.968   0.680  18.241  0.3101  0.1032 -0.0108
30085W        W36535  31.198   4.016  17.869  0.2168  0.0148  0.1570
30086W        W36536   2.389   5.700   1.238  0.1582  0.1910 -0.0233
30087W        W36537  17.970   2.974  20.455 -0.0992  0.1291 -0.2520
30088W        W36538  17.241   7.465  16.879  0.1771 -0.2400 -0.1932
30089W        W36539  23.947   1.550   6.251 -0.2784  0.2995  0.1558
30090W        W36540   4.969   1.846  18.838 -0.0187  0.2039  0.1278
30091W        W36541   3.025   6.369  21.752 -0.1107  0.1364 -0.0759
30092W        W36542  30.333   2.914  25.136  0.1757  0.1007 -0.0095
30093W        W36543  15.863   5.973   7.988 -0.0204  0.2473 -0.0596
30094W        W36544  17.874   6.613   2.687  0.1194 -0.3964  0.2472
30095W        W36545  29.754   6.976   9.151 -0.1015 -0.0175 -0.0634
30096W        W36546  20.885   1.033  20.758  0.3099  0.0869  0.3596
30097W        W36547  10.673   5.589   3.959 -0.0916 -0.2974 -0.0306
30098W        W36548  12.650   1.748   3.943  0.3555 -0.1003  0.0984
30099W        W36549  12.018   1.599   9.650  0.0894  0.5143  0.0983
30100W        W36550  28.263   3.533  21.029 -0.1943 -0.1148  0.0147
30101W        W36551  12.431   7.130  23.049 -0.1184 -0.1971  0.2415
30102W        W36552  22.580   1.435  15.530  0.1612  0.1335  0.1109
30103W        W36553  13.473   1.548  17.795 -0.2504  0.1802  0.0507
30104W        W36554   7.388   4.074   6.162  0.1066 -0.0128  0.1907
30105W        W36555   8.998   1.990   2.960  0.0440 -0.4029 -0.1046
30106W        W36556  16.546   6.002  25.188  0.0667  0.1240 -0.0218
30107W        W36557  14.716   1.741   1.621 -0.0049  0.2743  0.1965
30108W        W36558   8.752   6.816   3.418 -0.1615 -0.0312  0.0558
30109W        W36559  15.660   0.854   0.155 -0.1210 -0.2575  0.1544
30110W        W36560  27.163   0.050   0.263 -0.1667  0.1806 -0.1212
30111W        W36561   5.393   5.644   6.277 -0.2014  0.0345 -0.2294
30112W        W36562  10.170   4.101  11.413  0.0077  0.0994  0.0373
30113W        W36563   1.078   1.416  20.332  0.1108  0.2089 -0.0554
30114W        W36564  17.460   6.967   4.725  0.1734  0.1500 -0.2752
30115W        W36565  30.913   0.138   1.369  0.1426 -0.1807  0.0189
30116W        W36566   9.228   2.392  19.163 -0.2576 -0.1365 -0.0202
30117W        W36567   9.939   7.105  22.363  0.0191  0.2116  0.0962
30118W        W36568  14.282   2.270  24.854 -0.2293  0.1046 -0.0195
30119W        W36569  15.944   2.704  26.361 -0.1401  0.0156 -0.4178
30120W        W36570  25.221   4.282   5.838  0.1270  0.0908 -0.1365
30121W        W36571  27.550   3.019   3.786 -0.0537  0.2448  0.0030
30122W        W36572  27.346   3.047  11.184 -0.1399  0.0934  0.1388
30123W        W36573  14.273   5.893  17.218  0.3733 -0.0540 -0.3025
30124W        W36574   1.444   3.102  22.287 -0.0955 -0.2574  0.0017
30125W        W36575  19.540   6.402   8.725  0.0537  0.1424 -0.0841
30126W        W36576  17.138   3.066   9.341 -0.2180 -0.2063 -0.4298
30127W        W36577  27.226   0.344   6.418  0.1449 -0.1258 -0.2918
30128W        W36578  24.844   3.411   0.510  0.1799 -0.3401  0.2367
30129W        W36579  23.831   1.508  17.716  0.1334  0.3216 -0.1821
30130W        W36580  19.975   4.765  25.366  0.2024 -0.3071  0.2394
30131W        W36581   1.162   6.505  24.970 -0.4585  0.0892  0.0615
30132W        W36582  19.299   5.713  19.421 -0.1253 -0.1847  0.2291
30133W        W36583   3.280   5.227   8.932 -0.0077 -0.1194  0.3160
30134W        W36584   9.045   4.975   5.882 -0.0263 -0.2477  0.1416
30135W        W36585  11.232   2.238  24.037 -0.1209  0.3616  0.1914
30136W        W36586  11.425   3.453  25.743 -0.2042 -0.1043  0.1173
30137W        W36587  19.020   6.012   7.304 -0.3418  0.0737 -0.2460
30138W        W36588  23.157   3.404  25.833  0.0897 -0.3439 -0.0692
30139W        W36589  26.564   1.875   9.638 -0.0860  0.1384 -0.0787
30140W        W36590  27.127   5.834   5.243 -0.1560  0.1486 -0.0176
30141W        W36591  12.400   1.598  17.295  0.2836  0.0749  0.1445
30142W        W36592  10.783   3.810   3.383 -0.0595  0.1874  0.1172
30143W        W36593   2.048   7.222   4.134 -0.1077 -0.0510  0.2937
30144W        W36594   3.491   2.336   9.315 -0.2262  0.1698  0.1496
30145W        W36595  14.031   0.693   4.364 -0.0659  0.1381  0.1876
30146W        W36596   3.427   2.952  19.143 -0.3426  0.0592  0.0748
30147W        W36597  21.707   1.805   6.523 -0.1443  0.0416  0.0416
30148W        W36598  26.024   0.863   2.877  0.1190 -0.0567 -0.1331
30149W        W36599  23.533   0.815  24.245  0.1508 -0.0564 -0.0651
30150W        W36600  21.493   4.526  20.754  0.0735  0.1350  0.2252
30151W        W36601  27.352   5.879  24.754  0.2131  0.0823  0.2673
30152W        W36602   4.497   6.084  20.327 -0.0110 -0.1221 -0.1160
30153W        W36603  10.033   5.287   9.612  0.0377  0.2729 -0.0361
30154W        W36604   2.476   3.676  25.950  0.1493 -0.1422  0.1001
30155W        W36605   7.544   2.455  19.365 -0.1779 -0.2646  0.3417
30156W        W36606   6.533   3.979   6.363 -0.1512  0.1726 -0.0559
30157W        W36607  21.894   0.536   5.019  0.1988 -0.1112  0.1316
30158W        W36608  19.264   4.610   0.926  0.2206 -0.0290  0.1587
30159W        W36609  19.402   0.755  25.617  0.1835 -0.0022  0.2120
30160W        W36610  26.155   2.523  18.351 -0.0068 -0.0267  0.3168
30161W        W36611   5.004   1.977   3.796  0.2086  0.0297 -0.3580
30162W        W36612  26.940   6.960  15.117 -0.0495  0.0269 -0.0223
30163W        W36613  21.011   2.894  17.005 -0.2753  0.0583 -0.1030
30164W        W36614  29.453   6.134  16.161  0.0684  0.1686 -0.2926
30165W        W36615  17.158   5.884   1.384 -0.0263  0.0385 -0.0858
30166W        W36616  20.069   7.700   9.440  0.1865  0.0561 -0.1048
30167W        W36617  30.060   6.360   2.548  0.1838 -0.1745  0.0783
30168W        W36618  16.082   0.907   2.334 -0.0899  0.2305 -0.3622
30169W        W36619  18.074   1.123  21.492  0.0124 -0.0421  0.0257
30170W        W36620  28.395   3.885   8.036  0.1894  0.1422  0.0561
30171W        W36621  24.560   2.809   6.374 -0.2044  0.1032  0.1471
30172W        W36622   1.571   3.660  17.164  0.1408  0.2440  0.0611
30173W        W36623  17.261   6.873   3.467  0.0338  0.1644  0.2984
30174W        W36624  28.937   7.662  20.925 -0.2434 -0.3227 -0.0492
30175W        W36625   5.253   4.374   4.122 -0.0263 -0.0565  0.2237
30176W        W36626  23.549   7.634  20.076 -0.0378 -0.2378  0.2941
30177W        W36627  12.422   7.651  26.278 -0.1299 -0.1074  0.3281
30178W        W36628   1.441   4.363  19.648 -0.0064  0.0107  0.1258
30179W        W36629  21.743   5.637  23.948  0.0329  0.0590  0.2094
30180W        W36630  14.100   0.402  23.642  0.2676  0.3220 -0.1999
30181W        W36631  19.282   4.373   8.037  0.0756 -0.0819  0.0337
30182W        W36632  10.748   4.290   7.744  0.1186 -0.0109 -0.1790
30183W        W36633  21.650   0.381   9.324  0.1881 -0.1208 -0.2274
30184W        W36634  17.861   5.764  19.756 -0.0811 -0.1916  0.0925
30185W        W36635  19.144   4.925  10.365 -0.3037 -0.0750  0.1903
30186W        W36636  20.343   3.303   9.984 -0.1409  0.1072  0.0843
30187W        W36637   5.304   7.780   1.101  0.1326 -0.2145  0.0412
30188W        W36638   5.627   3.977  17.051  0.1980  0.1616  0.2323
30189W        W36639  29.000   6.293   8.991 -0.1252 -0.0159 -0.0450
30190W        W36640   5.200   4.859  21.824 -0.1486  0.0536 -0.2817
30191W        W36641   7.252   1.741  19.559  0.1738 -0.2899  0.0050
30192W        W36642  29.230   2.027  18.424  0.1437  0.1590  0.0989
30193W        W36643   5.536   5.142   6.036  0.0252 -0.1260  0.1726
30194W        W36644  17.551   2.959  21.001 -0.0154  0.0170 -0.2311
30195W        W36645  19.213   1.879  15.770 -0.1994  0.0371  0.1371
30196W        W36646  12.799   6.653   5.886 -0.0375 -0.2121  0.0456
30197W        W36647  30.400   1.780  16.658  0.0761  0.0253  0.0568
30198W        W36648  27.108   5.744  16.621  0.1231  0.0189 -0.0491
30199W        W36649  24.060   3.132  24.717  0.0387  0.0045  0.0818
30200W        W36650  27.121   6.979   2.108 -0.2498  0.2647 -0.1516
30201W        W36651   0.409   2.269   6.934 -0.0332  0.0193  0.1675
30202W        W36652   7.549   7.683   2.905 -0.1074 -0.0750  0.1449
30203W        W36653  25.658   3.164  25.250 -0.2075 -0.1499  0.1407
30204W        W36654  29.254   4.360   5.281  0.1034  0.1761  0.1741
30205W        W36655  28.997   3.369   7.706 -0.1658  0.0210 -0.1183
30206W        W36656   1.402   5.017   7.405 -0.2817 -0.0397  0.1085
30207W        W36657  22.641   5.435  16.338  0.2416 -0.0666  0.3406
30208W        W36658  13.629   0.753  21.270 -0.0177  0.1028  0.2071
30209W        W36659   5.310   1.885  20.077  0.1393  0.1117 -0.0402
30210W        W36660  15.018   1.941  20.253 -0.1092  0.1732 -0.2510
30211W        W36661  15.310   1.608   4.671 -0.1072  0.1897  0.1218
30212W        W36662  18.606   6.267  21.213  0.2127 -0.0918 -0.2092
30213W        W36663   2.589   1.432   1.972 -0.0619 -0.3571 -0.1936
30214W        W36664   3.414   4.070  26.053  0.0946 -0.1762  0.1354
30215W        W36665  16.321   6.847  10.327  0.2232  0.3090 -0.1610
30216W        W36666   8.701   3.513  26.208  0.1186 -0.1128 -0.2229
30217W        W36667  17.437   0.194   1.606  0.1085 -0.0355  0.0379
30218W        W36668  22.487   3.932   1.563 -0.3103 -0.0264 -0.0765
30219W        W36669  22.304   2.455  22.116  0.1437 -0.1378  0.1302
30220W        W36670   4.535   1.173   8.658  0.0265  0.0958 -0.0084
30221W        W36671   7.768   5.246  24.625 -0.0783  0.1225 -0.2091
30222W        W36672  18.437   6.415   8.504 -0.2847 -0.1248  0.4484
30223W        W36673   1.363   7.393  25.396  0.1665  0.1587  0.3134
30224W        W36674  21.826   7.137  10.223  0.1124  0.0145 -0.0935
30225W        W36675  12.927   6.110  10.066  0.2122 -0.2160  0.4402
30226W        W36676   1.058   2.879   7.488 -0.2512  0.1862  0.0046
30227W        W36677  12.500   4.709   8.327  0.1050  0.2401  0.2185
30228W        W36678   6.729   4.013  25.019  0.2036  0.1703 -0.0688
30229W        W36679  24.700   4.249  24.364  0.3135  0.1786 -0.1137
30230W        W36680  15.810   2.005   2.750  0.3000  0.0477 -0.0983
30231W        W36681  26.678   3.823  18.591 -0.0456  0.2598  0.2180
30232W        W36682  10.029   6.213  23.019 -0.1775 -0.0080 -0.1523
30233W        W36683   8.450   2.660   1.618  0.1264 -0.3781 -0.1524
30234W        W36684  24.794   3.346  25.193  0.2781  0.2964  0.1569
30235W        W36685   5.575   5.643  19.871  0.0682 -0.2526 -0.4259
30236W        W36686  24.584   3.907  16.824 -0.0068  0.0838  0.0642
30237W        W36687  29.087   0.981  21.631 -0.4850  0.1480  0.1952
30238W        W36688  13.441   2.950   6.725  0.2309  0.1559 -0.0071
30239W        W36689   1.942   6.135  20.973  0.3251 -0.0200  0.2176
30240W        W36690   9.599   0.723  23.533 -0.1956 -0.2561  0.0898
30241W        W36691  27.380   2.927   5.303  0.0861 -0.2817 -0.0362
30242W        W36692   6.683   0.362   2.021 -0.0849  0.0941  0.0227
30243W        W36693  27.094   7.719   4.757  0.0568  0.1765  0.1193
30244W        W36694   3.555   1.933   6.002  0.1467  0.1889  0.1684
30245W        W36695  27.244   1.777  19.593 -0.1529 -0.0117  0.0185
30246W        W36696   2.391   0.035  24.727 -0.2770  0.0445 -0.2863
30247W        W36697  27.733   6.505   9.360  0.0547 -0.3471 -0.0270
30248W        W36698   3.043   4.064  17.753 -0.0040 -0.2337 -0.2430
30249W        W36699   9.092   0.914  20.062  0.0195  0.0785 -0.2682
30250W        W36700   4.515   7.513  24.562  0.0685 -0.1031  0.1592
30251W        W36701  11.725   3.435   5.134  0.0173  0.2677  0.1898
30252W        W36702  21.725   3.011  11.297  0.0186 -0.3180  0.1431
30253W        W36703  24.092   2.873   8.963 -0.0793 -0.2039 -0.0743
30254W        W36704  17.253   5.869  15.762 -0.0466  0.0271  0.4369
30255W        W36705  10.408   5.606  23.726 -0.1756  0.2118  0.1674
30256W        W36706  23.328   7.255   3.532 -0.0369 -0.0542 -0.0594
30257W        W36707  10.924   1.634  10.517  0.1235 -0.4005 -0.1446
30258W        W36708  29.854   7.622   7.640  0.0375  0.0113 -0.0796
30259W        W36709   8.483   6.107  19.784  0.0462 -0.0794  0.0203
30260W        W36710   2.698   5.232  19.591 -0.1473 -0.2613  0.0342
30261W        W36711   9.103   5.273  10.621 -0.3281  0.1151  0.0624
30262W        W36712   7.564   2.884   8.740  0.1564  0.0643 -0.0613
30263W        W36713   6.789   5.233  24.457  0.0732  0.3070  0.1071
30264W        W36714  18.900   5.151  15.767  0.0054  0.0231 -0.0848
30265W        W36715   7.509   5.473  22.228 -0.0627  0.0641  0.2594
30266W        W36716  26.975   4.069  16.478 -0.0909 -0.0791  0.0515
30267W        W36717  10.521   4.693   6.837 -0.0723 -0.2284 -0.0184
30268W        W36718   5.281   1.542   0.913  0.1109 -0.0207 -0.1977
30269W        W36719   4.947   2.752  19.046  0.0185  0.0803 -0.2094
30270W        W36720  10.822   1.643   0.707  0.2141 -0.2848  0.2019
30271W        W36721  21.658   1.929  17.306  0.3412 -0.1180 -0.1818
30272W        W36722  30.279   6.955  16.153 -0.0041  0.0933  0.2340
30273W        W36723  11.277   7.794  15.256  0.0633  0.1294  0.3564
30274W        W36724  30.370   2.313  21.518  0.0057  0.2995  0.0587
30275W        W36725  27.528   7.453   4.807  0.1268 -0.0211 -0.2773
30276W        W36726  24.607   3.768  22.955 -0.4026 -0.1297  0.1934
30277W        W36727   4.884   2.155  11.247 -0.2540 -0.2222 -0.3476
30278W        W36728   7.648   6.941  20.377 -0.2264 -0.1001 -0.0245
30279W        W36729  10.481   0.221  15.385 -0.0992 -0.0644 -0.0053
30280W        W36730  21.837   7.739  20.232  0.1426 -0.2461  0.1173
30281W        W36731   3.236   4.978  18.797  0.1074 -0.1383  0.2638
30282W        W36732  10.564   0.523  25.731  0.1400 -0.0718 -0.1457
30283W        W36733   7.773   2.120   2.965 -0.2247 -0.0259  0.2323
30284W        W36734   8.195   7.006  18.590 -0.0914 -0.1176  0.0206
30285W        W36735  23.553   1.535   1.554  0.0110 -0.0915  0.0330
30286W        W36736   1.684   5.265   6.758 -0.0181 -0.3027 -0.1569
30287W        W36737   1.068   0.413  20.650 -0.3945 -0.0325  0.0765
30288W        W36738  15.904   1.239   9.860  0.3618 -0.0257  0.0084
30289W        W36739  25.595   7.659   9.010 -0.1659 -0.3206  0.0346
30290W        W36740   4.114   1.994  26.250 -0.0752  0.0097 -0.0602
30291W        W36741   9.768   2.831   9.975  0.1668  0.0550 -0.3440
30292W        W36742  24.111   1.569  20.079 -0.3381  0.3830 -0.1581
30293W        W36743  30.492   6.380  20.412  0.0232  0.0111  0.1772
30294W        W36744   1.749   2.951  17.697 -0.1352  0.0464  0.1761
30295W        W36745   3.205   2.329  24.349  0.0579  0.0119 -0.2590
30296W        W36746  24.529   4.088  11.648 -0.1716 -0.2828  0.1173
30297W        W36747  17.228   0.281  17.337  0.0054  0.1011  0.1136
30298W        W36748   4.526   1.674  10.929  0.2947  0.1584  0.0925
30299W        W36749  20.678   7.641  15.732  0.0768 -0.1854 -0.1273
30300W        W36750   7.700   7.517  18.105  0.0842  0.0328  0.3347
30301W        W36751  23.127   1.084   3.785 -0.0631 -0.1108 -0.0257
30302W        W36752  17.955   4.273   1.624 -0.2197 -0.0882  0.1285
30303W        W36753  12.219   3.748  18.375 -0.2786  0.1638 -0.0928
30304W        W36754  28.063   2.608  16.573 -0.0122  0.0719 -0.1353
30305W        W36755   1.875   7.317   5.880  0.2156  0.1432 -0.1395
30306W        W36756  14.078   6.034  17.693 -0.0348 -0.0093  0.0649
30307W        W36757  11.311   1.443  22.111  0.0710 -0.1101 -0.0285
30308W        W36758  13.519   3.281  25.799  0.1452  0.3363 -0.0905
30309W        W36759  13.029   2.846   1.484 -0.0172 -0.0880  0.2287
30310W        W36760  26.956   5.928   4.751 -0.1879 -0.1480 -0.1966
30311W        W36761  13.923   4.828  22.495  0.2430  0.0287 -0.3224
30312W        W36762  20.214   6.887  17.863 -0.1719 -0.2478  0.1169
30313W        W36763  23.078   4.427   1.108  0.1901 -0.2842  0.1858
30314W        W36764   4.919   7.781   1.581 -0.0828 -0.0761  0.2206
30315W        W36765  10.424   2.624   2.640  0.0945 -0.1056 -0.2373
30316W        W36766  22.453   4.684  19.489 -0.1315  0.0100 -0.1107
30317W        W36767   3.169   3.795  24.312  0.1253  0.1337  0.1342
30318W        W36768  24.086   1.287  25.345  0.2188  0.2025 -0.0250
30319W        W36769  29.359   2.190  19.895 -0.0767 -0.1332  0.0804
30320W        W36770  25.766   6.112  23.589 -0.0391 -0.1684 -0.1345
30321W        W36771  19.772   1.842  26.323  0.2759  0.2088  0.6638
30322W        W36772   2.242   6.938  24.478  0.0643 -0.0385 -0.0191
30323W        W36773  15.785   4.440  24.735 -0.0317 -0.0075  0.1013
30324W        W36774   6.495   4.744  23.676 -0.1385 -0.0615  0.0915
30325W        W36775  13.206   2.695   9.398  0.0841 -0.1481 -0.0121
30326W        W36776  27.465   5.241   9.672 -0.1888 -0.1209  0.0965
30327W        W36777   6.234   4.790  15.668  0.1007  0.0996  0.0832
30328W        W36778  29.469   0.578  19.005  0.1528 -0.0844  0.0234
30329W        W36779  14.627   3.176   8.094 -0.0990  0.0343 -0.2963
30330W        W36780  18.150   4.056  15.780 -0.0497 -0.1224 -0.0187
30331W        W36781  17.124   6.397   8.319 -0.2003  0.0413  0.1061
30332W        W36782  20.898   4.305   7.446  0.1124 -0.1818  0.2323
30333W        W36783  25.943   0.504  20.241  0.3970 -0.0119 -0.1479
30334W        W36784   1.428   6.271  15.811  0.0828  0.0076 -0.0173
30335W        W36785   9.131   6.804   4.444 -0.3150 -0.0662  0.0007
30336W        W36786  18.837   0.022  22.291 -0.1541  0.0506 -0.2053
30337W        W36787   7.654   1.514   7.767 -0.0860  0.0583  0.2404
30338W        W36788  30.456   2.199  21.009 -0.0091  0.1080 -0.1068
30339W        W36789  17.661   1.015  10.413  0.0593 -0.1255  0.0279
30340W        W36790   8.360   1.585   9.175  0.0883  0.0598 -0.4470
30341W        W36791  18.427   1.587   3.373  0.2084 -0.0558 -0.1190
30342W        W36792   6.053   6.526  22.690 -0.0075  0.0261  0.1295
30343W        W36793  21.416   4.764  17.118 -0.1202  0.0740  0.0828
30344W        W36794  29.942   1.548  18.392  0.1110  0.1019 -0.0475
30345W        W36795  20.909   0.038  16.832 -0.1142  0.1716 -0.0173
30346W        W36796  18.502   6.918   1.299 -0.0664  0.3965 -0.3384
30347W        W36797   1.567   0.208   1.052  0.1187 -0.3891 -0.2479
30348W        W36798  26.825   2.457   7.889  0.0365 -0.1150  0.3335
30349W        W36799  10.570   5.416  25.293  0.2063  0.2851 -0.0015
30350W        W36800   3.533   7.533   2.935 -0.0657 -0.1020  0.2711
30351W        W36801  14.127   0.354   9.667  0.0094  0.1748 -0.1652
30352W        W36802  14.523   5.164  21.196 -0.0727 -0.0805  0.1595
30353W        W36803  22.585   4.020  18.598  0.0365 -0.0513  0.0757
30354W        W36804  21.681   0.995  22.637 -0.0398 -0.3842  0.0578
30355W        W36805  23.922   0.351  16.240 -0.1844  0.2875  0.1036
30356W        W36806  10.383   0.213  23.570  0.2022 -0.0093  0.0226
30357W        W36807   6.216   2.795  19.879  0.3741 -0.1132 -0.0282
30358W        W36808  29.164   4.974  16.682  0.0899 -0.1920  0.0061
30359W        W36809  29.053   6.878  17.376 -0.0594  0.1213  0.4565
30360W        W36810   4.256   7.574  25.645 -0.3051  0.1291  0.2853
30361W        W36811  23.866   0.145  17.214  0.2809 -0.1157 -0.0675
30362W        W36812  28.622   5.817  22.389  0.0028 -0.0596 -0.0046
30363W        W36813  25.243   3.761   0.488  0.1923  0.0713  0.3450
30364W        W36814  18.661   4.499  22.634 -0.0244 -0.0251  0.0815
30365W        W36815  24.722   1.192  20.691  0.3386 -0.0328 -0.0509
30366W        W36816  15.003   1.868  10.785 -0.2579 -0.3274  0.0526
30367W        W36817  16.815   6.139  14.366  0.1819  0.5062 -0.0734
30368W        W36818  10.445   4.046  20.246  0.0706 -0.0572 -0.1667
30369W        W36819   6.449   2.854  17.594  0.1477 -0.1349  0.2583
30370W        W36820   9.153   0.692  21.776  0.0220 -0.1219  0.2720
30371W        W36821  27.360   7.319  23.254  0.0178  0.0133 -0.0382
30372W        W36822  29.701   0.497  14.989  0.1764  0.1107 -0.0160
30373W        W36823   0.844   0.183   7.811  0.3828  0.0530  0.0096
30374W        W36824  28.581   4.422   7.088 -0.0077  0.0380  0.1318
30375W        W36825   8.341   6.167  26.420  0.0927 -0.0497 -0.1412
30376W        W36826   2.349   7.476  21.901  0.2726 -0.1747  0.2156
30377W        W36827   5.782   4.876   1.293  0.4769 -0.0055 -0.2433
30378W        W36828  29.366   4.936   1.568 -0.1202 -0.1494  0.0170
30379W        W36829  28.495   3.760   4.798 -0.0357  0.0642 -0.3022
30380W        W36830  24.330   5.716  10.069  0.2399 -0.1485  0.1626
30381W        W36831   6.058   0.188  23.106  0.5791  0.3873 -0.2990
30382W        W36832  20.656   7.284  18.884  0.2152 -0.0487  0.4105
30383W        W36833  13.479   4.329   1.120 -0.1970 -0.0464  0.3959
30384W        W36834   7.550   2.041   4.990 -0.0559 -0.1590  0.1940
30385W        W36835  13.834   1.148  22.992  0.0311  0.0698  0.2540
30386W        W36836  13.829   3.028   4.383 -0.0611  0.2959  0.0858
30387W        W36837  20.818   1.286   8.832 -0.1585  0.1958 -0.1820
30388W        W36838  30.552   2.718  16.895  0.1343 -0.1419  0.1187
30389W        W36839   1.378   7.720  22.028 -0.0426  0.0086 -0.1195
30390W        W36840   5.293   1.325   7.505 -0.0123  0.0843  0.2597
30391W        W36841   2.320   0.513  18.378  0.0268  0.0271 -0.1253
30392W        W36842  14.076   4.078  22.269  0.1881  0.1337  0.1093
30393W        W36843   5.230   6.707   1.078 -0.1296 -0.2349 -0.0900
30394W        W36844  27.845   3.721  21.268 -0.0102  0.3076  0.1896
30395W        W36845  13.550   5.868  17.756 -0.4166  0.1738  0.0553
30396W        W36846  11.318   3.766   0.821 -0.0370  0.0044 -0.1154
30397W        W36847   2.581   0.817   7.782 -0.2084  0.0294 -0.0337
30398W        W36848  22.005   6.283  10.951 -0.0692  0.0136  0.0038
30399W        W36849   4.687   5.794  22.473 -0.0187  0.0908 -0.0184
30400W        W36850   8.145   3.805   9.597  0.0043 -0.2526  0.5036
30401W        W36851   1.914   3.607  10.600  0.1266  0.0909  0.2017
30402W        W36852   1.400   4.133  21.332  0.0048 -0.0536  0.1499
30403W        W36853  24.177   1.369  24.838  0.1346  0.0113  0.1009
30404W        W36854  25.611   4.060  26.059 -0.1226 -0.0717  0.1519
30405W        W36855  28.140   2.878   5.592 -0.1087 -0.1124  0.2119
30406W        W36856  15.531   7.701   3.176 -0.0138  0.0992  0.2082
30407W        W36857   1.673   7.429   6.970  0.2025 -0.0072  0.2199
30408W        W36858  21.982   3.136  25.306 -0.2361 -0.1163 -0.4029
30409W        W36859  23.239   2.174  25.274 -0.2299 -0.0983  0.1666
30410W        W36860  17.583   2.833   4.710  0.1152  0.1671 -0.1908
30411W        W36861   0.310   3.799   3.060  0.0304 -0.2711 -0.0397
30412W        W36862  26.828   0.466   4.641  0.0058 -0.0895  0.0329
30413W        W36863  12.690   5.897  15.783 -0.3180 -0.0626 -0.2305
30414W        W36864   4.343   7.140  10.648 -0.1237 -0.3403  0.0443
30415W        W36865   8.270   0.949  21.989  0.1630  0.0431 -0.3830
30416W        W36866   3.982   5.177  11.349 -0.1993  0.3566  0.0771
30417W        W36867   5.395   7.150  23.922 -0.0201 -0.1708  0.1503
30418W        W36868  29.872   0.178  24.848  0.2888  0.1387  0.0816
30419W        W36869  13.656   2.545  15.633  0.0693 -0.2320  0.0501
30420W        W36870  18.085   2.346  23.234  0.3162  0.1644 -0.0614
30421W        W36871  29.628   5.849  10.922 -0.1123  0.2638 -0.1742
30422W        W36872   3.224   1.456  23.297 -0.0373  0.2168 -0.2225
30423W        W36873   7.922   7.524  15.372 -0.0558  0.0942  0.0608
30424W        W36874  20.117   1.167  16.961  0.0159 -0.1039 -0.0334
30425W        W36875  24.947   3.938   2.489 -0.1462 -0.0767  0.0832
30426W        W36876  11.676   5.348   8.624 -0.2100  0.1556 -0.2463
30427W        W36877  29.174   1.660   2.775 -0.1556 -0.0306  0.1095
30428W        W36878  12.711   5.146  21.904  0.2758  0.0724 -0.1166
30429W        W36879  29.692   6.671  24.149  0.0848  0.0465 -0.0858
30430W        W36880   9.796   5.650   8.333  0.1243 -0.2680 -0.0606
30431W        W36881  12.669   5.532  21.529 -0.2580 -0.1885 -0.0622
30432W        W36882  17.265   5.538   8.526  0.2879 -0.4486  0.0759
30433W        W36883  25.989   4.396  21.885 -0.4086 -0.4562 -0.2025
30434W        W36884  28.642   1.831   0.626  0.1929  0.1096 -0.1595
30435W        W36885  23.032   7.765  19.247  0.2779  0.1661 -0.1802
30436W        W36886  23.820   1.729  25.584  0.0079  0.2769 -0.0646
30437W        W36887  20.065   2.140   5.173  0.2990 -0.0400 -0.2439
30438W        W36888  15.923   6.993   9.389  0.0189 -0.1430  0.2200
30439W        W36889   8.010   6.524   5.266 -0.1586  0.0943 -0.0662
30440W        W36890   3.388   0.996   9.672 -0.3704 -0.2723  0.1463
30441W        W36891  22.997   3.656  24.206 -0.1232 -0.0302  0.0750
30442W        W36892  25.160   7.605  21.052 -0.1688 -0.1115 -0.0716
30443W        W36893   8.740   6.721  24.646 -0.1466  0.0274 -0.1017
30444W        W36894  18.635   0.889   5.006  0.1903  0.1306 -0.0518
30445W        W36895  12.047   1.487  10.639 -0.0652  0.0488  0.0521
30446W        W36896  17.924   5.235  16.767 -0.3701 -0.1674  0.1296
30447W        W36897  10.038   5.144   0.069 -0.2391  0.0294  0.0908
30448W        W36898   0.081   6.041   2.327 -0.1414  0.0999  0.1832
30449W        W36899   8.184   1.834  19.407  0.0333 -0.2885 -0.0135
30450W        W36900  22.790   2.440  26.015 -0.0301  0.0170  0.0816
30451W        W36901   1.689   5.051  10.745 -0.0862 -0.2538 -0.1233
30452W        W36902  22.177   2.362   0.222  0.0896  0.0871 -0.2097
30453W        W36903  17.447   1.632   3.293 -0.2088 -0.1680  0.1034
30454W        W36904  19.763   6.941   4.942 -0.1045  0.2362  0.1529
30455W        W36905  15.097   1.410  23.065  0.1043  0.1608  0.0513
30456W        W36906  20.466   4.674  25.173  0.3262 -0.0574  0.0100
30457W        W36907   8.062   7.731   3.036 -0.1826  0.0748 -0.2259
30458W        W36908   2.561   1.444  20.741  0.1035 -0.0721  0.0048
30459W        W36909  11.982   1.050  18.399  0.2391 -0.3978  0.0031
30460W        W36910  28.077   6.950  23.781  0.0917  0.2084 -0.2667
30461W        W36911  21.008   5.541   0.699  0.0826  0.2661  0.1136
30462W        W36912   4.130   0.176  15.763  0.0079 -0.0876 -0.3098
30463W        W36913  25.772   5.294   3.444 -0.2766  0.1624 -0.1654
30464W        W36914  27.583   1.078  24.578  0.3086  0.1856  0.3154
30465W        W36915   3.187   5.131   5.649 -0.0919 -0.1334 -0.0383
30466W        W36916  17.864   0.800  26.389  0.1360  0.0769 -0.1510
30467W        W36917  24.560   4.004  22.429  0.0867 -0.1687  0.0228
30468W        W36918  25.330   3.961  25.639  0.0745  0.1321 -0.1283
30469W        W36919  21.426   0.713   8.967 -0.2238  0.0172 -0.2080
30470W        W36920   9.967   0.119   0.381  0.0768 -0.1603 -0.0357
30471W        W36921  21.648   5.361   1.836 -0.0036  0.1907 -0.1547
30472W        W36922  16.247   1.928  23.123  0.2466  0.1290 -0.0119
30473W        W36923  19.154   3.591  18.476  0.0379 -0.1472  0.2231
30474W        W36924  23.963   4.975   5.040  0.1329 -0.1392  0.0133
30475W        W36925   0.570   3.386  25.837  0.2159  0.0936  0.2747
30476W        W36926  27.904   2.893  21.656 -0.0577  0.0358 -0.0680
30477W        W36927  26.376   5.324   7.317 -0.1919 -0.0205  0.3732
30478W        W36928   1.562   0.367  22.359 -0.1734 -0.0224  0.1435
30479W        W36929  10.674   0.651  11.339  0.1853 -0.1823 -0.3661
30480W        W36930  18.304   3.588  20.019  0.0735  0.2555  0.1061
30481W        W36931  28.975   4.851  20.281  0.1832 -0.0936 -0.2105
30482W        W36932   7.326   3.707   7.625 -0.4503  0.0903  0.1667
30483W        W36933  20.856   0.056   7.407  0.0062 -0.1152  0.1007
30484W        W36934  18.584   3.932   2.247 -0.3806 -0.2467 -0.1030
30485W        W36935   5.544   0.892  25.072 -0.0923  0.0362 -0.2382
30486W        W36936  21.333   5.799   2.065  0.0017  0.4025 -0.2670
30487W        W36937  13.376   2.100  25.731 -0.1189 -0.2217 -0.0087
30488W        W36938  22.391   7.609  17.574  0.0608 -0.1024 -0.0674
30489W        W36939  24.888   4.830  23.748 -0.2042  0.0890 -0.2247
30490W        W36940  27.519   6.909   6.207  0.0500  0.0297  0.1705
30491W        W36941  10.622   7.304   5.077  0.0543  0.0136 -0.1147
30492W        W36942   9.060   2.208  16.296  0.2469  0.1053 -0.1426
30493W        W36943  25.841   3.486  22.202  0.2711  0.0997  0.0205
30494W        W36944  13.395   1.411   9.587 -0.1364  0.0261  0.0087
30495W        W36945   5.999   0.578  25.322 -0.2680  0.0835 -0.2238
30496W        W36946  24.772   6.361   4.982 -0.1986 -0.0958  0.0241
30497W        W36947  16.693   3.432  19.165  0.0753  0.0870 -0.1743
30498W        W36948  20.932   6.188  16.073  0.0617 -0.1167 -0.0903
30499W        W36949  18.805   2.066  16.090 -0.2481 -0.0939 -0.0614
30500W        W36950   6.050   0.618  18.067  0.1974  0.0469  0.1257
30501W        W36951  20.533   3.826  23.711 -0.3243 -0.3832 -0.0440
30502W        W36952   4.570   0.414   2.408 -0.0111 -0.0940  0.4613
30503W        W36953   6.504   1.291  19.626 -0.0092 -0.2143 -0.0329
30504W        W36954  12.263   4.338  25.298  0.1379  0.0857  0.0906
30505W        W36955  19.351   7.295   3.387 -0.0045  0.1955 -0.0866
30506W        W36956   4.241   3.738   2.249  0.1111  0.1538  0.0493
30507W        W36957  11.450   6.656   1.039  0.2208  0.0026  0.2941
30508W        W36958   4.791   0.649  20.130 -0.0632 -0.2200  0.2780
30509W        W36959  26.486   3.123  21.340 -0.1662 -0.1409  0.0055
30510W        W36960   2.910   6.871  21.881  0.0411 -0.0634 -0.0311
30511W        W36961  14.396   7.071  24.584 -0.1923 -0.3918  0.0530
30512W        W36962  19.345   3.179   4.546 -0.1319  0.0947 -0.3449
30513W        W36963   9.654   2.333   2.727  0.0620  0.1344 -0.1605
30514W        W36964   7.634   4.053  24.088 -0.3286 -0.0097  0.2453
30515W        W36965  26.824   1.196  18.606 -0.0301 -0.2427 -0.3138
30516W        W36966   6.541   5.932   5.231 -0.1546 -0.0917  0.0215
30517W        W36967  12.682   7.139   0.478  0.1700  0.2314  0.0408
30518W        W36968   6.592   2.441   3.765  0.2537 -0.0645  0.3805
30519W        W36969  27.165   0.968  16.569  0.0455  0.0281 -0.0939
30520W        W36970  17.809   5.700  24.786  0.1720 -0.2177  0.1070
30521W        W36971   8.062   1.451   7.421  0.1282  0.1604 -0.1237
30522W        W36972  24.445   5.856  18.900 -0.1688  0.1129 -0.2221
30523W        W36973  25.894   3.024  26.214  0.1632 -0.2614 -0.3352
30524W        W36974  30.637   3.632   3.753  0.0557 -0.1466 -0.0863
30525W        W36975  22.590   2.063   0.444  0.2224 -0.1153 -0.0201
30526W        W36976  24.624   7.002  19.742 -0.1926 -0.1347 -0.0221
30527W        W36977  24.282   7.180   4.703  0.0207  0.0564 -0.2010
30528W        W36978   8.426   3.814   1.262 -0.0971 -0.1708 -0.1604
30529W        W36979   9.955   0.505  15.079  0.2141  0.0285 -0.0104
30530W        W36980  18.337   2.500   9.924 -0.1393  0.2688 -0.2432
30531W        W36981   1.317   7.623  23.003 -0.2944  0.0467  0.1668
30532W        W36982   1.399   4.631   8.564 -0.0407  0.1613  0.0706
30533W        W36983  15.027   0.701  19.730 -0.3238  0.1904 -0.0095
30534W        W36984  14.702   2.458   2.678  0.1482  0.0066  0.1802
30535W        W36985  23.553   5.842  21.092 -0.1838 -0.2565 -0.0785
30536W        W36986  19.716   4.886   1.851 -0.0100 -0.1154 -0.3295
30537W        W36987  11.771   1.891  21.580 -0.1238 -0.0502 -0.1137
30538W        W36988   8.511   0.245  23.288  0.2929  0.0076 -0.0830
30539W        W36989  17.415   1.978  19.800  0.1526  0.0774  0.0785
30540W        W36990  25.568   5.314  24.384  0.0075  0.3149  0.2338
30541W        W36991  16.445   2.909   9.972 -0.2475  0.1547  0.1762
30542W        W36992   9.950   5.739  11.347  0.1590  0.0835  0.1597
30543W        W36993  12.000   7.038  18.197  0.0320 -0.3656  0.0391
30544W        W36994  29.357   0.647   2.858 -0.0061  0.0535  0.1133
30545W        W36995   4.047   5.240  22.613 -0.1891 -0.3639 -0.1140
30546W        W36996   6.357   5.580  25.403  0.2098  0.1781  0.3151
30547W        W36997  20.396   5.750  24.720  0.0508 -0.1174 -0.1244
30548W        W36998  28.795   2.028   7.489 -0.2376  0.1121  0.1840
30549W        W36999  14.001   7.260   8.974  0.3681  0.1529 -0.1570
30550W        W37000  27.681   7.282  20.417  0.2688 -0.0610 -0.0103
30551W        W37001  13.110   6.303  19.451  0.1969  0.0090  0.0144
30552W        W37002  27.244   6.043  19.815 -0.2188  0.0268  0.1515
30553W        W37003   9.906   5.115   2.068  0.2995  0.2622 -0.0920
30554W        W37004   6.538   1.060  22.537 -0.0378  0.0709 -0.2220
30555W        W37005  11.784   0.855   0.533  0.0015  0.4325  0.0072
30556W        W37006  17.330   5.785   8.113 -0.1103 -0.2570 -0.1885
30557W        W37007   3.570   6.045  23.633 -0.0096 -0.0623  0.1586
30558W        W37008  29.204   5.780   6.449 -0.1137  0.1011 -0.0570
30559W        W37009  22.335   5.507   6.662  0.3059  0.1810 -0.0130
30560W        W37010  22.565   2.107  19.030 -0.0865 -0.0874  0.1512
30561W        W37011  15.094   1.581   6.929  0.0674 -0.0010  0.0179
30562W        W37012  25.334   4.393   9.278  0.1446  0.1106 -0.0959
30563W        W37013  26.441   5.225  25.513 -0.0113  0.0645 -0.1523
30564W        W37014  27.279   3.415  17.307  0.2736 -0.0766 -0.2365
30565W        W37015   5.348   3.545   1.661  0.0463 -0.1338 -0.0877
30566W        W37016  25.698   2.751  24.373  0.1287  0.3112  0.0720
30567W        W37017  21.164   0.275  17.740  0.0232  0.2790 -0.0621
30568W        W37018  24.329   5.668   7.980 -0.2129  0.2364 -0.0052
30569W        W37019  12.555   6.544   7.435  0.2587 -0.0048  0.1216
30570W        W37020  11.477   0.634  18.770  0.2442  0.0813 -0.1827
30571W        W37021  30.908   1.875   8.241 -0.1675 -0.0859  0.0098
30572W        W37022   8.759   1.308  25.513 -0.0696  0.2742 -0.1052
30573W        W37023   3.036   5.294   7.473 -0.1719  0.3308 -0.1032
30574W        W37024  27.981   5.227  25.605 -0.0399  0.1152  0.2433
30575W        W37025  13.386   1.256  22.146 -0.2076 -0.0492 -0.2291
30576W        W37026   7.427   3.951   8.028  0.1380 -0.1616 -0.0654
30577W        W37027   9.613   4.854   0.287  0.0193 -0.0291  0.0455
30578W        W37028   9.779   1.957  16.290  0.2286 -0.2529  0.1808
30579W        W37029  15.839   2.298   1.312 -0.2115 -0.3408  0.1156
30580W        W37030  14.322   6.329  19.538 -0.2028 -0.0676 -0.1015
30581W        W37031  20.518   2.499   6.527  0.2375  0.0275 -0.0310
30582W        W37032  22.481   7.201  23.900 -0.1370  0.1113  0.1482
30583W        W37033  17.126   2.964  22.255  0.0252  0.1902  0.0006
30584W        W37034   1.162   3.371   3.173  0.0320  0.0833 -0.1112
30585W        W37035   9.203   4.927  17.571 -0.3513  0.2624 -0.4759
30586W        W37036  31.019   2.238   2.720  0.0883 -0.1169 -0.3753
30587W        W37037   5.212   0.172  23.187  0.3023  0.1011 -0.1989
30588W        W37038  17.526   0.036   6.779  0.5954  0.0125  0.2394
30589W        W37039   1.621   2.921  25.720  0.2113  0.1947 -0.1475
30590W        W37040  11.765   6.179  23.930  0.2263  0.1701 -0.0024
30591W        W37041  30.081   4.003  25.461  0.3862 -0.2645  0.1164
30592W        W37042  30.199   3.524  20.666 -0.0460 -0.1628 -0.0204
30593W        W37043  13.501   7.771   6.067 -0.0455  0.0143  0.0559
30594W        W37044  14.694   7.567  26.310 -0.3128 -0.2992  0.1072
30595W        W37045  17.837   1.073  23.293 -0.1912 -0.1112  0.1670
30596W        W37046  18.134   0.488  15.408 -0.4455 -0.0522  0.0227
30597W        W37047  14.127   3.368  18.107  0.2947  0.0361  0.1598
30598W        W37048  25.501   5.342   2.950 -0.0975  0.1999  0.2643
30599W        W37049   1.013   2.879   9.217 -0.0078 -0.2623 -0.0195
30600W        W37050  30.062   7.374   9.117 -0.0518  0.0653  0.0931
30601W        W37051  21.556   0.527   3.406 -0.1001 -0.0058 -0.1463
30602W        W37052  24.915   2.420  22.288 -0.1630  0.5246  0.2662
30603W        W37053   6.479   2.399   7.204  0.0083 -0.0216  0.0816
30604W        W37054  10.782   7.178   5.925  0.1398 -0.2234  0.1253
30605W        W37055  18.686   0.446  18.725  0.2813 -0.0467  0.0779
30606W        W37056  14.571   5.304   6.541 -0.0766  0.1481  0.1129
30607W        W37057   5.843   3.908   4.967 -0.0061 -0.1118  0.0711
30608W        W37058  17.877   7.091   1.911 -0.0130  0.0623 -0.1502
30609W        W37059   5.137   7.232  19.735 -0.1238 -0.0614 -0.0177
30610W        W37060  29.225   7.461  19.094  0.0155 -0.2198  0.0494
30611W        W37061  14.164   0.695  25.777 -0.1276 -0.0980  0.0088
30612W        W37062   5.750   2.672  25.826  0.2261  0.0380 -0.0996
30613W        W37063   2.207   4.774  22.736 -0.2428 -0.2212  0.0448
30614W        W37064   6.908   0.208   2.614 -0.1202 -0.1490 -0.1758
30615W        W37065  20.294   7.099   5.811  0.2934 -0.0079 -0.0719
30616W        W37066  19.049   0.557  10.950  0.0272  0.4255 -0.0608
30617W        W37067  23.012   5.635  17.492 -0.1680  0.1539 -0.0402
30618W        W37068   0.653   7.604  22.579 -0.1749 -0.1113  0.2168
30619W        W37069  19.917   6.141  10.990  0.1284  0.1285 -0.0784
30620W        W37070  13.843   6.074  18.120  0.2759 -0.3961  0.0047
30621W        W37071   5.216   1.328  16.388  0.0195  0.1390 -0.2144
30622W        W37072  24.555   2.268   3.175 -0.2636 -0.2007 -0.3338
30623W        W37073   9.883   3.681  17.124 -0.2244 -0.0427 -0.1747
30624W        W37074  20.405   4.467  19.948  0.1114  0.2296  0.0691
30625W        W37075   5.060   2.124   0.754  0.0060 -0.2460 -0.2245
30626W        W37076  17.790   5.670   5.009  0.1006 -0.1487 -0.3293
30627W        W37077  30.809   3.273  23.610 -0.1511  0.3789  0.2456
30628W        W37078  12.892   1.000  23.287 -0.2061 -0.1720 -0.1800
30629W        W37079   7.739   1.107   8.559  0.0814 -0.0452  0.1892
30630W        W37080   5.367   4.565  22.941  0.2664 -0.0735 -0.0097
30631W        W37081  22.371   1.916   5.762  0.1539  0.1495  0.2765
30632W        W37082   6.978   4.565   2.810  0.0296 -0.1231 -0.1303
30633W        W37083  11.543   1.325  18.410  0.0092  0.1223 -0.1342
30634W        W37084  16.603   2.680  21.113 -0.1602 -0.1431 -0.3619
30635W        W37085  23.288   7.677  24.160  0.1217  0.1739  0.2630
30636W        W37086   6.233   6.003  25.154 -0.0525  0.1640 -0.1400
30637W        W37087  16.380   7.172   6.585 -0.0433  0.0333 -0.2153
30638W        W37088   0.835   1.435  19.322 -0.0366 -0.1619  0.0955
30639W        W37089  15.376   0.862  20.123 -0.1380 -0.1639  0.1980
30640W        W37090  28.067   5.482  11.635 -0.0448 -0.0514  0.0013
30641W        W37091  18.140   0.067   5.387 -0.0078 -0.1371 -0.0525
30642W        W37092  20.723   5.657   5.983 -0.0432  0.1276 -0.0212
30643W        W37093   0.301   5.058  10.594  0.2501 -0.2334  0.4711
30644W        W37094  15.796   3.349   8.932  0.1102 -0.1212 -0.0911
30645W        W37095   6.419   2.090  18.558  0.1592  0.1067  0.0668
30646W        W37096  12.396   2.266   2.067  0.1977 -0.1365  0.1886
30647W        W37097   0.099   0.435   2.602 -0.0914 -0.0033 -0.2341
30648W        W37098  13.378   6.641  16.342  0.0939  0.0098 -0.0452
30649W        W37099  18.368   7.415   5.275 -0.0724 -0.0251  0.1419
30650W        W37100  22.823   0.211  11.225  0.1204 -0.2907  0.2522
30651W        W37101  15.562   5.467   0.922 -0.0284  0.0170  0.0334
30652W        W37102   5.140   4.889  23.303  0.1116 -0.2261  0.1599
30653W        W37103  14.626   6.250   4.172 -0.4291 -0.0520  0.0256
30654W        W37104   8.882   1.767  25.208  0.4204  0.0640 -0.1871
30655W        W37105  10.631   1.019  16.071  0.1170  0.1454  0.2342
30656W        W37106  28.695   5.154  16.303 -0.0904 -0.2071  0.0913
30657W        W37107  21.351   5.933   0.052 -0.0122 -0.0068  0.0055
30658W        W37108   4.163   3.586   8.164  0.1918  0.1121  0.1808
30659W        W37109  21.522   7.139   5.203  0.0159 -0.2375  0.1624
30660W        W37110  26.317   0.513   6.795  0.1678  0.2415 -0.0578
30661W        W37111  20.303   3.439  16.613  0.0109  0.0240  0.0604
30662W        W37112  29.624   1.596  21.953 -0.0194 -0.1417 -0.0537
30663W        W37113  27.172   1.825   1.597  0.1208  0.1303  0.0840
30664W        W37114  16.923   3.828   1.702 -0.1247 -0.2343  0.1374
30665W        W37115  17.097   4.320   2.643  0.0111 -0.2336  0.1124
30666W        W37116   3.016   2.194  19.398  0.0160 -0.1241 -0.0537
30667W        W37117  27.349   0.018  21.300  0.0267 -0.0355 -0.1466
30668W        W37118  15.551   4.282   9.235  0.1819 -0.0018 -0.1169
30669W        W37119   5.650   1.307   1.127  0.0707  0.0239  0.1229
30670W        W37120  15.945   1.237  21.280 -0.0300  0.0280  0.0922
30671W        W37121  13.966   0.071   6.847 -0.1050  0.0013  0.0574
30672W        W37122   7.060   7.070  25.696 -0.1652  0.0855 -0.2045
30673W        W37123   4.054   0.704  15.097 -0.0999  0.0728 -0.0108
30674W        W37124  27.491   2.369  20.924 -0.3383  0.3502 -0.1770
30675W        W37125  16.122   7.500  25.535 -0.0667 -0.3398  0.0911
30676W        W37126   0.156   2.158   3.814 -0.1459 -0.0133 -0.1718
30677W        W37127  18.337   5.900   3.737  0.1365 -0.0709 -0.1313
30678W        W37128  15.710   3.954   5.074 -0.3708  0.0003 -0.1984
30679W        W37129  24.037   1.034  25.929  0.0249 -0.0223  0.0167
30680W        W37130  21.355   3.276  24.801 -0.2787  0.2010  0.0722
30681W        W37131  10.423   4.190  17.829  0.1953 -0.1331  0.1274
30682W        W37132  25.649   5.973  24.080  0.4133 -0.1939  0.2570
30683W        W37133  27.514   2.566  24.878  0.3047 -0.0541 -0.1332
30684W        W37134   8.669   3.836   3.933  0.0786  0.1953 -0.2868
30685W        W37135  31.205   6.360   7.727  0.1748 -0.1739  0.1565
30686W        W37136  29.138   4.870  25.651 -0.1541  0.1570  0.0726
30687W        W37137  15.424   6.424   3.480  0.0568 -0.3369  0.2261
30688W        W37138   3.942   1.550   0.039 -0.0019 -0.0352  0.0274
30689W        W37139  21.213   4.391  24.029  0.1699 -0.1950 -0.0839
30690W        W37140  26.991   3.991  25.521  0.1454  0.0596 -0.1033
30691W        W37141   1.941   7.427  16.195 -0.1458  0.1762 -0.2344
30692W        W37142  28.625   1.127  22.699  0.2194 -0.0377  0.0709
30693W        W37143   4.004   5.119   7.439 -0.2149  0.0227 -0.0956
30694W        W37144  12.522   1.630   5.877 -0.0460 -0.0347  0.0027
30695W        W37145  17.068   2.858   6.906  0.3129 -0.1220  0.1331
30696W        W37146  23.943   2.325   2.522  0.1180  0.1212  0.0979
30697W        W37147  29.364   2.968   5.232 -0.0708  0.1283 -0.0759
30698W        W37148  16.615   7.741   9.984 -0.0613  0.0232  0.2476
30699W        W37149  24.471   1.134   4.905 -0.1329 -0.3596 -0.3202
30700W        W37150  28.693   0.745   9.359 -0.0473  0.0425 -0.0133
30701W        W37151  29.457   7.660  15.086 -0.3102 -0.2949 -0.3910
30702W        W37152  17.544   2.316  17.746 -0.1372 -0.0624 -0.1924
30703W        W37153   5.464   4.601  23.441  0.0681  0.0666 -0.0320
30704W        W37154  12.341   0.370   2.289 -0.1922 -0.0554 -0.0478
30705W        W37155   9.421   7.523  24.605  0.1660  0.0996  0.0974
30706W        W37156  21.139   5.953   0.514  0.1908 -0.3577  0.2557
30707W        W37157   2.228   1.478  19.166 -0.1329  0.1260  0.0007
30708W        W37158  29.452   6.405   9.041 -0.0875 -0.1857 -0.3704
30709W        W37159   8.640   6.625  10.004 -0.0237 -0.1960  0.2691
30710W        W37160   5.014   1.240   2.921 -0.0935 -0.1299 -0.0166
30711W        W37161  25.614   5.870  17.105 -0.0580  0.2331 -0.0897
30712W        W37162  24.689   2.441  21.380 -0.2854 -0.0373 -0.1959
30713W        W37163   0.090   2.451   6.633  0.3201 -0.1642 -0.0269
30714W        W37164  20.949   5.295  20.545 -0.2145  0.4387  0.3938
30715W        W37165   6.066   3.326  19.880  0.0069  0.1458 -0.0123
30716W        W37166  17.294   4.432  19.319 -0.0053 -0.1488 -0.0541
30717W        W37167  25.290   4.148  10.364  0.0573  0.1877  0.0386
30718W        W37168   8.437   0.196  21.624 -0.0029  0.0812  0.0951
30719W        W37169  23.127   3.858   0.223 -0.2350  0.0740 -0.0517
30720W        W37170  20.398   5.734   8.955  0.0161  0.0087  0.1520
30721W        W37171  12.874   3.854  25.674 -0.0007  0.4542  0.1813
30722W        W37172  26.193   1.090   8.710 -0.0991  0.0518  0.1606
30723W        W37173  29.054   2.757  23.905 -0.0687 -0.2636  0.0358
30724W        W37174   4.280   3.677  10.159 -0.0550  0.1189  0.2182
30725W        W37175  24.632   1.831  17.616  0.1891  0.1447 -0.0163
30726W        W37176   6.679   2.955  18.980  0.1813  0.1431 -0.0653
30727W        W37177   7.022   5.495   1.910 -0.0361  0.0476  0.1407
30728W        W37178  16.369   2.255  10.656 -0.0782 -0.0661 -0.1644
30729W        W37179   1.081   3.957   4.624  0.1260  0.1513  0.0145
30730W        W37180   8.385   5.404   6.631 -0.1807  0.2344 -0.2577
30731W        W37181  20.271   7.579  10.886 -0.3211  0.3159 -0.0974
30732W        W37182  10.373   5.192  16.997  0.3295 -0.1290 -0.1747
30733W        W37183  17.261   0.449   3.895 -0.0809  0.1238 -0.2357
30734W        W37184   4.016   7.401  15.041 -0.0412 -0.0273  0.1074
30735W        W37185   6.281   2.602  16.691 -0.0564 -0.1945 -0.0994
30736W        W37186  14.811   6.765  20.431  0.0180  0.1277 -0.1217
30737W        W37187  21.606   5.043  23.388 -0.2036 -0.2381 -0.0772
30738W        W37188   2.435   2.573   3.948  0.2521  0.1783  0.1976
30739W        W37189  25.833   2.586  25.976  0.0795  0.1104  0.2172
30740W        W37190  12.014   1.339  23.371  0.0792  0.1426 -0.1493
30741W        W37191  25.994   3.536   3.177  0.0335 -0.1719 -0.2188
30742W        W37192  24.032   1.413   5.747 -0.1205  0.0037 -0.1654
30743W        W37193  16.322   3.826  17.995 -0.1611  0.3014 -0.1132
30744W        W37194  21.080   3.766  20.362  0.1520 -0.2586  0.1628
30745W        W37195  26.833   1.705  16.209  0.1755 -0.3254  0.0621
30746W        W37196   8.136   7.709   5.872 -0.1328 -0.2787  0.0223
30747W        W37197  18.032   6.710   6.680 -0.0086  0.3407 -0.3347
30748W        W37198   8.929   7.730  16.486  0.0739  0.1736  0.3494
30749W        W37199   8.800   1.149  25.984  0.1123  0.2862  0.0916
30750W        W37200  31.167   5.308   5.305  0.0352 -0.0726 -0.2008
30751W        W37201   7.308   5.260  24.409 -0.2327  0.2357 -0.0596
30752W        W37202   2.009   3.753  22.338  0.2509 -0.0390 -0.0463
30753W        W37203   9.501   4.871   0.761  0.0080 -0.0375 -0.3285
30754W        W37204  25.028   4.524   7.366  0.3764  0.0180  0.4109
30755W        W37205  28.005   6.271   2.875 -0.0440 -0.2588  0.0731
30756W        W37206  16.602   2.341   1.646 -0.0044  0.2094 -0.1575
30757W        W37207   1.099   4.387  23.340  0.1067  0.4791  0.1487
30758W        W37208  11.352   6.660  17.854  0.2288  0.2735  0.0579
30759W        W37209   8.529   2.505   0.317  0.1045  0.2659 -0.1014
30760W        W37210  11.348   6.817  15.305  0.0773 -0.1484 -0.1124
30761W        W37211  19.294   4.245   4.820  0.2875 -0.0966  0.0310
30762W        W37212   3.832   5.856   7.849  0.2225  0.1876  0.3150
30763W        W37213  21.022   0.330  11.970 -0.0918 -0.0895 -0.0753
30764W        W37214  16.618   4.752  26.391  0.0709 -0.2515 -0.0235
30765W        W37215  14.078   7.306  17.887 -0.1473  0.1311  0.0872
30766W        W37216  23.060   6.683   7.195 -0.1761  0.0411  0.1345
30767W        W37217   0.787   4.436  17.117 -0.1885 -0.1869 -0.1077
30768W        W37218   3.506   2.080  20.231 -0.0015  0.2665  0.1725
30769W        W37219  17.118   5.096   7.070 -0.0932 -0.4185  0.4098
30770W        W37220  28.791   2.736  19.232 -0.1140  0.0520  0.0561
30771W        W37221  19.309   5.066   2.728 -0.1375  0.1945 -0.0225
30772W        W37222  17.309   1.107   7.843  0.0655 -0.1095  0.2278
30773W        W37223  26.681   3.141  23.020  0.2138 -0.2252  0.0953
30774W        W37224  27.442   1.933   1.188 -0.2667 -0.0170 -0.1727
30775W        W37225   8.425   2.066  10.091  0.0425 -0.0892 -0.0601
30776W        W37226  25.599   5.841  23.104  0.2170  0.2494 -0.0519
30777W        W37227  22.958   1.265   0.349  0.0783 -0.0903 -0.1144
30778W        W37228  28.015   1.749   6.202 -0.1308 -0.3294  0.0963
30779W        W37229  16.825   2.492   9.909  0.2985  0.1580 -0.2537
30780W        W37230   1.085   6.434  21.385 -0.1974  0.1370  0.3285
30781W        W37231   1.503   5.404   1.130 -0.2115 -0.0994 -0.2512
30782W        W37232  31.204   1.183  10.551 -0.0772  0.1869  0.0460
30783W        W37233  11.791   3.866   5.314  0.0154 -0.0010 -0.0698
30784W        W37234   5.417   6.386   8.402  0.0614  0.1065  0.1940
30785W        W37235  27.105   3.128   3.571 -0.1142  0.1565  0.2217
30786W        W37236  12.823   1.036  24.553 -0.1060  0.0797 -0.0225
30787W        W37237   8.708   6.199  18.591 -0.3499 -0.1419  0.1245
30788W        W37238   4.522   2.232   2.990  0.0304 -0.0560  0.0682
30789W        W37239  13.667   2.900   7.195 -0.2470 -0.0653 -0.4395
30790W        W37240   3.964   1.160   0.401 -0.1270  0.0501 -0.0990
30791W        W37241   4.048   6.857  20.458  0.0208  0.1456  0.0694
30792W        W37242  10.917   0.298   3.521 -0.0467 -0.0925 -0.0211
30793W        W37243  28.752   0.243  22.813 -0.0824 -0.0293 -0.0652
30794W        W37244  11.543   4.764  24.021  0.1404 -0.0931  0.1897
30795W        W37245   9.847   5.871   3.743  0.0052  0.3563 -0.0046
30796W        W37246  23.083   1.223  18.095  0.1153 -0.0570 -0.2742
30797W        W37247  30.585   3.784   7.781 -0.0472  0.1868 -0.0035
30798W        W37248  20.322   0.944   5.727  0.0048 -0.2364  0.0335
30799W        W37249   3.132   4.459  25.799  0.1301 -0.0840  0.1839
30800W        W37250  18.659   7.153   0.794 -0.0312  0.0616 -0.0380
30801W        W37251  15.009   0.690   2.434 -0.2028  0.1907  0.1840
30802W        W37252  30.120   3.461   5.569  0.1421 -0.0933 -0.0421
30803W        W37253   5.018   6.429  25.944 -0.1371  0.1510  0.0905
30804W        W37254   4.332   0.719   7.776 -0.2220 -0.2874  0.1165
30805W        W37255  26.609   2.924   9.775 -0.0041 -0.0155  0.1259
30806W        W37256  26.298   5.858  21.084  0.0655 -0.0365  0.0585
30807W        W37257   5.701   4.280   4.275  0.0496  0.0036  0.1169
30808W        W37258  24.321   1.535  17.892  0.2032  0.0929  0.0265
30809W        W37259  17.608   0.624   0.397 -0.1040 -0.2179  0.2993
30810W        W37260  31.089   4.668   4.527  0.0674  0.0441 -0.1788
30811W        W37261  18.115   0.107   7.888  0.0517  0.4023  0.1559
30812W        W37262  19.732   6.062  19.575  0.4565 -0.0891  0.0330
30813W        W37263  30.468   1.505  20.371  0.1572 -0.0620 -0.0255
30814W        W37264  18.400   2.212   5.677 -0.2490  0.1815  0.2255
30815W        W37265  22.977   4.081  21.434  0.1161  0.2147 -0.1034
30816W        W37266  16.705   0.856   0.011 -0.0851  0.3790 -0.2210
30817W        W37267   7.523   1.309  19.787 -0.2861  0.4461 -0.0613
30818W        W37268  26.748   4.253   4.694 -0.1859  0.0262 -0.0978
30819W        W37269  14.020   7.292  26.294 -0.1564  0.0703 -0.2074
30820W        W37270  10.885   5.477   0.607 -0.1825  0.0463 -0.1507
30821W        W37271   0.228   5.171  17.018 -0.0056 -0.0371  0.1641
30822W        W37272  11.347   5.425  22.203 -0.1394 -0.1708 -0.0454
30823W        W37273  20.960   3.193   1.849  0.2304 -0.1814  0.0909
30824W        W37274   1.085   3.628   0.116 -0.1522  0.1716  0.2850
30825W        W37275  29.103   5.527  24.329  0.2889  0.1558 -0.1080
30826W        W37276  14.670   5.507   9.290 -0.1492 -0.0021 -0.4421
30827W        W37277  16.077   3.177   0.130  0.1204  0.1140 -0.1038
30828W        W37278  18.779   0.715   6.249  0.1558  0.0824 -0.0458
30829W        W37279  26.861   5.678   6.055 -0.0263  0.1814 -0.0694
30830W        W37280  19.294   7.642  18.158 -0.4189 -0.1181  0.1778
30831W        W37281  16.331   5.378   7.520 -0.1168 -0.1692  0.1708
30832W        W37282   9.673   4.393   6.056  0.1849 -0.1006  0.1758
30833W        W37283   4.970   7.379  16.017 -0.3231  0.2202  0.0724
30834W        W37284   3.676   1.524  15.600 -0.2695 -0.0944  0.4889
30835W        W37285  13.791   1.066   4.508 -0.0170 -0.1085 -0.2935
30836W        W37286  19.086   5.888  19.853  0.1824 -0.2616  0.2050
30837W        W37287   2.994   0.909  21.992  0.0999  0.0350  0.2298
30838W        W37288  12.868   4.082  19.739 -0.0258 -0.0152 -0.1933
30839W        W37289  11.057   7.388  10.806  0.0189  0.1028 -0.2666
30840W        W37290  16.540   1.839   3.231 -0.0135 -0.0498  0.0790
30841W        W37291   2.401   4.073   5.556  0.0565  0.2464 -0.0457
30842W        W37292  12.744   7.717   2.067 -0.0284  0.3864 -0.0179
30843W        W37293  19.462   4.405   8.867 -0.0456 -0.0193  0.2955
30844W        W37294  14.819   4.573   9.286 -0.1116 -0.0095  0.0589
30845W        W37295  22.528   7.131   4.464  0.1405 -0.4336 -0.3658
30846W        W37296  18.340   1.295   7.688  0.3818 -0.2753 -0.1647
30847W        W37297   0.288   5.036  22.389 -0.1736  0.0822 -0.1278
30848W        W37298  14.935   0.818   8.807 -0.4333 -0.2713  0.2331
30849W        W37299  12.446   3.248  15.265 -0.0687 -0.3843 -0.2899
30850W        W37300  11.406   6.065  20.084 -0.2067 -0.1864 -0.1707
30851W        W37301   2.458   7.270  15.084  0.2651  0.1117 -0.0744
30852W        W37302   3.639   0.237   9.162  0.1779 -0.2455 -0.1165
30853W        W37303  25.390   4.995  17.792  0.2510  0.0715 -0.1076
30854W        W37304  22.674   4.074   2.861 -0.1374  0.0246  0.0561
30855W        W37305   3.697   3.451   7.970  0.1952 -0.1275 -0.0065
30856W        W37306  20.084   3.006  25.532 -0.0745  0.1226 -0.0728
30857W        W37307  19.348   5.255  20.476  0.1259  0.2833 -0.2259
30858W        W37308  20.428   3.927  18.565 -0.0120 -0.0371 -0.0641
30859W        W37309  22.722   4.228  24.903  0.0288 -0.0958 -0.0132
30860W        W37310   6.661   1.245  21.577 -0.1051  0.0965  0.0583
30861W        W37311  23.646   6.305  11.980 -0.1230  0.2524 -0.0932
30862W        W37312   2.965   2.549   8.689 -0.2157  0.0351 -0.1512
30863W        W37313  20.160   2.412   0.616  0.3495  0.0773  0.1289
30864W        W37314  27.735   2.524  24.395 -0.1249 -0.1072 -0.0483
30865W        W37315   1.912   0.652   4.864 -0.1381 -0.0742 -0.0177
30866W        W37316  17.345   6.777   7.107 -0.2548 -0.1030  0.2480
30867W        W37317   2.167   2.280  10.448 -0.0752  0.3170 -0.5068
30868W        W37318   6.994   7.343  21.652  0.0441 -0.0717 -0.0712
30869W        W37319  20.484   1.252  20.525 -0.1603  0.2283 -0.2666
30870W        W37320  29.206   6.901  20.704 -0.2177 -0.0779 -0.0520
30871W        W37321  25.367   3.095   2.620  0.0265  0.0656 -0.0180
30872W        W37322  27.439   2.716  19.450  0.2021 -0.1215 -0.1885
30873W        W37323   6.490   2.059  25.591 -0.2885 -0.0307 -0.0830
30874W        W37324   4.837   4.939  19.522 -0.2442  0.0466  0.1393
30875W        W37325   3.181   0.640   3.223 -0.0440  0.0191  0.1512
30876W        W37326   4.395   0.840  10.074 -0.0610 -0.0109  0.1133
30877W        W37327   0.691   6.662  18.605 -0.1094 -0.0332  0.2600
30878W        W37328   8.145   0.647  25.604  0.1812 -0.0168 -0.1897
30879W        W37329  12.875   3.303  25.363  0.1415 -0.1101  0.2017
30880W        W37330  10.457   3.933   2.362 -0.0947  0.0317  0.0347
30881W        W37331  27.805   4.662   1.893 -0.0573  0.2403 -0.2583
30882W        W37332  24.230   6.820   3.784  0.1023  0.2479 -0.0145
30883W        W37333   8.964   2.461   9.961 -0.1248 -0.1920  0.1305
30884W        W37334  12.920   2.147  10.287 -0.0229 -0.1800 -0.2532
30885W        W37335   2.055   6.607  20.831  0.1750 -0.0797  0.0888
30886W        W37336  24.817   2.880  19.706 -0.0223 -0.1732 -0.0838
30887W        W37337  20.470   5.020   5.242 -0.0337  0.3556  0.1679
30888W        W37338  31.055   4.765   2.562 -0.0146 -0.2177  0.0701
30889W        W37339  25.534   4.220  24.231 -0.0362 -0.0661 -0.0175
30890W        W37340  13.659   4.353  25.649 -0.0030 -0.2100  0.1045
30891W        W37341  27.547   2.120  10.839  0.0309  0.0163 -0.2497
30892W        W37342  18.696   4.592   8.214 -0.0827 -0.1620  0.1119
30893W        W37343  27.796   6.814  10.224 -0.1616 -0.1143  0.0748
30894W        W37344   1.468   2.199  22.745  0.1548 -0.0917 -0.3254
30895W        W37345  24.574   4.052  26.291  0.0560  0.0512 -0.2976
30896W        W37346  28.011   7.037  15.086  0.2475  0.2224  0.2461
30897W        W37347  27.511   1.564  15.497 -0.0486 -0.0080  0.2054
30898W        W37348   2.017   6.084  17.499 -0.0294 -0.3248 -0.3578
30899W        W37349  25.044   4.992  10.784 -0.2280  0.0070 -0.1057
30900W        W37350  23.012   0.664  23.422  0.2649 -0.2930 -0.2347
30901W        W37351   7.419   4.058  18.847 -0.0324 -0.0636  0.1463
30902W        W37352   5.010   6.035  14.882 -0.2226  0.0499  0.1283
30903W        W37353  17.213   1.338   1.063  0.0588  0.0158 -0.2190
30904W        W37354   2.544   5.519   2.180  0.1408 -0.0722  0.3134
30905W        W37355  11.635   7.658  14.920  0.3454  0.0724  0.2506
30906W        W37356  10.226   0.035  19.346 -0.0010  0.1377  0.0465
30907W        W37357  17.171   5.018   3.425  0.1886  0.0131  0.0894
30908W        W37358   4.723   7.029  24.376 -0.1328 -0.2066  0.1112
30909W        W37359   5.741   2.151   8.718  0.0201 -0.1731 -0.0863
30910W        W37360   7.283   1.915  16.011 -0.0148 -0.1191  0.0049
30911W        W37361  23.267   2.378  24.549 -0.0853  0.1312 -0.0617
30912W        W37362   4.326   2.435  24.513  0.3330 -0.2649 -0.0127
30913W        W37363  18.229   6.821  16.832 -0.0010  0.0724 -0.1963
30914W        W37364  14.975   4.395  16.974  0.1505 -0.0160 -0.3116
30915W        W37365  24.874   1.206  26.416  0.2115  0.3334 -0.1219
30916W        W37366  26.583   1.275   7.907  0.3231  0.0501  0.1162
30917W        W37367   1.694   6.230   8.944  0.2611  0.1614 -0.0399
30918W        W37368   3.003   3.974   7.121 -0.0233  0.1083  0.0582
30919W        W37369   2.166   3.227   1.954  0.2480 -0.0134  0.1238
30920W        W37370  13.235   3.282  15.524  0.2479  0.2133 -0.0849
30921W        W37371   8.539   6.717  22.768  0.0342 -0.1677  0.2410
30922W        W37372  27.465   3.493   3.725  0.0352 -0.0850 -0.1443
30923W        W37373   2.260   3.331  20.747 -0.1525  0.1985  0.2352
30924W        W37374  12.610   6.081   9.054  0.1894 -0.3557 -0.0045
30925W        W37375  22.069   1.956  26.305 -0.0282  0.1376  0.1210
30926W        W37376  25.136   6.605  19.043 -0.0029 -0.1293  0.2811
30927W        W37377  25.701   4.684  16.987  0.2708 -0.1955 -0.0819
30928W        W37378  12.442   0.156   7.718 -0.2317 -0.0188  0.0955
30929W        W37379  16.821   2.196   2.978  0.2468 -0.0302  0.2845
30930W        W37380  28.357   1.012   3.796  0.1653  0.0967 -0.1509
30931W        W37381  14.569   2.648   8.790 -0.1287 -0.4434 -0.0466
30932W        W37382   8.423   0.397   0.115  0.1889 -0.2943  0.2143
30933W        W37383  24.361   7.224  16.883  0.1074  0.0421  0.4069
30934W        W37384   9.247   4.089   5.481 -0.1000  0.0315 -0.0447
30935W        W37385  20.618   1.090   3.662  0.0429  0.1444  0.2230
30936W        W37386  10.727   0.452  18.082 -0.2566 -0.1664 -0.1030
30937W        W37387   5.485   1.727  22.269 -0.3835 -0.0068 -0.1306
30938W        W37388  12.770   7.216   5.589 -0.0293  0.2196  0.0581
30939W        W37389  21.408   4.887  18.839  0.1457  0.0809 -0.1479
30940W        W37390   3.534   2.861   2.891  0.2725 -0.2281 -0.2721
30941W        W37391  17.410   6.868  18.134 -0.1695  0.0257 -0.0496
30942W        W37392  14.737   0.580   6.313  0.1300 -0.0155  0.1322
30943W        W37393   5.429   4.315  19.883  0.0598 -0.2350 -0.4078
30944W        W37394   8.411   5.891  24.083 -0.2555  0.1212  0.0788
30945W        W37395  27.036   2.077  17.834 -0.0132 -0.1081 -0.0843
30946W        W37396  26.299   7.050   5.546 -0.1447  0.1408  0.3145
30947W        W37397  31.055   5.976  10.633 -0.1269 -0.4322  0.2079
30948W        W37398  26.429   4.633  10.703  0.0700  0.2207  0.4258
30949W        W37399  22.955   6.696   2.417  0.0509 -0.1173  0.2888
30950W        W37400  13.870   5.075  24.090  0.1187 -0.0178 -0.0863
30951W        W37401   5.118   1.882   7.412 -0.1283  0.0692  0.1816
30952W        W37402  29.388   7.443   3.307 -0.0195  0.0873 -0.1282
30953W        W37403   1.116   6.722  22.657 -0.0021 -0.0567  0.0263
30954W        W37404   3.481   2.205   5.144 -0.1376  0.2054 -0.1710
30955W        W37405  12.666   5.304   0.638 -0.2277  0.2205 -0.0861
30956W        W37406  12.625   6.258   7.889  0.2693 -0.0007  0.4701
30957W        W37407  25.735   0.584  25.557 -0.2385  0.3784  0.0211
30958W        W37408  30.461   3.733  10.917 -0.0171 -0.1437 -0.0651
30959W        W37409   8.781   3.865  22.764 -0.0489  0.1223 -0.1532
30960W        W37410  26.199   3.986  11.378  0.2220 -0.0929 -0.4545
30961W        W37411  21.766   0.600   3.934 -0.1474  0.1313 -0.2545
30962W        W37412  25.359   0.399  21.303  0.0066  0.1596 -0.1044
30963W        W37413   1.978   7.711  15.706 -0.0108  0.0092  0.0630
30964W        W37414  16.391   7.323  21.822  0.1950 -0.0577 -0.1644
30965W        W37415   4.868   4.027   4.833 -0.2334 -0.1319  0.1890
30966W        W37416  24.880   4.784  16.776 -0.0853  0.0771 -0.1029
30967W        W37417  15.224   7.279   6.901 -0.1232  0.0355 -0.2058
30968W        W37418  25.519   4.107   8.465 -0.2137  0.2628 -0.0168
30969W        W37419   7.073   2.327  23.077  0.0181 -0.0600  0.0211
30970W        W37420  17.194   5.434   0.092  0.0114  0.2322  0.0443
30971W        W37421  28.079   5.508  24.392 -0.0330  0.2358  0.2098
30972W        W37422   1.430   7.722   8.396  0.2324 -0.0216  0.1751
30973W        W37423   9.220   0.468  20.325  0.0247 -0.1669 -0.1186
30974W        W37424  10.629   1.031  18.966  0.2837  0.0166  0.0343
30975W        W37425  16.444   1.702  24.877  0.3114 -0.2389  0.1286
30976W        W37426  21.047   0.257   5.749  0.2533 -0.0139 -0.0011
30977W        W37427  16.149   7.445   9.305 -0.2081 -0.0634  0.1523
30978W        W37428  20.607   3.622   1.761 -0.0978 -0.2059  0.5408
30979W        W37429  30.486   5.523   7.976  0.3155  0.0175 -0.0161
30980W        W37430  27.014   3.711  21.236  0.0704 -0.0582  0.3381
30981W        W37431   7.173   4.027  18.339 -0.2508 -0.0371 -0.2397
30982W        W37432   1.079   4.093   6.682 -0.0955 -0.0760 -0.2662
30983W        W37433  19.888   0.221   2.834 -0.1720 -0.1897  0.1341
30984W        W37434   8.728   1.455   9.448 -0.1947 -0.0300 -0.0717
30985W        W37435  19.863   5.830  25.827  0.3188  0.4681  0.2135
30986W        W37436  26.049   5.024  20.886  0.0913  0.0832  0.1879
30987W        W37437   4.539   3.423  15.247 -0.0159  0.1607 -0.1576
30988W        W37438  27.910   3.693   3.516 -0.2791 -0.3804  0.0460
30989W        W37439   8.511   1.894  20.353 -0.1228 -0.0738 -0.1221
30990W        W37440  20.580   1.724   8.774  0.0541  0.1512 -0.1022
30991W        W37441  11.686   1.747   1.051 -0.0486 -0.4154  0.0730
30992W        W37442   6.340   5.901   3.916 -0.1195  0.3511 -0.0339
30993W        W37443   7.819   1.961   1.607  0.0491 -0.1466 -0.0464
30994W        W37444  13.517   5.520  18.816 -0.1141 -0.1308  0.3494
30995W        W37445  26.620   7.782  10.918 -0.1714 -0.1434  0.1282
30996W        W37446  26.577   6.888  26.174 -0.2495  0.4560 -0.1684
30997W        W37447  24.813   0.831   1.443 -0.1221  0.1821  0.3761
30998W        W37448  18.425   0.668  18.406  0.0769  0.0373 -0.0014
30999W        W37449   5.690   3.163  16.798  0.1037 -0.1868 -0.0869
31000W        W37450  14.149   3.623  15.248  0.0109  0.2645 -0.0569
31001W        W37451  29.250   5.234  23.067 -0.0217 -0.2451  0.1089
31002W        W37452  24.414   6.546  25.464  0.1602 -0.5332 -0.0239
31003W        W37453  14.556   1.948  26.281 -0.1748 -0.1481  0.1810
31004W        W37454   6.989   4.518   1.941  0.0797  0.0648 -0.0697
31005W        W37455  22.482   7.635  20.635  0.3559 -0.1300  0.0440
31006W        W37456  16.311   2.346  22.097 -0.0243 -0.1844 -0.0011
31007W        W37457   4.852   6.249   9.802 -0.0907  0.0691 -0.4549
31008W        W37458  12.228   5.725  22.347  0.1107 -0.1072  0.0174
31009W        W37459   7.670   2.891   6.488 -0.0331  0.0846 -0.0524
31010W        W37460   4.245   5.014   6.913 -0.3481  0.3262 -0.0470
31011W        W37461  12.188   5.815  23.789  0.1502 -0.1731 -0.1323
31012W        W37462   3.822   3.646  19.913  0.0368 -0.3243 -0.1894
31013W        W37463  14.955   3.215  16.849  0.1857  0.0905  0.2134
31014W        W37464  28.708   5.566   7.047 -0.3193  0.1213 -0.1610
31015W        W37465   8.724   4.259  19.496 -0.2004  0.1346 -0.0483
31016W        W37466   7.262   4.907  21.781 -0.1415 -0.0595 -0.2851
31017W        W37467  21.293   2.772  24.612 -0.0376  0.0631  0.0924
31018W        W37468   4.589   3.724   5.359  0.4043 -0.0075  0.1869
31019W        W37469  16.071   4.477   5.035 -0.1177 -0.0072  0.3578
31020W        W37470   4.573   6.765  15.995 -0.0112  0.0158  0.0052
31021W        W37471  23.043   3.495   6.782  0.0374 -0.1603  0.0312
31022W        W37472  17.372   4.084   6.066 -0.2565 -0.2088 -0.2060
31023W        W37473   7.074   0.282  16.266  0.0213 -0.2717  0.3468
31024W        W37474  20.919   7.796  25.647  0.2431  0.1033  0.3444
31025W        W37475  30.012   2.741   9.124 -0.1457 -0.0995  0.1177
31026W        W37476  18.688   7.016   5.174  0.0711  0.2053  0.0371
31027W        W37477  23.398   3.278   5.982  0.1688 -0.1180  0.1282
31028W        W37478  20.700   3.085  23.150 -0.0594 -0.2466  0.0667
31029W        W37479  17.773   5.164  21.982  0.0133  0.3311  0.0318
31030W        W37480  26.427   2.349   0.341 -0.2027  0.2235  0.1496
31031W        W37481  27.605   2.402   1.271 -0.0642  0.2051  0.0143
31032W        W37482  14.484   4.140  16.908 -0.0088  0.0686  0.1513
31033W        W37483  27.894   4.892   0.204  0.0070 -0.0685 -0.2254
31034W        W37484  16.289   6.527   9.048  0.0243 -0.0055 -0.1154
31035W        W37485  21.575   6.509  23.865  0.2440 -0.2357 -0.3174
31036W        W37486  17.176   2.588   6.020 -0.1046 -0.0934 -0.1634
31037W        W37487  14.247   7.259  24.003  0.0954 -0.1098 -0.3133
31038W        W37488  19.514   1.865  17.982 -0.0391  0.2496 -0.0635
31039W        W37489  14.507   5.953   0.415  0.2547 -0.2390  0.1055
31040W        W37490   2.988   6.858  17.928 -0.0927  0.2030  0.0310
31041W        W37491  23.342   6.714   3.405 -0.1273  0.2491 -0.0923
31042W        W37492  29.557   5.737   4.690  0.2356  0.3712  0.2171
31043W        W37493  28.977   7.765   5.129  0.1633  0.0843  0.2156
31044W        W37494  14.159   0.998   4.898 -0.0249 -0.1990  0.0876
31045W        W37495  21.522   5.274   7.993  0.0697  0.0612 -0.0961
31046W        W37496  14.210   6.132   1.911 -0.3194 -0.1969  0.1098
31047W        W37497  24.456   1.953   4.140  0.0951  0.1942  0.1135
31048W        W37498   5.597   0.886  17.763  0.1868  0.0004 -0.1079
31049W        W37499  29.670   7.671   9.215  0.1426  0.0104  0.0751
31050W        W37500  11.234   0.313  20.254  0.1371  0.1452 -0.1922
31051W        W37501   1.942   3.898   8.603  0.0688  0.1670  0.2196
31052W        W37502  15.822   6.111  19.982  0.1144  0.0489 -0.2282
31053W        W37503  21.734   2.592  10.070 -0.1037  0.0878 -0.1476
31054W        W37504   2.376   0.017  17.455 -0.0245  0.2469  0.2207
31055W        W37505  30.164   3.102   2.745  0.2797  0.0989 -0.0283
31056W        W37506  18.560   4.733  23.110 -0.0366  0.1164 -0.1094
31057W        W37507  28.288   2.938   5.033  0.0314  0.0823  0.0103
31058W        W37508  10.076   6.377   6.538 -0.2202 -0.0372  0.3133
31059W        W37509   1.553   0.317   6.544 -0.0083  0.3207 -0.0556
31060W        W37510  19.136   5.370  24.469  0.1236 -0.0883 -0.1267
31061W        W37511  30.453   7.603  22.151  0.0166 -0.0089  0.1330
31062W        W37512   9.602   0.776   0.015  0.1556 -0.2089  0.0058
31063W        W37513   4.290   6.114  22.301  0.1326 -0.0199  0.2224
31064W        W37514  27.247   4.302   6.305  0.0352 -0.0815  0.2002
31065W        W37515  24.326   0.725  21.899 -0.0300 -0.1393 -0.0501
31066W        W37516  27.682   0.280   1.950  0.0964  0.0084 -0.1424
31067W        W37517  14.714   7.438  23.092 -0.3583 -0.1078 -0.3191
31068W        W37518   9.168   3.071  22.738 -0.0446 -0.1007  0.0638
31069W        W37519   8.429   0.239  25.383  0.1584 -0.0667 -0.0983
31070W        W37520  21.259   1.149   6.151  0.0960  0.1294  0.0332
31071W        W37521  15.788   4.854   5.513  0.0829  0.0414 -0.3045
31072W        W37522  22.714   0.581  18.590  0.2354 -0.0404 -0.0316
31073W        W37523  24.631   5.980  22.996  0.1919  0.0105 -0.0103
31074W        W37524  22.119   7.061   2.941  0.1650  0.0543  0.1726
31075W        W37525  14.932   5.640   6.676 -0.1132 -0.0513  0.2852
31076W        W37526  25.738   1.537  24.686  0.1641  0.1649 -0.2751
31077W        W37527  24.788   6.520   8.432  0.3575  0.2084 -0.0154
31078W        W37528  15.393   1.915   7.072 -0.0720 -0.1427 -0.3225
31079W        W37529  19.717   2.275  25.052 -0.0047 -0.3506 -0.2092
31080W        W37530  20.709   4.754  15.908 -0.2186 -0.1290 -0.1526
31081W        W37531   3.959   4.445   9.769 -0.1341 -0.3937  0.0331
31082W        W37532  21.151   4.107  25.084  0.2615  0.0581 -0.0475
31083W        W37533   1.403   0.281  22.853 -0.0588 -0.0216  0.3277
31084W        W37534   0.242   0.697  15.290 -0.1148  0.0826  0.1016
31085W        W37535   0.114   4.214  25.119  0.0756 -0.0099 -0.0370
31086W        W37536   0.536   6.647   2.617 -0.0835  0.1632  0.0175
31087W        W37537  29.219   7.412  22.517  0.1829  0.2506  0.0340
31088W        W37538  25.002   2.384  14.960  0.3912 -0.0394  0.0436
31089W        W37539   5.564   7.162  18.397 -0.0801 -0.3084 -0.2142
31090W        W37540  16.859   7.362  15.533 -0.0209  0.1627 -0.4159
31091W        W37541  16.425   7.093   6.132  0.1314  0.1544  0.0734
31092W        W37542   2.379   4.298  16.370  0.0579  0.0470  0.2731
31093W        W37543  29.597   1.361   5.026  0.0803  0.3393 -0.1369
31094W        W37544  27.897   1.104  24.975 -0.1185 -0.1982  0.1921
31095W        W37545  11.885   2.724   5.876 -0.0996 -0.0358 -0.0470
31096W        W37546  11.084   1.884   9.267 -0.0399 -0.0371 -0.0782
31097W        W37547  16.725   6.573  23.418 -0.2885  0.0048 -0.1238
31098W        W37548  29.175   3.281  21.246  0.2998 -0.2791 -0.2075
31099W        W37549  13.893   4.191  20.564  0.0919  0.1921  0.2293
31100W        W37550   2.228   0.794   3.149  0.0054 -0.2777  0.1913
31101W        W37551  13.719   3.659   6.722  0.1557 -0.1648  0.0820
31102W        W37552  27.567   3.021   8.757  0.1298 -0.2535 -0.0176
31103W        W37553  25.510   0.206  20.918 -0.1041  0.1417 -0.0262
31104W        W37554  20.362   0.472   2.960  0.0295 -0.1161  0.1850
31105W        W37555   0.342   0.175   4.138 -0.0177  0.0514  0.4143
31106W        W37556  17.563   3.714   7.511 -0.0061  0.1985 -0.1477
31107W        W37557   3.572   0.591  22.205  0.0011  0.0724  0.0288
31108W        W37558  10.174   5.338  24.296 -0.0849 -0.1353  0.1759
31109W        W37559   8.479   1.778   6.667 -0.2641  0.2583  0.1166
31110W        W37560  21.403   0.079   7.485  0.3142 -0.1834  0.0580
31111W        W37561  19.894   4.452  19.106 -0.0781  0.1693  0.0820
31112W        W37562   7.827   5.530   2.298  0.1614  0.2285  0.2300
31113W        W37563  24.312   6.172  21.875  0.3022  0.0742 -0.1240
31114W        W37564   0.968   2.098  10.840  0.1933 -0.1290 -0.2171
31115W        W37565  29.082   4.656  10.197 -0.0096  0.1748  0.1503
31116W        W37566   6.781   3.726  26.411  0.2053 -0.0757 -0.1411
31117W        W37567  15.308   1.454  10.625  0.2294 -0.2829 -0.4222
31118W        W37568   8.066   5.077  23.573  0.0232 -0.1241 -0.1163
31119W        W37569  28.893   0.325  19.645  0.3580 -0.0587 -0.0605
31120W        W37570  17.153   0.160  18.673 -0.1233 -0.1012 -0.2335
31121W        W37571  26.527   6.234   5.697  0.0777  0.0692  0.2743
31122W        W37572   1.431   1.484   0.430  0.3022 -0.0405 -0.1412
31123W        W37573  28.504   3.772   9.808  0.2431  0.1061  0.1100
31124W        W37574  18.901   3.016  23.461  0.0683 -0.1646  0.1164
31125W        W37575  24.753   2.822   1.527 -0.1020  0.0839  0.0816
31126W        W37576  10.762   4.600  10.931  0.1952  0.0097 -0.2081
31127W        W37577   2.845   5.930  25.701  0.2164 -0.0272 -0.2350
31128W        W37578  30.821   3.321   3.324  0.0994  0.0741  0.0053
31129W        W37579   4.508   3.441   1.958 -0.1217  0.0762  0.4390
31130W        W37580   3.009   7.439   4.960  0.0462  0.1232  0.0675
31131W        W37581   8.924   4.274  10.141  0.5049  0.2134  0.0429
31132W        W37582  12.656   2.570   2.335 -0.1954  0.0978  0.4642
31133W        W37583  11.594   1.882  15.792  0.1857 -0.3972 -0.3546
31134W        W37584  18.198   2.198   7.536 -0.0682 -0.0080  0.2449
31135W        W37585   0.484   2.422   5.457 -0.0237 -0.1801 -0.2331
31136W        W37586  30.978   1.117  22.233  0.1333 -0.0897 -0.0716
31137W        W37587   0.854   5.710   5.466  0.0553  0.2969 -0.0477
31138W        W37588  21.435   4.278   6.764  0.1986 -0.1479  0.2132
31139W        W37589   4.458   5.706  15.035 -0.0120 -0.0734 -0.0835
31140W        W37590  27.640   4.592   3.404  0.0647  0.0528 -0.2504
31141W        W37591   7.630   5.165   0.844  0.3399 -0.1398 -0.0165
31142W        W37592   4.290   0.681   9.293 -0.0440 -0.1113  0.1903
31143W        W37593  25.410   4.935   9.362 -0.0318 -0.1479  0.1308
31144W        W37594   8.806   1.083   7.230 -0.0921 -0.0474 -0.1040
31145W        W37595  15.846   6.847   2.745 -0.0170 -0.1328 -0.0214
31146W        W37596   1.351   6.847  10.724 -0.1628 -0.2276 -0.0244
31147W        W37597  12.361   5.312  17.270  0.1305  0.4128 -0.0800
31148W        W37598   9.884   4.071   5.644  0.0892  0.0579  0.1157
31149W        W37599  26.230   2.457   2.208 -0.2638  0.3720  0.4084
31150W        W37600  10.334   3.682  24.732  0.2720 -0.3774 -0.1317
31151W        W37601  21.499   5.085   6.259  0.1545  0.0885  0.6184
31152W        W37602   5.635   4.365  22.165  0.1307 -0.0547 -0.1944
31153W        W37603  31.025   5.471  19.929  0.0121  0.2006  0.0694
31154W        W37604  17.486   3.163   4.346 -0.0827 -0.0833 -0.0190
31155W        W37605  21.457   6.894   8.051 -0.1741  0.0618  0.0739
31156W        W37606  10.365   6.208  20.910  0.2598  0.0068 -0.0155
31157W        W37607  25.616   5.339   8.677 -0.2023  0.0109 -0.1350
31158W        W37608  21.776   5.145   5.293 -0.1327 -0.1219  0.0831
31159W        W37609  17.567   1.782   6.302  0.1254  0.1084  0.0072
31160W        W37610   6.159   0.866   6.088 -0.1167  0.0074  0.0431
31161W        W37611  27.301   3.990  24.284  0.3084  0.1661 -0.1722
31162W        W37612  19.436   2.049   7.315  0.3037  0.1747  0.0540
31163W        W37613  25.457   3.209  17.281  0.0914 -0.0962 -0.2137
31164W        W37614  24.888   2.552   5.292 -0.0121  0.1250  0.0008
31165W        W37615  11.130   2.195   5.529  0.0321 -0.2720 -0.0908
31166W        W37616  22.030   2.528  18.408 -0.1782  0.0651  0.4330
31167W        W37617   9.832   0.701  22.154  0.5974  0.0428  0.1632
31168W        W37618  17.420   1.696  15.751  0.1623 -0.1496 -0.2169
31169W        W37619   0.558   4.371   6.566  0.0851  0.2032  0.1186
31170W        W37620  14.103   4.681  24.948  0.0492 -0.0426  0.0803
31171W        W37621  13.230   3.567   5.172 -0.0543 -0.0932  0.2600
31172W        W37622  21.036   0.721   8.697  0.0277  0.2691  0.3162
31173W        W37623  25.137   0.641  18.326  0.0068  0.0772  0.0766
31174W        W37624   1.626   6.971  21.027 -0.1581 -0.2674  0.0263
31175W        W37625  11.187   3.343   6.961 -0.0655  0.0124  0.0680
31176W        W37626  13.100   3.256   1.907 -0.1068  0.3308 -0.1454
31177W        W37627  25.314   4.632   1.328 -0.0231  0.1342  0.3277
31178W        W37628  20.339   7.421   4.439  0.1499  0.2082  0.0425
31179W        W37629  27.829   6.234  16.996  0.1341  0.0707 -0.0117
31180W        W37630  25.626   3.168  20.118 -0.2763 -0.0029  0.1089
31181W        W37631  21.562   0.753   2.873  0.0568 -0.2010  0.3247
31182W        W37632  20.231   6.486  16.126  0.1394 -0.0498 -0.3402
31183W        W37633  25.985   1.994   2.110  0.0370  0.1459 -0.1730
31184W        W37634  16.799   4.504   6.576  0.2819  0.0196 -0.1047
31185W        W37635  17.566   2.266  23.342 -0.2030 -0.2093  0.0143
31186W        W37636   9.858   7.538  17.313 -0.0504  0.1242 -0.0181
31187W        W37637   0.934   5.895   0.836  0.0987 -0.1693  0.1724
31188W        W37638  22.672   7.207   6.802 -0.0277  0.0040  0.2710
31189W        W37639  18.491   2.707   7.373 -0.4530  0.1546 -0.0982
31190W        W37640  23.463   5.241  17.919 -0.0011  0.1237 -0.3010
31191W        W37641  28.876   6.631  26.291  0.1068  0.0955 -0.0375
31192W        W37642   8.491   0.549  22.589 -0.0824 -0.0716  0.1871
31193W        W37643   4.045   3.281   1.252  0.0234  0.2985 -0.2480
31194W        W37644  15.509   4.417  23.639 -0.0834  0.0764 -0.1617
31195W        W37645  25.328   6.021  18.308  0.2054 -0.1383 -0.1333
31196W        W37646  14.484   4.569   5.447  0.2463  0.3338 -0.2957
31197W        W37647   1.764   7.438  23.804 -0.1418 -0.4537 -0.1486
31198W        W37648   6.220   2.079   4.954  0.0423 -0.0274  0.2806
31199W        W37649  16.475   5.213   9.549 -0.0290  0.1369  0.2654
31200W        W37650  12.782   4.772  19.237  0.0492  0.0437 -0.1709
31201W        W37651  29.632   1.727  23.933 -0.1835 -0.3975 -0.3848
31202W        W37652   9.940   7.589  25.449 -0.1076 -0.1003 -0.0324
31203W        W37653  16.157   6.315  25.145 -0.1174 -0.0383 -0.1046
31204W        W37654   8.643   2.835  17.708  0.1504  0.0838 -0.1890
31205W        W37655   4.208   3.024   1.666  0.0299  0.0908  0.1333
31206W        W37656  23.710   7.625  16.835 -0.2365  0.0372 -0.0546
31207W        W37657   8.111   1.722  18.857  0.1321 -0.1614  0.0961
31208W        W37658  23.376   1.925   1.930  0.0713  0.3203 -0.2011
31209W        W37659  26.012   7.612   7.332 -0.2131 -0.3044 -0.0680
31210W        W37660  22.504   2.675   3.983 -0.0062 -0.0064 -0.2238
31211W        W37661  28.627   2.353  24.302 -0.1839 -0.3392 -0.0879
31212W        W37662   2.863   7.713  19.195  0.2045 -0.0748 -0.1499
31213W        W37663   2.336   0.845   4.039  0.0051 -0.1141 -0.1108
31214W        W37664  29.352   7.625   7.639 -0.1526  0.2892  0.0552
31215W        W37665  27.344   5.373   2.855  0.3285 -0.0415  0.4394
31216W        W37666  14.247   4.671  17.777  0.0284 -0.0619 -0.0642
31217W        W37667  24.131   2.432  10.353  0.0096 -0.2056  0.0474
31218W        W37668  14.526   6.710   4.039 -0.1718  0.1254  0.1976
31219W        W37669  18.477   2.437   3.003 -0.0209  0.1529 -0.0758
31220W        W37670  25.593   1.217   5.302  0.1624 -0.1541  0.0569
31221W        W37671   4.875   5.088  21.404  0.1479  0.1092 -0.0669
31222W        W37672  15.379   0.035  18.582  0.0074  0.1540  0.2421
31223W        W37673  13.308   1.503  23.833  0.0246 -0.1262  0.2508
31224W        W37674   6.401   0.184   6.420 -0.0526 -0.0919  0.1540
31225W        W37675  16.760   3.876  21.491  0.0566 -0.2362 -0.1305
31226W        W37676  16.048   2.610  10.149  0.0453 -0.3085 -0.0450
31227W        W37677  23.230   4.566   8.812  0.0428  0.4470 -0.0199
31228W        W37678   7.676   0.217  21.248  0.0307 -0.2150  0.2114
31229W        W37679   4.720   7.475  17.941 -0.0674 -0.2231 -0.4674
31230W        W37680  28.800   2.524  22.312 -0.1983 -0.1000 -0.2783
31231W        W37681  12.311   4.321  16.303 -0.0470  0.2427  0.2500
31232W        W37682  11.361   2.088  19.127 -0.0374  0.2280  0.0448
31233W        W37683   7.375   0.989   2.680 -0.0197 -0.0363 -0.2009
31234W        W37684  27.639   3.621  10.480  0.0247  0.1094  0.1474
31235W        W37685   6.513   3.997  21.505  0.1831  0.3269  0.1436
31236W        W37686  19.780   2.294  23.420 -0.0674 -0.0181 -0.2076
31237W        W37687  28.579   4.975   4.103 -0.1022 -0.1065  0.1828
31238W        W37688  12.258   2.575  11.403 -0.0678 -0.0178  0.0337
31239W        W37689   0.492   1.678  15.918 -0.0422  0.2057  0.1353
31240W        W37690  21.133   6.835   9.379 -0.3144 -0.1800  0.1160
31241W        W37691  21.802   5.290  10.362  0.3184  0.1478 -0.1062
31242W        W37692   5.827   7.553  19.174 -0.0693 -0.1646 -0.0400
31243W        W37693  11.583   2.223   5.662  0.0436 -0.0302 -0.0146
31244W        W37694  12.989   5.112  23.734  0.1432  0.1265 -0.3706
31245W        W37695   2.874   5.713   8.479 -0.1208  0.2159 -0.2222
31246W        W37696   3.768   6.326   7.589  0.0983 -0.3081 -0.1478
31247W        W37697  26.139   7.167  11.496 -0.0413 -0.1200 -0.0330
31248W        W37698  15.724   0.862  15.824  0.1236 -0.2015 -0.0940
31249W        W37699  27.575   2.505  25.727  0.0318  0.2419 -0.0470
31250W        W37700  13.911   5.063   9.863  0.3309  0.1911  0.0501
31251W        W37701  26.025   2.399   9.525  0.0494  0.0022  0.0921
31252W        W37702  20.856   1.129   4.077  0.1430 -0.3125 -0.2891
31253W        W37703   0.530   0.893  23.227  0.1060 -0.1638  0.1192
31254W        W37704  25.337   4.256  18.900 -0.1952 -0.0137  0.0047
31255W        W37705   7.145   6.180  19.849  0.2710  0.0579  0.0303
31256W        W37706  26.676   2.365  17.510 -0.1003  0.1098  0.3889
31257W        W37707   0.884   6.897   7.860 -0.1918 -0.2401  0.0717
31258W        W37708  23.715   6.234  10.829  0.2760  0.0576  0.1058
31259W        W37709   2.110   2.289  14.642 -0.0590  0.1802  0.0611
31260W        W37710  17.779   0.523   6.663  0.1690  0.0629  0.1368
31261W        W37711  10.759   3.754   2.007 -0.3717 -0.0018 -0.0789
31262W        W37712  14.845   2.833  10.059 -0.0902  0.1960 -0.2516
31263W        W37713  12.075   1.614   4.153 -0.1555  0.5328  0.4108
31264W        W37714  23.237   0.450   0.185  0.1861  0.2575  0.1883
31265W        W37715   9.979   5.897   1.847  0.0595  0.1858 -0.1729
31266W        W37716  13.837   6.040  10.232 -0.2233 -0.2429  0.2046
31267W        W37717   2.503   1.064   5.474 -0.0624 -0.1131  0.2227
31268W        W37718  20.563   6.226  23.742 -0.1615  0.4874  0.0446
31269W        W37719  12.133   6.862  22.837  0.0293  0.0386 -0.2342
31270W        W37720  20.902   3.005  23.668  0.2916  0.1475  0.5218
31271W        W37721   9.461   2.892  16.593  0.0176  0.2712 -0.0677
31272W        W37722  18.325   2.720  20.740 -0.3603  0.2801  0.2494
31273W        W37723  26.367   1.895   2.880  0.1565  0.2594  0.2520
31274W        W37724   2.465   5.385   4.787 -0.3211 -0.0591  0.2019
31275W        W37725  24.053   6.694  21.240  0.2030 -0.1872 -0.1516
31276W        W37726   7.787   0.691   6.765 -0.0359  0.1465 -0.0461
31277W        W37727   6.898   2.141   7.946  0.0765  0.1594  0.0211
31278W        W37728  30.772   4.310  17.832 -0.0182 -0.1971 -0.0555
31279W        W37729  16.827   6.178   7.519 -0.1563 -0.1772  0.0378
31280W        W37730  15.359   5.046   7.380 -0.3298 -0.0299 -0.0204
31281W        W37731  14.817   7.638  22.153  0.0726 -0.1303  0.0563
31282W        W37732  21.696   2.313   7.868  0.0075 -0.0314 -0.1552
31283W        W37733  13.939   1.211   5.319  0.1964  0.0589 -0.0109
31284W        W37734   0.187   1.769   6.737  0.0804 -0.2193  0.0060
31285W        W37735  29.896   2.349   1.096 -0.0810 -0.1546  0.0993
31286W        W37736   7.275   4.171  17.001  0.2106  0.2430  0.0741
31287W        W37737  10.260   6.931   2.488 -0.3111 -0.1441  0.0017
31288W        W37738  21.098   5.262  25.607  0.1009 -0.0936 -0.0653
31289W        W37739  10.079   0.932  15.760  0.0237  0.2202 -0.0180
31290W        W37740  19.571   7.353  10.446 -0.0037 -0.1817 -0.0115
31291W        W37741  18.958   6.272  20.742 -0.1029  0.1042 -0.3285
31292W        W37742   7.934   0.369   5.752 -0.2151  0.0315  0.1720
31293W        W37743  31.121   5.626  15.311  0.0624  0.1350  0.0028
31294W        W37744  30.218   7.514  25.540  0.0024 -0.3332  0.0503
31295W        W37745   0.049   3.972  19.972 -0.0092 -0.0954  0.2273
31296W        W37746  18.073   4.854   1.435  0.0862  0.1012 -0.2833
31297W        W37747   0.326   6.198  24.122 -0.3559 -0.0467  0.1276
31298W        W37748  23.138   5.448  15.602  0.1806  0.1537  0.3356
31299W        W37749  28.328   2.600   9.051 -0.0201  0.2087 -0.2119
31300W        W37750   5.160   4.220   3.600  0.2695  0.0253 -0.2428
31301W        W37751  12.573   2.100   9.078  0.2713 -0.1642  0.2280
31302W        W37752   2.362   5.538  24.564 -0.4052 -0.1061  0.0674
31303W        W37753  13.014   3.617   4.378 -0.0423  0.1091  0.1142
31304W        W37754  28.465   6.476   3.318 -0.1566  0.0615  0.0583
31305W        W37755   3.595   2.937   7.317 -0.0692 -0.0735 -0.0171
31306W        W37756   2.221   1.347   6.505 -0.2099  0.0897  0.2770
31307W        W37757  10.463   4.916  26.328 -0.2691  0.1555  0.1831
31308W        W37758   2.060   6.549   0.064  0.1307 -0.0433  0.1264
31309W        W37759  28.854   6.578   1.664  0.1132  0.1258 -0.3256
31310W        W37760  14.311   1.523  17.098  0.0002  0.0494 -0.1734
31311W        W37761   5.661   0.963  17.215 -0.1574 -0.1650  0.1400
31312W        W37762  28.996   7.718  18.351  0.1510 -0.0558 -0.2716
31313W        W37763  12.034   0.490   5.230  0.4934 -0.2272  0.2232
31314W        W37764  21.893   4.667  17.441 -0.0136  0.3234 -0.2313
31315W        W37765  21.342   2.154   6.600 -0.0105 -0.0094  0.2460
31316W        W37766   3.196   0.903  23.332 -0.0589 -0.1315 -0.0551
31317W        W37767   6.968   0.573   5.090  0.2762 -0.2410 -0.0607
31318W        W37768  28.459   5.664  19.431  0.1451 -0.1055  0.2098
31319W        W37769   9.753   5.487  17.461  0.1139  0.0279  0.0412
31320W        W37770   7.804   2.230  26.157  0.1885  0.3260 -0.0401
31321W        W37771  13.252   3.625  10.379 -0.0252 -0.1535  0.0895
31322W        W37772  30.405   3.593   6.399 -0.4818 -0.0603  0.1164
31323W        W37773   0.844   6.480   0.520 -0.0395 -0.1225 -0.0725
31324W        W37774  23.845   2.598  17.411 -0.1709 -0.0255 -0.3638
31325W        W37775  13.488   0.259   8.812 -0.0471 -0.0755 -0.0935
31326W        W37776   6.623   2.165  24.689  0.1294  0.0245 -0.4840
31327W        W37777   9.497   7.297  18.552  0.1195 -0.2321 -0.3914
31328W        W37778  13.279   3.344  21.013  0.5677 -0.2046 -0.0668
31329W        W37779  27.415   3.144  16.042 -0.2985 -0.1820 -0.2218
31330W        W37780  29.704   7.054  17.871 -0.0911  0.0372 -0.1032
31331W        W37781   4.994   2.044  22.444  0.2653 -0.0443 -0.0025
31332W        W37782  29.083   3.485  16.640 -0.0623  0.1310 -0.2445
31333W        W37783  29.686   3.811  19.854  0.0729  0.1649  0.1929
31334W        W37784  28.460   3.939  10.674 -0.0374  0.2027 -0.0433
31335W        W37785   6.077   3.657   7.393  0.3099 -0.1592 -0.0530
31336W        W37786   5.507   4.610   5.559 -0.1566 -0.2009 -0.0299
31337W        W37787  11.310   7.376  23.553  0.1455 -0.2707 -0.1410
31338W        W37788  25.995   5.268   6.360 -0.1678  0.1854 -0.0517
31339W        W37789  25.793   6.784  17.445  0.2153 -0.1614  0.1455
31340W        W37790   7.143   5.154   2.656  0.0327  0.0785  0.2148
31341W        W37791  18.780   4.021   5.374 -0.0712 -0.3321  0.2040
31342W        W37792   1.765   5.439   6.269 -0.2689 -0.1639  0.3797
31343W        W37793  14.657   3.826  10.382  0.2974 -0.0445 -0.1878
31344W        W37794   3.323   5.643   8.172 -0.0682  0.3731  0.0042
31345W        W37795  30.847   0.343  18.748  0.1467 -0.1215 -0.0883
31346W        W37796  11.567   4.456  24.419 -0.1633 -0.2576  0.1606
31347W        W37797  17.526   4.128  25.806 -0.1267 -0.2127 -0.2943
31348W        W37798  25.621   5.477  20.172  0.1299  0.4268 -0.0478
31349W        W37799  17.591   2.006   4.201 -0.4463  0.1055  0.1842
31350W        W37800  14.146   1.024  19.412 -0.1764 -0.0883  0.2732
31351W        W37801  20.514   4.202  17.642 -0.2539  0.2984  0.1845
31352W        W37802  13.877   0.772  17.840 -0.2137  0.0064 -0.0565
31353W        W37803  25.485   3.291   6.922 -0.1063  0.0751  0.2002
31354W        W37804  10.578   0.989  21.476  0.1732 -0.0069 -0.0832
31355W        W37805  22.464   6.365  19.617  0.1299 -0.3976 -0.3355
31356W        W37806  17.481   4.611   4.143  0.1850 -0.0962 -0.1693
31357W        W37807   7.738   0.159  15.138 -0.0263 -0.2867 -0.0771
31358W        W37808  26.485   6.938  17.773 -0.0891 -0.0450  0.0436
31359W        W37809  23.556   5.599  18.806 -0.0653 -0.2614  0.0020
31360W        W37810   1.246   3.555  18.080  0.3454 -0.0431  0.2451
31361W        W37811  11.379   7.639  21.326 -0.1414 -0.0929  0.1072
31362W        W37812  27.164   1.337   2.513 -0.1171 -0.1402  0.0784
31363W        W37813  16.300   3.225  14.886 -0.1744  0.1904  0.0797
31364W        W37814   7.235   7.318  18.438 -0.0512 -0.1932  0.2021
31365W        W37815   8.253   5.785  10.392 -0.0978  0.1290  0.1522
31366W        W37816  16.003   3.090  17.135  0.2411  0.0830 -0.2495
31367W        W37817   1.015   2.006  19.331  0.0964 -0.0905 -0.2337
31368W        W37818  29.534   2.347   7.914  0.0501 -0.0282  0.1302
31369W        W37819  14.653   5.992  18.514 -0.0366  0.0612 -0.1375
31370W        W37820  26.750   4.349  15.789 -0.1274 -0.2796 -0.0549
31371W        W37821  19.405   1.311  20.030  0.0271  0.2170  0.0151
31372W        W37822  23.956   0.805  24.001 -0.2807 -0.0601  0.1643
31373W        W37823   6.333   7.451   0.991  0.1296  0.0332 -0.0346
31374W        W37824   2.445   2.389  24.223 -0.2926  0.0072 -0.0964
31375W        W37825  10.012   1.927   2.613  0.1106 -0.1456  0.3111
31376W        W37826   6.098   0.060  17.894  0.4100 -0.1639 -0.2558
31377W        W37827  29.021   6.965  16.430 -0.0960 -0.1621 -0.1585
31378W        W37828  18.074   2.031  21.824  0.1972 -0.1135  0.0258
31379W        W37829  10.679   6.707   1.013 -0.2621 -0.1006 -0.0631
31380W        W37830  20.245   7.163   4.047 -0.0131 -0.1780  0.0208
31381W        W37831  13.164   6.983   6.955  0.3183  0.2279  0.1524
31382W        W37832  25.714   3.174  24.756 -0.3752 -0.0034  0.0720
31383W        W37833  16.378   0.923   3.436 -0.1368 -0.0352 -0.3749
31384W        W37834  22.884   1.741  15.792 -0.1108 -0.0522  0.0612
31385W        W37835  23.569   7.040  21.942 -0.0844 -0.3837 -0.0616
31386W        W37836   6.209   0.438   4.207  0.3094 -0.1627 -0.2222
31387W        W37837  19.114   4.592   2.580 -0.0299  0.4341 -0.2215
31388W        W37838   3.482   2.708   8.734  0.0162 -0.0384 -0.2021
31389W        W37839  24.992   1.872  15.748 -0.0307  0.1250  0.1209
31390W        W37840  16.007   5.950  20.862  0.1358 -0.0569  0.1147
31391W        W37841  18.046   6.182  11.031  0.1054 -0.1633 -0.1445
31392W        W37842  26.566   3.461  18.085 -0.1380  0.1040  0.1395
31393W        W37843  21.707   4.175  24.857 -0.3020  0.1610  0.1520
31394W        W37844  12.444   7.325  15.344  0.1576 -0.4513  0.3593
31395W        W37845  26.100   7.225   1.680  0.1071  0.1258  0.2293
31396W        W37846  26.975   2.511   9.417  0.1337 -0.2417 -0.0005
31397W        W37847  11.158   0.237  18.840 -0.1820  0.1454 -0.0333
31398W        W37848  22.576   5.901  24.792  0.0154 -0.2228 -0.0705
31399W        W37849   3.087   0.183   0.186 -0.0662 -0.0831  0.1176
31400W        W37850  18.247   2.185  10.519 -0.2001  0.0423 -0.3010
31401W        W37851  22.322   0.109   5.334 -0.0419 -0.3151  0.0916
31402W        W37852   2.395   5.744  22.442 -0.0978 -0.1102  0.3048
31403W        W37853   8.816   2.147  10.981 -0.1483  0.2342 -0.1072
31404W        W37854   1.770   6.041   7.389 -0.3253  0.1661 -0.3973
31405W        W37855  29.603   1.079   8.452  0.1386 -0.1103 -0.1808
31406W        W37856   4.330   7.155  15.348  0.0594  0.1519  0.0961
31407W        W37857  27.168   5.252   6.352  0.1257 -0.0705  0.1271
31408W        W37858  30.684   1.128  18.063  0.0920  0.1486  0.0320
31409W        W37859  16.107   2.700  16.225  0.0139 -0.1844 -0.2584
31410W        W37860   3.950   2.858   5.833  0.0802 -0.0679  0.0780
31411W        W37861   9.888   4.102  22.963 -0.1216 -0.0177 -0.1616
31412W        W37862   6.886   3.764  19.900  0.0230  0.0410 -0.0620
31413W        W37863   5.836   5.594  15.883 -0.0404 -0.0594 -0.0141
31414W        W37864   2.000   0.798  17.390 -0.0464 -0.0347 -0.0071
31415W        W37865  17.680   5.631   9.086  0.0409  0.0937  0.0792
31416W        W37866  11.991   2.410  26.379 -0.0039  0.3280 -0.3263
31417W        W37867  21.099   5.124  21.703  0.1041 -0.0643  0.0856
31418W        W37868  27.312   6.606  16.602 -0.0968 -0.2730  0.0852
31419W        W37869  13.421   6.277   3.318 -0.0737  0.0385 -0.0688
31420W        W37870   1.660   4.627   2.648 -0.2807  0.1285  0.2660
31421W        W37871  27.060   5.219   0.721 -0.1685 -0.0741  0.0761
31422W        W37872  16.639   4.058   2.574  0.0463  0.1178  0.1543
31423W        W37873  27.190   7.202  17.221  0.2554  0.0200 -0.2619
31424W        W37874  15.850   1.799  22.829  0.0829 -0.1336  0.2850
31425W        W37875  22.935   4.517  16.655  0.2414  0.1841  0.1134
31426W        W37876   6.604   6.728   4.623 -0.0807 -0.2629 -0.1161
31427W        W37877  11.613   4.701  23.574  0.0697  0.0463  0.0904
31428W        W37878  25.307   0.622  15.850 -0.0298 -0.0849  0.2063
31429W        W37879  25.277   1.531  23.335  0.1708  0.1042 -0.0508
31430W        W37880  18.921   0.463  22.087 -0.0579  0.1355  0.0947
31431W        W37881  28.407   3.084   8.390  0.0370 -0.3049 -0.0361
31432W        W37882  12.051   6.545   9.123  0.2556 -0.0910  0.2391
31433W        W37883   9.578   6.629   0.591  0.0754 -0.0164  0.3109
31434W        W37884  20.845   4.421  15.265 -0.1313  0.1820  0.2568
31435W        W37885  11.224   0.581  22.030  0.1207 -0.1134 -0.0855
31436W        W37886   9.977   3.058  20.124 -0.0395 -0.0712 -0.0903
31437W        W37887  28.375   6.239  20.332 -0.0757 -0.1212  0.2445
31438W        W37888   3.003   1.544  26.126 -0.0308  0.1690  0.1547
31439W        W37889   2.054   6.024   1.574  0.1468  0.0513 -0.0821
31440W        W37890  25.647   2.075  15.946 -0.0110 -0.0588 -0.0043
31441W        W37891  28.048   0.400   2.445 -0.1873 -0.2872  0.1880
31442W        W37892  26.418   5.099   9.574  0.1524  0.3449  0.1272
31443W        W37893   3.224   4.979   6.485 -0.0091  0.0250 -0.3013
31444W        W37894  25.076   0.057   7.268 -0.1923  0.1070 -0.2088
31445W        W37895  28.263   4.405   6.674 -0.0706 -0.1402  0.1748
31446W        W37896   3.430   2.664  22.048 -0.0850 -0.0677  0.2046
31447W        W37897  11.323   0.154  23.447  0.1145 -0.1072 -0.2043
31448W        W37898  10.956   5.083  20.013 -0.0114 -0.2435 -0.1193
31449W        W37899   0.913   7.062  17.022 -0.0549 -0.1460  0.2077
31450W        W37900  26.141   6.116  24.979 -0.3766  0.0647 -0.2887
31451W        W37901  28.086   3.923   4.894 -0.1069 -0.0880 -0.0873
31452W        W37902   1.853   1.165  15.402 -0.1785  0.2090  0.2450
31453W        W37903  12.716   6.262  22.499 -0.1543 -0.0558 -0.0490
31454W        W37904   2.342   6.348  21.204  0.6011  0.1457 -0.1071
31455W        W37905   1.474   7.332  24.849 -0.2104  0.2818  0.0367
31456W        W37906   9.572   6.400  20.745 -0.0518  0.3563 -0.1156
31457W        W37907  11.939   4.400  18.750 -0.0371  0.0064  0.0285
31458W        W37908   2.051   6.582  22.291  0.0756  0.2620  0.2116
31459W        W37909  29.736   4.242   5.125  0.2516 -0.3196 -0.0689
31460W        W37910   0.998   7.068  14.973  0.0825  0.0716  0.2532
31461W        W37911  29.972   7.176  18.379  0.3148 -0.0532 -0.2081
31462W        W37912  28.572   4.520   1.221  0.0471 -0.0065  0.0738
31463W        W37913  27.323   5.989   2.359 -0.1357  0.1206 -0.1236
31464W        W37914  16.522   1.710  22.703  0.1231 -0.0260  0.4692
31465W        W37915  13.162   2.733  18.972 -0.1065 -0.2113  0.3537
31466W        W37916   3.679   2.880   9.321  0.0799 -0.3201  0.1027
31467W        W37917  12.286   1.520   6.814  0.0958 -0.1579 -0.1347
31468W        W37918   0.963   2.431   9.568  0.1957 -0.1921  0.1074
31469W        W37919  16.941   1.411   7.081 -0.3028 -0.1446  0.1982
31470W        W37920  17.883   5.708  21.877 -0.2626  0.0954  0.2262
31471W        W37921  21.055   0.318  18.296  0.1728  0.1006  0.0321
31472W        W37922  21.544   2.372   2.199 -0.1353 -0.1118 -0.0432
31473W        W37923  31.008   7.078   1.190 -0.1003  0.0840 -0.2569
31474W        W37924  11.147   4.696   7.254  0.1237 -0.2771  0.1737
31475W        W37925  27.345   6.809  20.530  0.0723  0.2395 -0.2503
31476W        W37926  14.705   4.643  24.138 -0.1670 -0.0910  0.0060
31477W        W37927  28.830   3.763   5.162 -0.0924 -0.0200 -0.1027
31478W        W37928   6.395   2.567  16.183 -0.2358  0.0236  0.3122
31479W        W37929  15.792   4.219  25.599  0.0924  0.0792 -0.2711
31480W        W37930  23.427   1.134   1.915 -0.0865 -0.1359 -0.0442
31481W        W37931   4.836   2.824  22.775  0.1288  0.5046  0.0420
31482W        W37932  11.721   2.462   3.765 -0.1885  0.0477 -0.2196
31483W        W37933  19.442   3.115  16.203 -0.1005  0.0992 -0.0054
31484W        W37934   5.931   2.928   5.011 -0.3339  0.1375  0.0900
31485W        W37935  17.143   1.859   0.997  0.0643  0.0012 -0.0701
31486W        W37936  27.226   6.606   5.836  0.1708  0.0085  0.1599
31487W        W37937  19.003   4.420  17.293 -0.0949  0.4392 -0.1869
31488W        W37938   2.706   7.412  23.989  0.3393 -0.2180 -0.2078
31489W        W37939  16.120   4.795   7.288  0.0404  0.2525  0.3014
31490W        W37940  16.746   3.549   2.532 -0.0221 -0.0807 -0.1878
31491W        W37941  13.485   6.937   0.199  0.0166  0.1842 -0.1006
31492W        W37942   8.579   4.668  21.030 -0.0548  0.1919 -0.2974
31493W        W37943   0.496   6.798  10.084 -0.0273 -0.0721 -0.2838
31494W        W37944  22.063   4.914  10.270  0.1350  0.1537  0.0583
31495W        W37945  25.624   4.689  20.914 -0.2830  0.0340  0.1914
31496W        W37946  11.691   6.817  22.010 -0.0242  0.0514 -0.0281
31497W        W37947  29.430   5.441  26.061 -0.2681  0.0690  0.0003
31498W        W37948  17.860   4.730   5.020  0.0930  0.0562  0.3104
31499W        W37949  24.153   1.987  17.813  0.1294 -0.1911  0.0499
31500W        W37950  26.209   4.659  18.963  0.0591 -0.1773 -0.0427
31501W        W37951   3.989   6.236   8.346 -0.0206 -0.0259 -0.1248
31502W        W37952   9.829   6.184   8.245 -0.3738  0.0204 -0.0012
31503W        W37953   7.349   7.719  16.475  0.0537 -0.1121 -0.0091
31504W        W37954  29.823   5.076   1.889  0.1792 -0.3381 -0.1269
31505W        W37955  28.229   7.714  21.608 -0.1162 -0.1764  0.1756
31506W        W37956  10.350   4.123  26.149 -0.1337 -0.2884 -0.2503
31507W        W37957   5.143   6.628   1.572  0.0794 -0.0957 -0.0001
31508W        W37958   4.445   5.645  25.631 -0.0293  0.0967 -0.1712
31509W        W37959   7.922   7.194  14.944 -0.0974  0.0945 -0.0688
31510W        W37960  20.852   2.637   5.975 -0.4644 -0.0198 -0.1191
31511W        W37961   8.960   3.155   4.433 -0.0558  0.0089 -0.3409
31512W        W37962   3.848   2.074   7.081 -0.1475 -0.2119  0.0050
31513W        W37963  11.087   7.048   2.279  0.0027  0.0373  0.2433
31514W        W37964  15.586   6.187  23.798  0.0899  0.0549 -0.1599
31515W        W37965   1.158   2.692   2.480 -0.0542 -0.1092 -0.0034
31516W        W37966   6.889   6.574   6.329  0.2458  0.0342 -0.1873
31517W        W37967   4.281   6.796  20.924  0.4880  0.1064  0.2748
31518W        W37968   0.773   3.315   3.503 -0.1603 -0.0090  0.0976
31519W        W37969  19.803   7.163  22.860 -0.1799 -0.1614 -0.1660
31520W        W37970  16.212   6.522  23.446 -0.0772  0.1470 -0.0788
31521W        W37971  14.590   6.739  21.863 -0.0802 -0.0341  0.0611
31522W        W37972  13.939   1.404  24.652 -0.3475 -0.0140 -0.1761
31523W        W37973  29.891   5.015  18.183 -0.0141  0.1677 -0.1371
31524W        W37974  21.852   5.011  15.073 -0.1582  0.0969  0.1746
31525W        W37975   0.652   2.576   9.940 -0.0478 -0.1355 -0.1777
31526W        W37976   8.897   5.793  24.586  0.1486  0.1010  0.0915
31527W        W37977  26.403   3.236   9.340 -0.0612 -0.0761  0.2377
31528W        W37978   5.303   2.219   1.662 -0.1697 -0.0760 -0.1296
31529W        W37979  14.246   5.572  10.383  0.0631  0.1321  0.1847
31530W        W37980  28.909   7.491   1.994 -0.2599  0.2301 -0.0685
31531W        W37981  18.239   0.845  16.296 -0.1815 -0.0881 -0.1220
31532W        W37982   0.496   0.787  16.120  0.0328  0.0035 -0.1688
31533W        W37983  27.357   1.165   7.334  0.2512 -0.1021 -0.2081
31534W        W37984   1.419   4.103   3.540 -0.1935 -0.0342 -0.0346
31535W        W37985   6.418   4.484   3.609 -0.0223 -0.0313  0.0795
31536W        W37986  22.737   1.092  15.207  0.2781 -0.0916  0.1832
31537W        W37987  16.359   5.525   8.620  0.3549  0.1185  0.1828
31538W        W37988   7.301   0.937  23.702 -0.2213  0.2816 -0.2265
31539W        W37989  26.709   5.611  15.388  0.0809  0.0962  0.2783
31540W        W37990  23.850   4.232  24.919 -0.1301  0.1077  0.2385
31541W        W37991   3.982   0.313   5.686  0.0498 -0.0654  0.0643
31542W        W37992  16.029   3.183   7.824  0.0538  0.1611 -0.1212
31543W        W37993   1.998   4.929  19.992 -0.2186 -0.3271  0.1953
31544W        W37994   0.391   2.995  23.958  0.0731 -0.0526  0.0454
31545W        W37995   5.302   3.460  15.975  0.1355  0.0913  0.2578
31546W        W37996  12.096   1.145  26.163 -0.0835 -0.0637  0.0452
31547W        W37997   0.224   5.945  18.400 -0.1502  0.1991 -0.0469
31548W        W37998  30.736   7.231   6.135 -0.0134  0.2468  0.0164
31549W        W37999   7.877   0.183   2.633  0.0302 -0.2992 -0.1675
31550W        W38000  13.442   1.281   8.684  0.0607 -0.0323  0.0220
31551W        W38001  22.547   0.652  21.754  0.0673 -0.0551 -0.1106
31552W        W38002  22.255   1.268  21.399 -0.0479 -0.0486 -0.0901
31553W        W38003  23.008   6.546   6.510 -0.0325 -0.2225 -0.0354
31554W        W38004   3.678   5.408  25.370  0.0397  0.0270  0.1969
31555W        W38005   0.009   0.749   9.765 -0.1016  0.2999 -0.2354
31556W        W38006   2.505   3.292  20.282  0.1277 -0.0078  0.1708
31557W        W38007  29.258   6.214  19.916  0.3533  0.2516 -0.1366
31558W        W38008  10.735   4.487  26.280  0.0500  0.0002 -0.0578
31559W        W38009   6.437   3.134   0.983  0.1434 -0.0735 -0.2554
31560W        W38010  30.701   1.976  22.181  0.0916 -0.0103 -0.0479
31561W        W38011  12.997   2.237   9.396  0.0144 -0.0378  0.3385
31562W        W38012  17.284   0.550   6.750  0.2879 -0.4540  0.4061
31563W        W38013  17.991   7.235  23.691  0.1979 -0.0919 -0.3023
31564W        W38014  19.764   2.159  23.962 -0.0446  0.0432  0.1532
31565W        W38015  10.342   5.207  10.427 -0.4072 -0.1407 -0.1408
31566W        W38016  13.327   2.824   9.841 -0.1431 -0.0657 -0.0207
31567W        W38017  25.397   2.310  18.943  0.0498  0.2314  0.0198
31568W        W38018  15.009   7.470  16.790  0.1845 -0.1612 -0.3591
31569W        W38019   3.689   1.361   3.477 -0.1080  0.0936  0.2129
31570W        W38020  17.995   2.153  20.680 -0.1263  0.1677  0.3616
31571W        W38021  25.095   5.475   7.541 -0.0491 -0.1032  0.1337
31572W        W38022  25.950   0.046   6.868  0.1926  0.1211  0.1889
31573W        W38023  19.637   2.393   6.963 -0.0566  0.1368  0.1024
31574W        W38024   8.228   7.242   5.230  0.1246 -0.0060  0.1155
31575W        W38025   4.171   5.530   1.162 -0.0912 -0.0560 -0.3739
31576W        W38026   1.129   3.524   6.621  0.2616 -0.2534 -0.2093
31577W        W38027   1.970   1.664  24.619 -0.0651  0.0754 -0.1134
31578W        W38028  25.349   2.581   1.583 -0.2170 -0.0857 -0.2025
31579W        W38029  14.120   2.766  15.456 -0.0929  0.1191  0.1817
31580W        W38030  11.456   2.361  15.724  0.0593 -0.0254 -0.0097
31581W        W38031   8.242   7.025   3.280  0.1934 -0.2126  0.1152
31582W        W38032   3.036   4.111   9.835  0.1048 -0.3666  0.0359
31583W        W38033   8.002   3.182   7.897  0.0923  0.2427 -0.1239
31584W        W38034  12.974   3.895   9.906 -0.1092 -0.1886 -0.2668
31585W        W38035   9.164   0.244   6.759 -0.0695  0.1224  0.1737
31586W        W38036   0.915   7.378  22.064  0.2253 -0.1981 -0.0349
31587W        W38037   0.646   4.211   7.046 -0.2606 -0.1654  0.2048
31588W        W38038   2.152   5.819  23.428  0.2574  0.0202 -0.0311
31589W        W38039  15.860   2.908   5.341  0.1871 -0.0050  0.1436
31590W        W38040   6.042   6.362   6.404 -0.0276  0.0662 -0.1089
31591W        W38041   5.808   6.025   6.071  0.0474 -0.1191 -0.3288
31592W        W38042  29.251   7.317  25.094 -0.2207 -0.0483  0.1143
31593W        W38043   7.189   1.091  22.696  0.1710  0.0619  0.0750
31594W        W38044  18.952   2.696   7.906  0.1222 -0.0064 -0.0668
31595W        W38045  22.738   3.213  24.207  0.3841  0.1721  0.1767
31596W        W38046   9.976   6.242   5.153 -0.2729  0.0143 -0.2276
31597W        W38047   4.667   6.507   0.796 -0.5370 -0.3093 -0.0446
31598W        W38048  16.098   0.868  10.161 -0.0666 -0.0082  0.2077
31599W        W38049  10.108   3.689  25.338  0.4386 -0.1041 -0.3617
31600W        W38050  28.782   1.442  16.195  0.0149 -0.3404  0.1228
31601W        W38051  31.070   7.781   8.072 -0.1997 -0.2511 -0.1346
31602W        W38052  25.321   1.179   1.403 -0.0791  0.2364  0.0768
31603W        W38053  30.691   4.870  16.565 -0.3317 -0.0575 -0.0543
31604W        W38054   7.319   6.260   7.068  0.0219  0.2768 -0.0530
31605W        W38055  16.146   2.321  21.503  0.2732 -0.2314 -0.2486
31606W        W38056   4.308   2.748   3.579 -0.1351  0.2665  0.2604
31607W        W38057  27.133   1.709  21.992  0.1132  0.0585 -0.0303
31608W        W38058  26.961   1.786   4.096 -0.0438 -0.0565  0.0857
31609W        W38059  16.266   2.253  17.121  0.1660 -0.1566  0.2735
31610W        W38060   9.501   6.728  26.376  0.0070  0.0253 -0.3999
31611W        W38061  23.580   6.104   5.785  0.1942 -0.1867 -0.0753
31612W        W38062  22.902   1.892   4.552  0.0153  0.0203 -0.3005
31613W        W38063   6.663   1.763   8.883  0.1096 -0.0998 -0.0455
31614W        W38064   4.525   3.478  19.704 -0.1860  0.1164 -0.0915
31615W        W38065  27.753   4.391  20.975 -0.1419  0.0546 -0.0587
31616W        W38066  17.429   4.368   8.610  0.0257  0.3413 -0.3106
31617W        W38067   9.920   7.581  18.517 -0.2668  0.1092  0.2132
31618W        W38068  16.733   4.062  24.208 -0.0456 -0.2478  0.1164
31619W        W38069   4.976   1.621  17.525 -0.2081  0.4098 -0.0970
31620W        W38070  28.667   2.081   4.413  0.1407  0.0247 -0.2353
31621W        W38071  30.609   4.439   8.065 -0.2833 -0.0089  0.0993
31622W        W38072  27.740   0.101  11.422  0.1111 -0.1803  0.2633
31623W        W38073   8.284   7.321  22.680 -0.2553 -0.1177  0.1444
31624W        W38074  26.720   3.971  19.062  0.0782 -0.0500 -0.2948
31625W        W38075   1.921   5.973   3.688 -0.1903  0.1834 -0.1056
31626W        W38076  19.587   2.068   8.204  0.0914  0.0626  0.1893
31627W        W38077   1.665   1.936  17.740 -0.1581  0.2199 -0.0393
31628W        W38078   8.085   4.743   0.979 -0.0577  0.3528 -0.0467
31629W        W38079   3.181   7.088   3.736  0.1909 -0.1337  0.1146
31630W        W38080  29.772   1.276   2.390  0.0294  0.2188 -0.0840
31631W        W38081  24.543   3.975   4.925  0.1018 -0.1884 -0.2722
31632W        W38082  29.476   2.987   3.767 -0.2012  0.3206 -0.1037
31633W        W38083  12.095   4.229  18.182  0.2393  0.2327 -0.0951
31634W        W38084  13.094   6.291   2.532  0.2161 -0.1577  0.1156
31635W        W38085  28.999   4.077  24.066 -0.3447  0.1154 -0.0892
31636W        W38086  30.781   3.882  21.360 -0.0923 -0.0055 -0.2818
31637W        W38087  11.281   7.032  21.757  0.3779 -0.1218 -0.0596
31638W        W38088  23.193   5.245  21.807  0.1755  0.2818  0.1022
31639W        W38089  15.393   2.790   5.591 -0.0581 -0.0383 -0.0213
31640W        W38090  29.877   4.285  23.082 -0.0931 -0.0571  0.1509
31641W        W38091  28.089   0.911   0.180 -0.0165 -0.0523 -0.0853
31642W        W38092  19.364   2.731  20.441 -0.2155 -0.3017 -0.1313
31643W        W38093  21.650   5.378  24.911 -0.2073 -0.1929  0.0449
31644W        W38094  29.979   0.845   2.197 -0.0815  0.0844  0.0361
31645W        W38095  13.485   1.202  17.389 -0.2084  0.1056  0.3117
31646W        W38096  27.799   1.776   5.501 -0.1463 -0.1405  0.2728
31647W        W38097  25.951   2.782   7.720 -0.0457  0.2322  0.3278
31648W        W38098  23.123   3.010  11.151  0.0856 -0.2344  0.1917
31649W        W38099  31.120   4.380  15.777  0.2476 -0.0344  0.4827
31650W        W38100   4.233   5.298  16.319  0.1100  0.1788  0.0246
31651W        W38101   2.774   4.522   1.522 -0.0950  0.0108  0.2641
31652W        W38102   8.976   4.775   7.074 -0.4060  0.0254 -0.2474
31653W        W38103  26.127   4.662  22.341  0.0266 -0.0796 -0.2625
31654W        W38104  15.883   1.018   7.908 -0.0495 -0.1910  0.1159
31655W        W38105  27.524   1.247  18.203  0.1810 -0.1260 -0.3174
31656W        W38106  14.891   4.390  10.391 -0.0611 -0.2658 -0.1532
31657W        W38107  22.406   0.970  24.865 -0.0700  0.2541 -0.0167
31658W        W38108   8.536   5.106  15.026 -0.0289 -0.1562 -0.0859
31659W        W38109  11.023   4.119   7.367 -0.0401  0.0573 -0.0065
31660W        W38110   5.313   2.925  21.919  0.1999  0.1327  0.1033
31661W        W38111  17.714   5.435  25.712  0.2790  0.0774  0.1265
31662W        W38112  12.738   0.823   3.427  0.0953  0.3453 -0.5240
31663W        W38113  13.114   2.029   4.659  0.1038 -0.0549  0.1255
31664W        W38114   6.340   4.555   2.963 -0.0507 -0.0052  0.0445
31665W        W38115  19.343   3.625   3.818 -0.1004  0.1070  0.1927
31666W        W38116  11.779   0.877   1.723  0.2058 -0.1099 -0.1449
31667W        W38117   8.870   1.726   2.119  0.0226  0.0814  0.3389
31668W        W38118  16.966   6.660   3.062 -0.2204 -0.0398  0.2169
31669W        W38119   2.991   3.746   4.224 -0.0640  0.0900  0.1212
31670W        W38120   8.988   5.913   9.585  0.0733  0.0133  0.0534
31671W        W38121   8.068   3.601  26.396 -0.0680 -0.1435  0.1578
31672W        W38122  17.896   3.889   3.716 -0.1355 -0.0370 -0.0452
31673W        W38123  18.708   4.304   8.910  0.1261  0.2907 -0.2687
31674W        W38124   0.179   2.117  15.741  0.0306  0.1882  0.0873
31675W        W38125  25.546   6.558  11.491  0.1532  0.0925  0.1239
31676W        W38126   6.773   6.039  25.755 -0.1357 -0.0796  0.2041
31677W        W38127  25.743   7.745   9.580 -0.1735  0.0762 -0.2911
31678W        W38128  19.947   1.191   6.708  0.1100 -0.3596 -0.1334
31679W        W38129  22.016   4.809   3.049  0.0712 -0.0634  0.0645
31680W        W38130  28.032   3.451  18.515  0.1241  0.0002 -0.1215
31681W        W38131  24.719   1.886   9.457  0.0799  0.1407  0.0979
31682W        W38132  16.708   7.120   0.798  0.0809 -0.1812 -0.0262
31683W        W38133  22.052   3.876  19.517  0.0302  0.2686 -0.2026
31684W        W38134  24.441   2.398   8.017  0.2805  0.0335 -0.1653
31685W        W38135  24.631   4.437  21.069  0.3364 -0.0562 -0.0800
31686W        W38136  22.829   1.450   7.574 -0.1605 -0.0052 -0.0386
31687W        W38137  16.417   6.659  21.127  0.0100  0.2131  0.0961
31688W        W38138  18.876   5.653   7.647 -0.1542 -0.0457 -0.0896
31689W        W38139  24.159   6.886  19.190  0.2516 -0.0906 -0.0565
31690W        W38140  15.608   2.112   9.948  0.0272  0.0519  0.0404
31691W        W38141  14.883   5.285  10.156 -0.0741 -0.1492 -0.0893
31692W        W38142  11.259   5.451   6.108  0.1889  0.0131 -0.0121
31693W        W38143   7.992   6.178  24.278  0.0920  0.0309 -0.1018
31694W        W38144  16.580   7.471   7.322  0.4392 -0.1873  0.0406
31695W        W38145   2.161   5.274   6.566 -0.1757 -0.1179 -0.0588
31696W        W38146  28.143   6.158   8.596  0.0205 -0.0418  0.1001
31697W        W38147  27.523   1.948  16.074  0.1877 -0.0946  0.4753
31698W        W38148   9.836   2.290  25.265  0.1458  0.0487  0.2657
31699W        W38149  12.507   1.130  22.339  0.1954  0.3361  0.0087
31700W        W38150  29.405   5.351  25.453 -0.1342  0.0328  0.0552
31701W        W38151   3.400   7.285  16.727 -0.0859 -0.1420 -0.0088
31702W        W38152  18.521   6.454  25.482  0.0538 -0.0162 -0.3323
31703W        W38153  21.939   7.477   9.851 -0.2268  0.1339  0.1864
31704W        W38154  10.140   2.846   9.569 -0.0332 -0.2323  0.1998
31705W        W38155   1.510   0.621  21.206 -0.1770 -0.0646  0.1050
31706W        W38156  11.896   7.646   2.580  0.3655 -0.0413  0.0825
31707W        W38157   3.961   2.818  15.842  0.1725 -0.2229 -0.1150
31708W        W38158  25.254   2.642  19.906 -0.0920  0.1449  0.0897
31709W        W38159  15.805   2.473   5.661 -0.0521  0.0064  0.0506
31710W        W38160   9.123   3.977  19.422  0.0536 -0.1774  0.2846
31711W        W38161  20.515   3.848   2.273 -0.0534  0.0345 -0.0762
31712W        W38162  18.901   6.471  24.421  0.3357  0.3471  0.0544
31713W        W38163  11.772   5.680  19.089  0.0863 -0.1675  0.0802
31714W        W38164  25.253   6.048   7.235 -0.0842 -0.2161 -0.1301
31715W        W38165   6.269   1.769  25.929 -0.1840  0.0682 -0.1121
31716W        W38166   2.171   6.472  22.832 -0.2029  0.1953  0.1532
31717W        W38167  21.398   7.529   2.404  0.0097 -0.2511  0.1064
31718W        W38168   8.038   4.733   4.985 -0.0272 -0.0723  0.2896
31719W        W38169  16.516   7.093   9.394  0.0537  0.0405  0.2720
31720W        W38170  27.438   0.938   7.774 -0.1447  0.0084  0.0577
31721W        W38171   6.812   2.158   5.740  0.2631  0.0683  0.1719
31722W        W38172  28.930   2.304   1.525  0.0123 -0.2011 -0.2100
31723W        W38173  10.419   6.250   0.278  0.2332 -0.0604 -0.1164
31724W        W38174  17.327   7.120  24.188  0.3724  0.0349 -0.2323
31725W        W38175  28.070   6.146  23.310  0.0678 -0.1017 -0.1516
31726W        W38176  11.356   7.362   5.731  0.2673  0.0266 -0.0989
31727W        W38177  29.210   4.525   6.223 -0.0974  0.1382  0.1074
31728W        W38178   5.927   5.549  26.157 -0.0034 -0.2723  0.1786
31729W        W38179  15.371   4.522   5.701  0.5012  0.0862  0.1969
31730W        W38180  29.023   6.574  15.573  0.0647 -0.1136  0.3128
31731W        W38181   3.966   4.994  20.040 -0.2799  0.2875 -0.0163
31732W        W38182   2.160   4.680   4.804 -0.0584  0.4112  0.0935
31733W        W38183  25.657   6.593   4.856 -0.1881  0.1442 -0.0155
31734W        W38184  14.785   1.015   3.344 -0.3734 -0.1302  0.3120
31735W        W38185  13.170   7.110  23.949  0.1916  0.2780  0.1199
31736W        W38186   1.544   6.749  16.540 -0.2661  0.1013  0.2701
31737W        W38187  12.883   2.348  17.265  0.0096 -0.3264 -0.0933
31738W        W38188   0.616   1.523   9.475  0.0563  0.0475 -0.0426
31739W        W38189   8.867   3.219   9.294  0.1922  0.4098 -0.2682
31740W        W38190  17.048   5.528  23.217 -0.2837  0.0137 -0.0834
31741W        W38191  17.466   6.438   2.490  0.4009  0.0106 -0.0915
31742W        W38192  18.199   2.718  18.119  0.3388 -0.1331  0.7694
31743W        W38193   2.441   3.801  20.661  0.2655 -0.1387  0.1137
31744W        W38194   0.790   3.914   2.725 -0.1326  0.0057  0.0124
31745W        W38195  11.567   3.843  19.857 -0.0144  0.0604  0.2007
31746W        W38196  17.057   7.595   3.919 -0.3287  0.4740  0.2889
31747W        W38197   3.729   1.667   1.615  0.2720 -0.1296  0.1646
31748W        W38198   9.442   1.159   2.601 -0.1000 -0.2421 -0.1233
31749W        W38199  10.584   1.005  10.600  0.1453  0.2448 -0.0603
31750W        W38200  12.279   2.697  21.894  0.0901 -0.0147 -0.1692
31751W        W38201   0.021   7.452   9.477  0.0278 -0.0335 -0.2908
31752W        W38202   7.006   2.447  18.135 -0.0206  0.2407 -0.0302
31753W        W38203  18.435   1.757   4.883 -0.0784  0.1954  0.1354
31754W        W38204   0.881   4.206  19.607  0.0578 -0.4390 -0.1746
31755W        W38205  29.396   6.243   6.947 -0.1398 -0.3400  0.0856
31756W        W38206  18.589   2.921  21.415  0.2431 -0.2525  0.1960
31757W        W38207  21.692   6.520  25.847  0.2518  0.4253 -0.0111
31758W        W38208  27.624   2.235   5.292 -0.2102  0.0139 -0.2164
31759W        W38209  25.686   1.264  22.646  0.1735  0.0966  0.0967
31760W        W38210   0.643   0.529  20.307 -0.3140  0.0347  0.1177
31761W        W38211  25.481   6.256  18.782  0.1290 -0.1472  0.1724
31762W        W38212   5.020   3.628   4.444  0.1926  0.0061 -0.0346
31763W        W38213  16.904   6.599   7.800  0.2157  0.1440 -0.0830
31764W        W38214   9.601   3.319  11.691 -0.0844 -0.4106 -0.0082
31765W        W38215   6.967   1.620  18.573 -0.1219 -0.1862  0.0615
31766W        W38216   4.027   1.805  17.745 -0.1876  0.0695 -0.1510
31767W        W38217  24.703   5.150   1.695 -0.0757  0.1351  0.0541
31768W        W38218  12.157   6.139  22.631  0.1710 -0.0594 -0.0590
31769W        W38219  18.611   2.106  18.187  0.0212  0.0569  0.0775
31770W        W38220   5.462   1.133  16.771 -0.1120 -0.1994 -0.2803
31771W        W38221  18.989   1.776   6.129 -0.0306 -0.3032 -0.0445
31772W        W38222   9.664   0.688  15.688 -0.0109 -0.2029  0.0300
31773W        W38223  23.993   1.913  15.941  0.0130  0.4169 -0.0295
31774W        W38224  28.412   6.248  16.821 -0.0802  0.1615  0.0680
31775W        W38225  28.645   4.389  24.322  0.0210 -0.0104 -0.0259
31776W        W38226  25.922   1.582  18.909  0.1104  0.0834  0.0594
31777W        W38227  18.167   2.028  15.307 -0.1212 -0.2052  0.0465
31778W        W38228   1.522   1.120  24.000  0.3600 -0.2054 -0.0320
31779W        W38229   5.826   5.389  24.223  0.1493 -0.2491  0.3479
31780W        W38230  11.154   3.688  24.402  0.1188  0.0895  0.4000
31781W        W38231  16.961   6.431   6.688  0.1419 -0.0076 -0.2604
31782W        W38232   8.352   1.900  22.945 -0.2218 -0.2226 -0.2547
31783W        W38233   4.420   4.453  20.964  0.3549  0.0021  0.0329
31784W        W38234  14.463   6.484   5.918  0.1041  0.2468  0.0296
31785W        W38235  12.823   0.070   1.050  0.3327  0.0263 -0.2648
31786W        W38236  30.324   4.582   0.392  0.0051  0.2886 -0.2407
31787W        W38237  18.255   5.401  23.644 -0.0035 -0.0274  0.1733
31788W        W38238  17.777   3.169  24.586 -0.3867 -0.2686 -0.2207
31789W        W38239  24.795   3.090   5.202 -0.4012 -0.0836 -0.2753
31790W        W38240   4.040   6.565   3.005 -0.1332 -0.1060  0.1484
31791W        W38241  28.453   3.193  22.356 -0.0077 -0.3840  0.1971
31792W        W38242   6.086   4.336  21.982 -0.0293  0.1718 -0.3434
31793W        W38243  19.127   6.750   3.901 -0.0492  0.1719 -0.0315
31794W        W38244   4.985   3.444   9.370 -0.0558  0.2181 -0.0062
31795W        W38245  30.902   1.805   1.994 -0.1211  0.1135  0.1408
31796W        W38246  28.032   1.483  19.625  0.1118 -0.0110 -0.0746
31797W        W38247   9.772   7.024   2.436  0.1602 -0.0395 -0.1460
31798W        W38248   5.214   0.632  23.903  0.0414  0.2488  0.0322
31799W        W38249  12.829   4.134  15.566 -0.0525 -0.1458 -0.0931
31800W        W38250   2.744   3.233   1.185 -0.0141 -0.6499  0.1268
31801W        W38251  20.661   7.314  11.583  0.1849  0.0465 -0.2428
31802W        W38252  21.453   4.392   8.575 -0.0662 -0.0464  0.1037
31803W        W38253  12.687   7.738  21.116 -0.1132  0.0802 -0.0917
31804W        W38254   8.139   2.745   9.675 -0.0981  0.2274 -0.2315
31805W        W38255   4.403   6.196   6.194 -0.0652  0.1515 -0.0724
31806W        W38256  23.662   2.332   6.314  0.0315 -0.1533 -0.1172
31807W        W38257   6.871   7.284  10.259 -0.1071  0.1070 -0.1384
31808W        W38258  24.994   2.466  16.888 -0.0621 -0.3152 -0.0262
31809W        W38259  14.355   1.185   3.563 -0.0219  0.2309 -0.0636
31810W        W38260  23.769   4.634   1.609 -0.2649  0.1803  0.0447
31811W        W38261  27.361   4.898  24.849  0.0575 -0.1285  0.0446
31812W        W38262  26.957   6.223   1.461 -0.2413 -0.1580  0.1010
31813W        W38263  15.133   6.240   2.499  0.1709 -0.2229 -0.2189
31814W        W38264  28.394   2.383  18.547 -0.1548  0.0907 -0.0876
31815W        W38265  17.781   6.958  17.118 -0.0126 -0.0128  0.1524
31816W        W38266  12.668   5.267   5.955 -0.2752  0.3736 -0.2329
31817W        W38267  12.945   3.181   5.079 -0.0571  0.0353 -0.1210
31818W        W38268   9.841   3.420  22.346  0.0144 -0.1220  0.3372
31819W        W38269  26.276   7.627   8.777 -0.1084  0.1282 -0.0496
31820W        W38270  29.123   5.463   9.211 -0.0203 -0.0304 -0.2331
31821W        W38271   7.561   1.772  22.043 -0.1851 -0.0130 -0.0553
31822W        W38272  17.434   1.532   4.118  0.0554  0.2215 -0.1007
31823W        W38273  26.483   0.112  23.934  0.1391  0.1526 -0.0802
31824W        W38274  13.897   1.833   8.124  0.2387 -0.1221 -0.1608
31825W        W38275  15.720   5.432  18.765 -0.2704  0.1723 -0.0849
31826W        W38276   6.955   3.165  21.614  0.1253  0.1494  0.0387
31827W        W38277   0.302   3.233  26.290 -0.1780 -0.0169  0.1820
31828W        W38278  12.836   2.403  20.219  0.0817 -0.4741 -0.0159
31829W        W38279   6.617   5.123  19.292 -0.1651  0.0122  0.2818
31830W        W38280  30.450   4.962  10.458  0.1749 -0.1018 -0.2642
31831W        W38281  28.934   7.319   2.558 -0.0439 -0.3042  0.2016
31832W        W38282   2.416   0.605  23.570 -0.1080 -0.0662 -0.1888
31833W        W38283   7.482   0.106   0.971 -0.0753  0.0208 -0.2844
31834W        W38284  23.828   2.429   4.851  0.1984 -0.2826 -0.1224
31835W        W38285   4.864   1.690  26.008  0.0420 -0.0024 -0.0466
31836W        W38286  10.079   3.324  20.595  0.0587 -0.0572  0.3921
31837W        W38287  26.536   3.944  19.501 -0.0757  0.1385 -0.0289
31838W        W38288  19.785   6.635   2.670 -0.1764  0.3025  0.1079
31839W        W38289  28.526   6.045   2.978 -0.0504 -0.0514 -0.2039
31840W        W38290   5.416   2.593  25.120  0.0201  0.1460  0.0288
31841W        W38291   2.207   0.585   5.433 -0.2390 -0.0629  0.2119
31842W        W38292  13.164   6.336  22.012  0.0751 -0.0729 -0.0571
31843W        W38293  11.531   1.022   4.132 -0.0826 -0.2275  0.1574
31844W        W38294  29.131   7.103  11.164  0.1403 -0.1056  0.1120
31845W        W38295  17.242   1.373   2.737 -0.0615 -0.1472 -0.1097
31846W        W38296   9.073   7.599   0.569  0.0220 -0.0973  0.0897
31847W        W38297   2.471   3.849  14.853 -0.0073  0.0676  0.0822
31848W        W38298   1.262   1.682   3.655 -0.0626  0.0394  0.0292
31849W        W38299  15.475   1.131  25.483  0.0202  0.1115 -0.0196
31850W        W38300  21.431   4.377   4.873  0.0317 -0.1184  0.1993
31851W        W38301   9.195   6.992   3.592 -0.0422  0.3178  0.2052
31852W        W38302  28.496   7.798  19.760 -0.1676 -0.0138 -0.2266
31853W        W38303  23.323   7.587  10.439 -0.1809  0.0793 -0.1536
31854W        W38304  21.580   6.397   3.894  0.0749 -0.4343  0.1345
31855W        W38305   3.092   4.921  17.755 -0.1269  0.1252 -0.2090
31856W        W38306  24.017   4.801  24.108 -0.2287 -0.0436 -0.2184
31857W        W38307  29.695   3.680  20.636  0.0687 -0.0651 -0.0740
31858W        W38308  19.019   0.800   7.557 -0.2491  0.2050  0.1356
31859W        W38309  23.233   5.449   7.169 -0.1761 -0.0110 -0.2759
31860W        W38310   6.251   4.736   7.926  0.0115 -0.0952 -0.1813
31861W        W38311  16.197   5.625   1.421 -0.1023  0.3540  0.0988
31862W        W38312  10.248   6.190  18.719  0.2884  0.1855 -0.0183
31863W        W38313   2.670   1.764  17.245 -0.1636 -0.2218 -0.5107
31864W        W38314  15.850   7.735   4.718  0.0537  0.0505  0.0213
31865W        W38315  20.106   2.206  19.895 -0.2714 -0.0607  0.1060
31866W        W38316  23.871   2.036   1.884  0.2628 -0.2696 -0.0487
31867W        W38317  29.670   7.041  19.785 -0.0247 -0.1413  0.1842
31868W        W38318  16.656   4.990  24.169  0.0355 -0.1906  0.2437
31869W        W38319  14.743   2.576  10.876 -0.3028  0.5238  0.0628
31870W        W38320   4.486   1.903  22.551 -0.2708  0.0221 -0.2236
31871W        W38321  13.618   1.544   9.097  0.0668  0.1683 -0.3553
31872W        W38322  10.326   3.109   1.677 -0.0281  0.4190  0.0753
31873W        W38323   0.974   4.615   0.199  0.0779 -0.0559  0.1745
31874W        W38324  27.299   4.714  25.863 -0.3155  0.1411 -0.0232
31875W        W38325  30.700   1.505   3.989  0.1269 -0.0478 -0.0551
31876W        W38326  27.437   0.287  24.161  0.1700  0.3222  0.3635
31877W        W38327   7.620   2.247  23.723  0.1432  0.3813 -0.1158
31878W        W38328   9.361   5.178   2.057 -0.1646  0.1705  0.2528
31879W        W38329   8.331   0.914  25.955  0.3652 -0.2523 -0.0337
31880W        W38330  10.277   4.272  23.312  0.0221  0.0451  0.0082
31881W        W38331  31.195   7.244   0.208  0.1086  0.4156  0.0598
31882W        W38332  17.166   2.402   0.828 -0.0541  0.0164 -0.0663
31883W        W38333  29.805   2.678  24.657 -0.1321 -0.1451 -0.0589
31884W        W38334  25.445   3.050   8.966 -0.0612 -0.0198 -0.1661
31885W        W38335   0.518   4.300   2.619  0.3618 -0.0961  0.0066
31886W        W38336  30.946   5.875   5.679 -0.1449  0.2463 -0.1020
31887W        W38337   9.117   4.544   5.311  0.3980 -0.2870 -0.0906
31888W        W38338   7.032   6.519  23.449 -0.2027 -0.2687  0.2726
31889W        W38339   6.152   2.745  22.893 -0.1618  0.3554  0.1372
31890W        W38340   7.769   1.178  23.836 -0.0423  0.0233 -0.2388
31891W        W38341  24.178   1.819   2.213  0.3797  0.1893  0.0337
31892W        W38342   4.217   2.396  18.512 -0.0859  0.1800  0.1727
31893W        W38343  29.160   5.478   7.457 -0.0181 -0.0440  0.2476
31894W        W38344  17.093   2.547   1.539 -0.1329 -0.3597 -0.0696
31895W        W38345  27.478   5.993  22.070  0.1359  0.2818 -0.0201
31896W        W38346  11.031   0.694  15.907  0.1354  0.0555  0.2524
31897W        W38347  19.954   0.288   3.706  0.0024 -0.0210 -0.0050
31898W        W38348   1.049   2.276  15.862  0.0007  0.2618  0.3423
31899W        W38349  12.116   4.244  19.174  0.1898  0.2325 -0.1430
31900W        W38350  27.208   5.763   6.350  0.0030 -0.1803 -0.0398
31901W        W38351  23.934   2.866   4.097 -0.0470  0.0428 -0.1554
31902W        W38352   2.961   7.468   9.538 -0.0596  0.0845 -0.1362
31903W        W38353   3.938   7.254  24.836  0.0811 -0.0205 -0.1386
31904W        W38354  19.735   0.877  18.568  0.3828  0.3072  0.2059
31905W        W38355  16.166   2.414   5.999 -0.0072 -0.0518 -0.0942
31906W        W38356  17.250   2.629  24.923 -0.3759 -0.1629 -0.1409
31907W        W38357  27.278   4.731   3.003  0.1427 -0.1835 -0.1076
31908W        W38358   7.091   5.943  16.659 -0.0007 -0.0829  0.1813
31909W        W38359  17.281   0.120   7.515 -0.0334 -0.0659  0.1213
31910W        W38360   4.842   1.710   0.566  0.2571  0.2714 -0.1842
31911W        W38361  28.571   6.976  23.999  0.0178 -0.1851 -0.2020
31912W        W38362  29.319   0.855  24.093  0.0474  0.1617 -0.1205
31913W        W38363   1.334   0.932   6.957 -0.0204 -0.0759  0.0259
31914W        W38364   3.886   4.329  26.092  0.0860  0.1359 -0.1012
31915W        W38365   6.767   2.554  19.883 -0.0288  0.3455 -0.0164
31916W        W38366   9.985   0.890   0.827 -0.1347  0.2961 -0.1426
31917W        W38367  30.147   2.691   8.606 -0.0416 -0.1875  0.1917
31918W        W38368  27.681   5.368  21.926  0.2382  0.0718 -0.3274
31919W        W38369  26.062   1.898   4.024 -0.1753 -0.0277  0.1388
31920W        W38370   5.776   4.473   0.533  0.3182 -0.0947  0.0444
31921W        W38371   1.105   3.937  23.558  0.0447 -0.1007 -0.1247
31922W        W38372   3.142   2.658  21.550 -0.0036 -0.0155 -0.0567
31923W        W38373  12.680   5.541   4.209 -0.0822  0.1363 -0.0355
31924W        W38374   1.139   1.187  22.355 -0.0353  0.1251 -0.0060
31925W        W38375  30.735   7.688  18.488 -0.1363  0.2463  0.0193
31926W        W38376  19.253   2.345  24.802 -0.2241  0.2157  0.1444
31927W        W38377  15.020   2.862   8.925  0.0799  0.1745  0.1069
31928W        W38378  11.833   1.534  25.086 -0.1926  0.0062  0.1251
31929W        W38379  13.073   0.475  15.925 -0.2859  0.1215  0.1500
31930W        W38380  13.488   5.035   5.363 -0.1803  0.0664 -0.2757
31931W        W38381   2.846   4.976   3.579 -0.0649  0.2009 -0.2400
31932W        W38382  20.598   0.597   2.512 -0.0597  0.0711 -0.0338
31933W        W38383  29.960   6.534   1.794  0.3280  0.1247 -0.1213
31934W        W38384  16.774   0.995  17.056 -0.1640 -0.0363 -0.1236
31935W        W38385  19.233   6.719  26.274  0.0913 -0.0755 -0.0406
31936W        W38386  12.480   6.850   3.655  0.2790  0.1290  0.1127
31937W        W38387  14.060   1.774   5.805  0.2449  0.3093  0.0467
31938W        W38388  30.072   5.824   7.352 -0.0381  0.0999 -0.2345
31939W        W38389   0.942   6.139   2.931  0.2042 -0.2693 -0.0652
31940W        W38390  28.671   7.471  20.422  0.1263 -0.2270 -0.0227
31941W        W38391  30.971   7.585  19.760  0.0074 -0.0310 -0.0226
31942W        W38392  11.012   5.045  18.026  0.1728 -0.1728 -0.0215
31943W        W38393   9.980   5.743   5.016  0.1835 -0.1815  0.0185
31944W        W38394  25.271   3.597   7.219  0.1604  0.2153 -0.1984
31945W        W38395  19.956   2.694  25.112 -0.1650 -0.0875 -0.3337
31946W        W38396   3.672   2.076  24.306  0.2557  0.1101 -0.1642
31947W        W38397  24.969   7.120  24.436 -0.0033 -0.0808  0.2464
31948W        W38398  13.752   1.781  25.913 -0.0475  0.0482 -0.0960
31949W        W38399  26.437   3.048   5.014 -0.0925 -0.0458  0.0532
31950W        W38400  12.730   3.013   2.775 -0.1260  0.1846  0.0399
31951W        W38401   5.418   6.608   6.675  0.2155  0.0939 -0.0235
31952W        W38402  12.079   6.977  24.489 -0.2687 -0.0290  0.0104
31953W        W38403   2.242   2.643   8.470  0.2359  0.1602 -0.2032
31954W        W38404  10.352   1.651  25.528 -0.0871  0.0589 -0.0255
31955W        W38405  18.308   6.405  19.133 -0.3574  0.1802 -0.0138
31956W        W38406  22.433   4.759  17.165 -0.3189 -0.2696 -0.0585
31957W        W38407  16.664   7.569   2.094 -0.0840 -0.1250  0.1107
31958W        W38408   5.151   6.906  21.432  0.0611 -0.0927  0.1787
31959W        W38409  15.336   1.627  10.131  0.0495 -0.1943 -0.1087
31960W        W38410  19.720   3.804  10.548  0.0026 -0.1066  0.0173
31961W        W38411  23.210   7.518   5.174 -0.0016 -0.1299 -0.1876
31962W        W38412   3.293   3.736   7.950 -0.2481  0.1665 -0.0443
31963W        W38413  22.433   0.155  25.456 -0.0892  0.3105 -0.2893
31964W        W38414  13.312   6.480  26.268  0.1764  0.1463  0.0739
31965W        W38415  16.327   6.779   2.710  0.2369 -0.0123 -0.2209
31966W        W38416  12.843   4.004   0.066  0.2924 -0.1081 -0.0213
31967W        W38417  22.200   4.815   8.186 -0.2750 -0.0104 -0.0349
31968W        W38418  26.816   7.254  10.385 -0.1900 -0.2247 -0.2509
31969W        W38419  30.273   1.275   5.726  0.1235 -0.0230 -0.3556
31970W        W38420  19.860   0.647   5.818 -0.1121 -0.0146 -0.0699
31971W        W38421  30.212   0.213   1.321  0.0658  0.1064 -0.3266
31972W        W38422  28.359   0.699   8.911  0.1594  0.0583  0.5408
31973W        W38423   3.832   4.586   7.424 -0.0316 -0.0289 -0.0206
31974W        W38424  22.418   5.705  19.309 -0.0649 -0.1432 -0.0478
31975W        W38425  21.886   1.596   7.406 -0.0853 -0.2795  0.0223
31976W        W38426   4.618   5.751   7.347 -0.2834 -0.1938 -0.1322
31977W        W38427   8.846   5.198   4.512  0.0562  0.0571 -0.5389
31978W        W38428  27.171   1.311  21.022 -0.1503 -0.0570  0.2563
31979W        W38429  12.483   2.897  24.313 -0.1300  0.2026  0.0345
31980W        W38430   6.864   7.716  16.568  0.0761  0.0030  0.0069
31981W        W38431   2.804   6.424  18.813 -0.0961 -0.1875  0.4431
31982W        W38432   0.054   4.852   9.221 -0.0127 -0.0295 -0.2789
31983W        W38433  29.596   5.406  24.621 -0.3039 -0.0837 -0.0596
31984W        W38434  29.895   4.234  10.778 -0.0773 -0.2858  0.1213
31985W        W38435   0.140   6.173  21.531  0.1531  0.1872  0.1543
31986W        W38436  20.976   7.608  18.591 -0.3033  0.0467 -0.0972
31987W        W38437  16.294   5.355  17.698  0.0801 -0.1529  0.0820
31988W        W38438   7.576   5.045  19.707  0.4711 -0.2382 -0.0011
31989W        W38439   5.621   1.136  19.360 -0.3397 -0.1058  0.0642
31990W        W38440  24.180   3.478  23.016 -0.0729 -0.1381 -0.0792
31991W        W38441  20.118   2.557  16.586 -0.1501 -0.2059  0.0057
31992W        W38442   8.918   3.905   0.117 -0.0299  0.0301 -0.0418
31993W        W38443  11.880   2.796  24.309 -0.1118  0.0186 -0.0848
31994W        W38444  29.509   6.632  26.215  0.1421 -0.1405 -0.1911
31995W        W38445  12.297   3.412  17.803  0.0007 -0.0308  0.1533
31996W        W38446   9.392   7.771   8.899 -0.0792 -0.0795 -0.1070
31997W        W38447  30.343   6.110   1.638  0.2509 -0.1909  0.0361
31998W        W38448  29.735   5.839  17.098  0.2824  0.2989 -0.2080
31999W        W38449   6.547   6.899   7.196 -0.0698  0.0702 -0.0722
32000W        W38450  11.165   7.036  10.423 -0.1673  0.3004 -0.2848
32001W        W38451   3.904   0.465   7.574  0.1210 -0.2596 -0.1376
32002W        W38452   5.015   5.369  10.032  0.1619 -0.3111  0.1530
32003W        W38453  14.604   6.819  17.994  0.1291  0.1781 -0.2801
32004W        W38454  13.115   6.289   0.695 -0.3706 -0.0476 -0.4980
32005W        W38455  10.383   3.320   3.811  0.3794  0.1995 -0.0369
32006W        W38456   1.247   4.933   1.913 -0.2873  0.0607  0.3176
32007W        W38457  27.606   7.263  24.616  0.2445  0.3365 -0.0061
32008W        W38458  18.614   1.936  22.370 -0.1484 -0.1374  0.0846
32009W        W38459  15.309   5.589  18.006 -0.0496 -0.0697 -0.0123
32010W        W38460   1.109   7.213  18.732  0.1101  0.3372 -0.1466
32011W        W38461   3.910   0.930   9.948 -0.1778  0.1603 -0.0221
32012W        W38462  24.140   4.754  16.465 -0.2711 -0.1510 -0.0715
32013W        W38463  21.358   0.169  20.980 -0.4797  0.0345 -0.3539
32014W        W38464  11.050   1.729  21.535  0.1676  0.0591 -0.3084
32015W        W38465  11.714   7.225   2.326  0.0128 -0.0600  0.2536
32016W        W38466  29.471   2.656  25.931  0.3928  0.1073 -0.1740
32017W        W38467  13.809   0.355   5.794 -0.0648 -0.1179 -0.0826
32018W        W38468   0.525   5.622   1.004 -0.0412  0.2471  0.1951
32019W        W38469   4.511   2.136  20.968  0.0743  0.2369  0.0996
32020W        W38470  20.080   0.377  25.241  0.0677  0.1225 -0.0372
32021W        W38471  28.340   4.792  10.528  0.2421 -0.0252 -0.1141
32022W        W38472   8.100   4.360  21.071  0.1150  0.2628  0.0642
32023W        W38473  15.974   3.424  20.789 -0.0906 -0.2363  0.1335
32024W        W38474  14.953   4.038  14.971 -0.1574  0.2462 -0.5161
32025W        W38475   4.634   0.340  21.509  0.0968 -0.2497 -0.0562
32026W        W38476  14.017   3.015  14.691 -0.1985 -0.0459 -0.2681
32027W        W38477   1.149   5.438  25.659 -0.1368  0.3370  0.0913
32028W        W38478  20.884   1.981  25.963  0.0224 -0.0054  0.2537
32029W        W38479   7.121   1.073  16.138  0.0445  0.1823  0.0878
32030W        W38480  23.868   6.324   2.068  0.0760  0.2401 -0.0093
32031W        W38481   7.371   5.825   3.544  0.1183 -0.0673 -0.0566
32032W        W38482   9.381   0.460  22.129 -0.0604  0.3547  0.0853
32033W        W38483   2.356   3.853   4.215  0.0848  0.4997 -0.3507
32034W        W38484  23.860   7.130  16.869 -0.0437  0.0076 -0.1858
32035W        W38485   8.003   5.870   6.603 -0.1145  0.3606 -0.1252
32036W        W38486  21.895   5.111  18.750  0.1042  0.1148  0.3319
32037W        W38487  21.704   1.656   0.071  0.0034 -0.0241  0.0003
32038W        W38488  17.605   7.508  10.418 -0.1008  0.0033  0.0353
32039W        W38489  28.280   3.844  16.628 -0.1669  0.0068 -0.0438
32040W        W38490  10.332   5.711  21.011 -0.0494 -0.0369 -0.1933
32041W        W38491  29.309   0.376   0.898 -0.3090  0.2154 -0.0274
32042W        W38492   6.163   5.865   6.434 -0.1604  0.1365 -0.2423
32043W        W38493   1.319   3.612  22.939 -0.1408 -0.1074  0.0189
32044W        W38494  16.860   5.643   9.400 -0.2476  0.0737 -0.2525
32045W        W38495  13.635   4.797   1.498  0.1759 -0.0142 -0.2467
32046W        W38496  27.159   3.958   0.202  0.0964  0.2606 -0.2519
32047W        W38497  20.565   6.100  25.211 -0.0464 -0.1370  0.0707
32048W        W38498  15.860   2.209   9.398  0.0592  0.1260 -0.0273
32049W        W38499   9.391   2.314  23.940  0.4708  0.0686  0.1434
32050W        W38500   9.567   1.257  25.897  0.1749  0.0187 -0.2921
32051W        W38501   4.279   7.502  11.089  0.2285 -0.0861  0.0533
32052W        W38502  14.842   5.792  18.054 -0.1939  0.0147  0.1323
32053W        W38503  29.959   4.514  16.198  0.1441 -0.0874 -0.3341
32054W        W38504  20.513   4.707   7.068 -0.1280  0.1068 -0.0234
32055W        W38505  29.185   7.443  23.327 -0.0376  0.0238  0.2300
32056W        W38506   4.062   4.082  23.369  0.0382 -0.0037 -0.0170
32057W        W38507  10.411   1.590   4.745 -0.1147  0.0567 -0.3853
32058W        W38508  29.567   5.394   5.140  0.0570 -0.0422  0.1900
32059W        W38509   4.673   7.666   6.266  0.0677 -0.4510 -0.0800
32060W        W38510  28.203   3.105   8.916 -0.1921  0.0930 -0.0350
32061W        W38511  18.912   0.416   0.489 -0.0281 -0.0245 -0.1169
32062W        W38512  16.660   5.523   4.105 -0.2471 -0.1247  0.0321
32063W        W38513   0.788   3.911  18.974  0.1612 -0.3195 -0.0758
32064W        W38514   4.247   7.250  20.674 -0.3000  0.0557 -0.2841
32065W        W38515  24.184   4.588  22.503 -0.2869 -0.1128 -0.0070
32066W        W38516  10.391   3.353  26.232  0.0123 -0.0180 -0.1338
32067W        W38517  10.935   3.378   0.707 -0.2434  0.3295  0.2709
32068W        W38518   9.379   5.802  10.088  0.3606 -0.0968 -0.0190
32069W        W38519  20.216   6.739   3.838  0.2411  0.0638  0.0107
32070W        W38520   1.072   4.661  25.045 -0.0166  0.2595  0.1110
32071W        W38521  21.475   7.704  16.774 -0.2160  0.0083  0.0582
32072W        W38522  31.179   0.427   8.371 -0.1144  0.1755 -0.0769
32073W        W38523  13.452   2.329   3.834  0.3805  0.0441  0.0487
32074W        W38524  10.635   4.749   3.342  0.2147  0.1386 -0.0767
32075W        W38525   6.450   3.671   1.912 -0.0572 -0.2480  0.2887
32076W        W38526  14.000   7.197   1.925 -0.0584 -0.1002 -0.0674
32077W        W38527  11.477   5.034  20.930  0.4262 -0.0267 -0.0617
32078W        W38528  16.254   3.302   5.652 -0.0593 -0.1034 -0.1025
32079W        W38529   8.714   5.824  18.223  0.3809  0.1371  0.1255
32080W        W38530  13.918   1.071  15.542  0.1852  0.2350  0.3028
32081W        W38531  30.034   7.256  16.668 -0.1882  0.0655 -0.0968
32082W        W38532  26.098   2.667   0.684  0.2629  0.0861  0.0924
32083W        W38533   5.708   0.009  10.666 -0.2354  0.0219  0.0713
32084W        W38534  18.275   1.836   9.138 -0.1745 -0.0332  0.0962
32085W        W38535   4.109   0.232   1.445 -0.2802 -0.0888  0.0150
32086W        W38536  21.132   2.356  10.696 -0.0947  0.0512  0.2809
32087W        W38537  14.574   0.614   9.602 -0.2502  0.0333  0.0242
32088W        W38538   6.524   2.832  18.447 -0.2626  0.1263 -0.0362
32089W        W38539  23.486   6.458  11.246  0.0935  0.2359  0.1657
32090W        W38540   6.283   1.902   0.424 -0.2005  0.0579  0.2975
32091W        W38541  22.682   0.118  16.434 -0.0382  0.0742 -0.1841
32092W        W38542  24.855   5.974  10.420 -0.1915 -0.1889  0.0419
32093W        W38543  18.121   5.508  15.280 -0.2160  0.0736  0.1300
32094W        W38544  12.641   5.616   1.890  0.0289 -0.0287 -0.1806
32095W        W38545   7.633   7.431   7.506 -0.0129 -0.0695  0.0115
32096W        W38546   1.617   1.804  19.124 -0.1663 -0.1035  0.3486
32097W        W38547  25.864   1.585   4.418  0.0106 -0.2373  0.1269
32098W        W38548   1.843   2.486  23.727  0.0133  0.3213  0.3618
32099W        W38549   1.203   6.011   5.549  0.0566 -0.1534 -0.1715
32100W        W38550   8.681   7.200   1.687 -0.1490  0.0462  0.1222
32101W        W38551  21.979   7.666  21.551  0.3604 -0.1040 -0.0129
32102W        W38552  10.864   3.282  25.977 -0.0583  0.0267 -0.1664
32103W        W38553   7.919   3.503  21.983 -0.0374 -0.0876 -0.0320
32104W        W38554  19.257   0.382  20.174 -0.3280 -0.0991 -0.0265
32105W        W38555  12.790   6.848   4.022 -0.1496 -0.0970 -0.2298
32106W        W38556  25.719   2.337   2.411  0.0948  0.0287 -0.1127
32107W        W38557  14.065   2.875   2.734 -0.3218  0.2065  0.1068
32108W        W38558  30.604   5.892   2.885  0.1959 -0.1295  0.0532
32109W        W38559  22.173   4.681   1.547 -0.3624  0.1875  0.0127
32110W        W38560  24.363   6.165   2.697 -0.0003  0.0832 -0.0885
32111W        W38561  10.211   0.339  10.649 -0.0693 -0.2302 -0.0468
32112W        W38562  29.269   2.755  17.488 -0.0490  0.1782  0.1272
32113W        W38563  10.956   5.379  22.648  0.2283  0.2702 -0.1226
32114W        W38564  14.342   4.337   8.741 -0.1302 -0.1597  0.3681
32115W        W38565  14.062   3.588   8.694  0.1380 -0.1929 -0.2259
32116W        W38566  25.002   4.922   4.122  0.0344  0.1830 -0.1143
32117W        W38567  15.817   5.447  16.470  0.1964 -0.0454  0.2325
32118W        W38568   0.230   6.697   3.545  0.0880 -0.0864 -0.0096
32119W        W38569   9.985   6.537   5.581 -0.2474 -0.0039 -0.1467
32120W        W38570  20.817   1.183   5.288 -0.0925  0.0656  0.1289
32121W        W38571  25.059   4.375   4.207 -0.3185 -0.1440 -0.3499
32122W        W38572  24.279   6.304   3.568 -0.0191  0.2325  0.0382
32123W        W38573   5.994   5.007  21.075 -0.3306  0.2408 -0.0937
32124W        W38574  13.228   6.020   9.393  0.1839  0.4469 -0.0752
32125W        W38575   7.420   0.997  17.226 -0.0409 -0.1496  0.2692
32126W        W38576  26.625   0.173   5.029  0.0490 -0.1034 -0.0277
32127W        W38577  28.694   1.044  25.916 -0.0049  0.1717  0.0792
32128W        W38578  14.399   6.877  23.709  0.0586 -0.2941  0.1259
32129W        W38579   4.695   3.905  16.471  0.1777  0.1307 -0.1113
32130W        W38580  16.442   4.413  22.482 -0.3103 -0.2113 -0.0526
32131W        W38581   8.721   3.296  18.117 -0.2017 -0.0572 -0.0013
32132W        W38582   4.605   5.319   9.237 -0.0337 -0.0597  0.2716
32133W        W38583   5.463   1.664   3.470 -0.0015 -0.2336  0.0816
32134W        W38584  19.455   4.228   2.661 -0.0163  0.0754  0.1351
32135W        W38585  18.707   1.119   0.916 -0.0585  0.1437 -0.0165
32136W        W38586   6.341   1.292  23.715  0.1362  0.0277 -0.0767
32137W        W38587   5.348   0.095  26.151 -0.0029  0.1225 -0.0787
32138W        W38588  12.905   6.288  24.128 -0.1268 -0.0610 -0.3224
32139W        W38589   0.568   0.438   0.105  0.1974  0.2476 -0.2839
32140W        W38590  14.050   7.123  24.920 -0.0584  0.0512  0.1792
32141W        W38591   7.200   4.238  10.955  0.2862 -0.0318  0.1838
32142W        W38592  14.818   7.673   2.490 -0.1344 -0.0321 -0.1096
32143W        W38593  11.274   5.557  20.008  0.0885  0.4674  0.1007
32144W        W38594  30.782   3.060  25.436  0.0834 -0.0624  0.1922
32145W        W38595  23.545   7.753  10.949 -0.0696 -0.1645 -0.1082
32146W        W38596   1.881   1.575  15.741 -0.1252 -0.0457  0.0522
32147W        W38597  24.271   4.829   9.571 -0.3237 -0.0434 -0.2940
32148W        W38598   7.780   6.301  10.220 -0.1853 -0.1719  0.0459
32149W        W38599   9.093   1.461  21.355  0.0982 -0.0987 -0.2357
32150W        W38600  26.216   7.166  18.103  0.0614  0.1928  0.2841
32151W        W38601   6.172   7.398  17.760 -0.1131 -0.3238 -0.0097
32152W        W38602   5.090   7.404  24.285  0.0356  0.0928  0.1622
32153W        W38603  11.343   1.575  23.641 -0.1858 -0.1992  0.0863
32154W        W38604  17.430   5.034  17.028  0.2094  0.0860 -0.1085
32155W        W38605   8.107   3.383  23.386  0.2405  0.1478  0.3638
32156W        W38606   0.625   2.480   0.592 -0.0607 -0.1785 -0.0645
32157W        W38607   8.915   0.514  19.250  0.1707 -0.1530 -0.1260
32158W        W38608  14.077   4.897  21.397  0.3548  0.1132  0.1405
32159W        W38609  28.479   1.972   8.538  0.2214 -0.1362 -0.0268
32160W        W38610  11.066   7.075  22.830  0.1206  0.2516  0.2151
32161W        W38611  30.091   7.320   7.291  0.0360 -0.2417  0.0976
32162W        W38612   3.357   7.240  20.234 -0.0882  0.1043 -0.0250
32163W        W38613  24.755   2.712   9.976  0.1582  0.1883 -0.0430
32164W        W38614   4.661   5.797  17.797 -0.0515 -0.0072  0.0784
32165W        W38615  27.663   1.229   1.997 -0.0795 -0.0449  0.1342
32166W        W38616   2.754   6.215   3.693 -0.2929  0.0522 -0.0840
32167W        W38617  21.009   2.766  20.780  0.0344  0.0466  0.1687
32168W        W38618  20.698   2.100  22.086  0.0400 -0.2931 -0.0521
32169W        W38619   0.060   1.188   5.972  0.0949 -0.0637 -0.0262
32170W        W38620  11.167   1.897  22.011 -0.0900  0.0412 -0.0192
32171W        W38621  23.980   2.566   1.753  0.0024 -0.0808 -0.2944
32172W        W38622  26.516   2.397  16.017  0.0449  0.4879 -0.2226
32173W        W38623  29.186   1.484   7.173 -0.3652  0.4282 -0.1777
32174W        W38624  23.952   4.162   3.319 -0.3083 -0.0237 -0.4083
32175W        W38625   8.389   7.739  24.054 -0.1927  0.1861  0.1489
32176W        W38626  24.940   4.677  26.377  0.2257  0.1174  0.2550
32177W        W38627   5.484   0.537   8.802  0.2584  0.2322  0.1191
32178W        W38628   6.785   4.681  20.812  0.0109 -0.0974  0.2668
32179W        W38629   5.515   0.996   9.047  0.1836 -0.0902 -0.0458
32180W        W38630  13.245   3.609   9.486  0.0060 -0.0927  0.1533
32181W        W38631  17.585   6.491  17.802  0.0157 -0.0766  0.3314
32182W        W38632  27.585   0.590   1.058 -0.0817 -0.1272 -0.0610
32183W        W38633  22.068   0.062  16.392 -0.1404  0.2232 -0.2856
32184W        W38634  21.070   0.883  16.693  0.0757 -0.1747 -0.0718
32185W        W38635  15.324   2.326  16.312  0.1324  0.2988 -0.3235
32186W        W38636  29.223   6.691   0.235 -0.0032  0.1979  0.1225
32187W        W38637   0.519   6.664   5.658  0.0190 -0.1676  0.2884
32188W        W38638   9.791   3.220  23.193  0.0361 -0.0990 -0.0427
32189W        W38639  22.387   3.057   6.920  0.3349  0.1266  0.0994
32190W        W38640   5.052   7.515  23.696  0.0870  0.0779  0.2927
32191W        W38641   7.536   6.235   2.891  0.1284  0.1592 -0.0363
32192W        W38642  21.070   0.142  22.588  0.1580  0.3514  0.0420
32193W        W38643   1.748   3.399   8.824 -0.3596  0.0399  0.0501
32194W        W38644  24.219   5.365  23.373  0.0244 -0.3361 -0.2071
32195W        W38645  26.300   6.314  24.233  0.1836  0.3404  0.2135
32196W        W38646   9.496   2.865  25.968  0.2662 -0.0770 -0.0093
32197W        W38647  20.178   7.225  23.232  0.0917  0.0450  0.5121
32198W        W38648  22.054   7.319   4.612  0.1477  0.0954 -0.0163
32199W        W38649  21.337   1.037  20.469 -0.2734 -0.0211  0.0824
32200W        W38650   1.360   2.002   9.481  0.0105  0.3382 -0.0408
32201W        W38651  21.532   7.276  21.441  0.3152 -0.1387 -0.1044
32202W        W38652   4.132   0.514  24.436  0.0921 -0.1728  0.2186
32203W        W38653   4.894   4.807   0.230 -0.1638 -0.0030  0.2354
32204W        W38654  22.418   2.501  20.879  0.1829  0.0153  0.0139
32205W        W38655  29.982   1.946  19.051  0.0072 -0.0849  0.1027
32206W        W38656  26.462   7.027   3.472  0.6152  0.0563  0.1490
32207W        W38657  19.458   4.667  22.863 -0.0085 -0.0848  0.1909
32208W        W38658   4.219   1.874  18.339  0.0275  0.0496  0.0240
32209W        W38659  29.320   7.203   4.497  0.1539 -0.1952 -0.0888
32210W        W38660   8.932   6.820   2.534 -0.1525 -0.0316 -0.1707
32211W        W38661   6.427   0.397   2.795  0.1901  0.0161  0.0357
32212W        W38662   5.830   1.071   5.499 -0.0370 -0.0275  0.0316
32213W        W38663  12.099   1.658  24.618  0.2921  0.1454  0.3370
32214W        W38664  27.674   2.018   5.930  0.2520 -0.0978 -0.0459
32215W        W38665   3.847   4.442  22.078  0.1369 -0.1041  0.2279
32216W        W38666  16.992   4.643   6.131 -0.3517 -0.2746  0.0268
32217W        W38667  26.911   0.203  10.167 -0.0820 -0.2445  0.0415
32218W        W38668   1.586   7.382  17.569 -0.2921 -0.2091  0.2553
32219W        W38669   6.515   2.645   2.247  0.1311  0.4689  0.3151
32220W        W38670   4.707   1.412   0.041  0.1321  0.2554  0.0678
32221W        W38671   0.491   7.335   7.358 -0.1417  0.1284 -0.2966
32222W        W38672   9.348   3.157  19.296 -0.1511 -0.1273 -0.3969
32223W        W38673   4.948   3.125   6.707  0.0238  0.1338 -0.1205
32224W        W38674  20.686   2.145  20.285  0.0910  0.1691  0.1503
32225W        W38675  19.542   3.179  24.787  0.0030  0.0544  0.3686
32226W        W38676   9.696   5.579  19.442 -0.3607  0.0517  0.2177
32227W        W38677   1.105   6.872  21.102  0.1622 -0.0154 -0.2593
32228W        W38678  25.743   4.958  24.788  0.2164  0.0557 -0.0026
32229W        W38679  19.141   0.976  10.728  0.1044 -0.0121 -0.1228
32230W        W38680  15.785   6.382   7.510  0.1229  0.1930  0.0142
32231W        W38681  25.753   5.787   4.621 -0.0172 -0.1780  0.0709
32232W        W38682  24.863   6.156  16.716 -0.1625  0.1870  0.0229
32233W        W38683   0.881   5.811  18.237 -0.1306 -0.0338 -0.1937
32234W        W38684  22.437   2.013  25.765 -0.1297 -0.0332 -0.2897
32235W        W38685  28.739   7.267  16.150 -0.1204 -0.3230 -0.0597
32236W        W38686  27.982   1.057  21.911  0.2914 -0.0431 -0.0263
32237W        W38687  29.615   2.517   5.324 -0.1918  0.2017  0.1393
32238W        W38688  17.469   6.180  25.106  0.0256 -0.0823  0.0264
32239W        W38689  24.520   6.073   0.918 -0.1170 -0.0955 -0.0298
32240W        W38690  12.355   1.277  20.962  0.0715 -0.2585  0.1148
32241W        W38691  21.698   6.410  26.386  0.1992  0.2667  0.1727
32242W        W38692   0.773   2.903   5.517 -0.1843 -0.1092  0.2392
32243W        W38693   2.048   2.210  24.565 -0.2203  0.0640  0.0487
32244W        W38694  29.877   2.162  19.856 -0.1709 -0.0408  0.4765
32245W        W38695  12.195   3.593   3.260  0.0457 -0.3553 -0.0536
32246W        W38696   9.038   0.827   8.391 -0.2537 -0.0144 -0.0027
32247W        W38697  14.756   4.490  15.692  0.0783  0.1367  0.1287
32248W        W38698  25.127   7.281   4.843 -0.1158 -0.1924  0.1133
32249W        W38699  15.457   5.421   2.221 -0.1784  0.0786 -0.0827
32250W        W38700   5.879   3.889  19.558  0.1301 -0.0350  0.0378
32251W        W38701  30.635   4.981   5.509  0.0326 -0.0494 -0.0121
32252W        W38702  30.906   5.646   2.362 -0.0293 -0.2251 -0.1699
32253W        W38703  26.577   2.050   4.350 -0.2486  0.2470  0.0740
32254W        W38704   7.040   7.663   4.380 -0.1202  0.0578  0.2882
32255W        W38705  24.681   2.804  18.456 -0.2441  0.0425 -0.0574
32256W        W38706  15.851   4.423  17.480  0.0540 -0.0093  0.1684
32257W        W38707   5.601   2.116  21.623 -0.3745 -0.0354 -0.3768
32258W        W38708  24.820   5.372   0.172 -0.1223  0.0885 -0.0313
32259W        W38709  24.926   3.226   5.703  0.0376 -0.2047  0.0067
32260W        W38710  26.000   4.426   3.281 -0.3784  0.1466  0.3177
32261W        W38711  26.638   7.584   6.155  0.1522  0.3648  0.2463
32262W        W38712  26.965   7.550  22.187  0.1223 -0.2251 -0.2885
32263W        W38713   5.841   5.329   1.362  0.0402 -0.1130  0.1515
32264W        W38714  11.625   3.399  18.351 -0.1632 -0.2693 -0.1357
32265W        W38715  26.747   3.893   7.995 -0.1247 -0.1170  0.0758
32266W        W38716  16.373   2.797   5.637 -0.0539  0.0008 -0.2331
32267W        W38717  22.726   4.053   8.348  0.3291 -0.0564 -0.1734
32268W        W38718  23.129   5.306  25.711  0.0126 -0.1175 -0.1454
32269W        W38719  17.808   4.831   6.481  0.2321  0.1506 -0.3400
32270W        W38720  13.026   5.306  17.969 -0.2258 -0.1510 -0.0044
32271W        W38721  13.815   2.291  25.580  0.3395 -0.0144  0.2166
32272W        W38722  25.327   0.740  23.315  0.0117 -0.0762 -0.0339
32273W        W38723  17.980   5.152  16.143 -0.1651  0.3104  0.0721
32274W        W38724   1.031   6.879  24.292  0.1031 -0.1010  0.3416
32275W        W38725  17.503   2.702  21.470 -0.2234 -0.0456 -0.1712
32276W        W38726  15.828   0.148   7.133 -0.0558 -0.1690  0.1826
32277W        W38727  30.242   1.478   3.804 -0.1449  0.1054  0.0685
32278W        W38728   7.124   5.953   1.539 -0.0560  0.3672  0.0032
32279W        W38729   2.871   4.252  19.407  0.0342 -0.2226 -0.1893
32280W        W38730  12.822   1.499  22.107 -0.0953  0.3680  0.1769
32281W        W38731  29.670   2.996   8.393  0.2539 -0.0506 -0.0135
32282W        W38732  27.866   7.111   8.443  0.1368 -0.1359  0.1658
32283W        W38733  11.120   2.396  22.686 -0.1421  0.1643 -0.0907
32284W        W38734  27.864   3.803   7.280 -0.0835  0.0056 -0.3659
32285W        W38735  11.393   0.232  26.416 -0.0614 -0.0513 -0.0945
32286W        W38736   4.630   5.418   2.009  0.0553 -0.2923  0.3833
32287W        W38737   5.702   0.491   8.302  0.0874  0.1263 -0.2280
32288W        W38738   1.119   4.557  19.983  0.0341 -0.0018 -0.1840
32289W        W38739   7.666   1.084   0.420 -0.0973 -0.0111  0.1696
32290W        W38740  13.503   2.981   3.831  0.2880  0.1213 -0.2114
32291W        W38741  18.512   2.149   8.237  0.0500  0.0029 -0.1787
32292W        W38742  30.043   4.619  18.530 -0.0784 -0.0182  0.0871
32293W        W38743  14.374   1.077  21.806  0.0643 -0.0541  0.3774
32294W        W38744  14.328   6.788   0.304  0.1151 -0.1811 -0.1536
32295W        W38745   0.765   4.333  20.293 -0.1950 -0.3368 -0.0661
32296W        W38746  21.470   4.454  11.404 -0.0019 -0.0088 -0.1198
32297W        W38747  24.983   1.007  18.617 -0.1585  0.1305 -0.1764
32298W        W38748  15.204   5.798   3.556  0.2954  0.2378  0.0576
32299W        W38749   5.215   2.621  21.131  0.1063  0.1555 -0.2852
32300W        W38750  14.395   1.964   3.048  0.2403 -0.2560 -0.2729
32301W        W38751  13.086   7.020  16.596  0.0973  0.0844 -0.1491
32302W        W38752  30.492   3.634   8.591 -0.2466 -0.1749  0.2682
32303W        W38753  16.310   1.201  23.946 -0.0056  0.0323  0.3551
32304W        W38754  24.779   7.427  21.414 -0.1158 -0.0705 -0.1014
32305W        W38755   9.424   6.712  23.689 -0.1255 -0.2371  0.0720
32306W        W38756  25.362   5.682   1.175 -0.0598 -0.1020 -0.0629
32307W        W38757  28.447   4.829  15.855 -0.0334  0.2077  0.2542
32308W        W38758  17.635   6.805   1.530  0.2598  0.1123  0.1425
32309W        W38759   4.508   2.844   2.007  0.2416 -0.4384 -0.0720
32310W        W38760  14.650   5.021   6.034  0.1210  0.0663  0.1186
32311W        W38761  11.421   1.577  19.064 -0.0977  0.0503 -0.1127
32312W        W38762   5.233   5.857   7.329  0.0000  0.0738 -0.3402
32313W        W38763   6.492   1.830  26.411  0.3655 -0.1060 -0.0484
32314W        W38764   1.582   1.730  18.205  0.2037  0.2058 -0.1939
32315W        W38765   2.354   2.641   2.968  0.4047 -0.0309 -0.2001
32316W        W38766  24.691   6.560   4.494 -0.0795 -0.2690 -0.1358
32317W        W38767   3.096   4.592  10.106  0.3486 -0.1975  0.0071
32318W        W38768  25.131   7.795  23.779  0.0516 -0.3172 -0.2038
32319W        W38769  15.800   0.307  17.612  0.2215  0.2439  0.1466
32320W        W38770  17.224   6.358  26.184 -0.0890  0.0260 -0.2533
32321W        W38771  14.242   2.370   0.114 -0.1844 -0.0692 -0.0377
32322W        W38772  21.161   3.085  22.333  0.2082  0.1587 -0.1286
32323W        W38773  13.418   5.198   6.795 -0.1005  0.1092 -0.0406
32324W        W38774  19.294   4.244  20.617 -0.0590 -0.2434 -0.1041
32325W        W38775  27.853   6.473   6.820 -0.2613  0.0397 -0.1057
32326W        W38776  14.499   0.927   4.038  0.1355 -0.0877  0.2704
32327W        W38777  10.956   7.285   6.665  0.0814  0.1641  0.0999
32328W        W38778  23.595   1.182   3.490  0.1331  0.0094 -0.0234
32329W        W38779  15.861   6.443   6.414  0.0607  0.1741  0.1555
32330W        W38780   1.487   4.472  18.197  0.1440 -0.0060 -0.1535
32331W        W38781  27.233   2.125   6.117  0.0620 -0.1468  0.0280
32332W        W38782   9.268   7.100  19.226 -0.0861 -0.1148 -0.1417
32333W        W38783  21.274   0.490   3.870  0.1273 -0.3086 -0.0277
32334W        W38784  29.963   0.441  11.082 -0.1018 -0.1737 -0.0235
32335W        W38785  11.392   3.658  22.643  0.1878 -0.0381 -0.1913
32336W        W38786  29.783   4.465   3.799  0.4803 -0.1303  0.0081
32337W        W38787  28.969   4.166  25.950 -0.3253 -0.1402  0.0248
32338W        W38788  11.996   5.960  19.807  0.0913  0.0369  0.1653
32339W        W38789  22.758   0.507   4.967 -0.0938 -0.2759 -0.0202
32340W        W38790  18.137   6.003  20.987 -0.2213 -0.1527 -0.1815
32341W        W38791  13.134   0.378   9.366 -0.0004 -0.0091 -0.2778
32342W        W38792  15.994   4.609  22.752 -0.0789  0.2323  0.3671
32343W        W38793  28.801   3.559   7.262  0.1165 -0.0016  0.1065
32344W        W38794  13.176   1.952  23.523  0.0486 -0.3244  0.0131
32345W        W38795  21.261   5.215  17.089 -0.0339 -0.2921 -0.1553
32346W        W38796  26.701   7.361   4.758 -0.1149 -0.1646  0.1262
32347W        W38797   4.196   3.026  23.732  0.2169  0.0972 -0.1266
32348W        W38798  12.824   0.165  10.281  0.0634 -0.4302  0.0397
32349W        W38799  27.394   5.655   7.187  0.0909  0.0209 -0.5044
32350W        W38800  18.645   4.670   0.170  0.0140  0.2204  0.4274
32351W        W38801  12.813   5.052   8.478 -0.0259 -0.2483 -0.0957
32352W        W38802   2.614   2.574  11.210 -0.0151  0.3451 -0.1697
32353W        W38803  30.984   4.395  25.492 -0.0357 -0.4134 -0.0064
32354W        W38804  11.003   5.864   1.488 -0.0875 -0.1899  0.0630
32355W        W38805   6.148   4.553  20.328  0.1879  0.2263  0.1167
32356W        W38806  14.447   6.661  15.702 -0.1489  0.1026 -0.0096
32357W        W38807   8.899   7.748   9.115  0.0217 -0.0118  0.1893
32358W        W38808   6.967   2.612  17.241 -0.2116  0.0824 -0.1865
32359W        W38809  28.573   6.349  23.235 -0.1612  0.0841 -0.0581
32360W        W38810  19.457   1.619  20.448  0.0896 -0.3740  0.2142
32361W        W38811  21.020   2.711   0.306  0.0450  0.0530 -0.1435
32362W        W38812   3.234   5.825   5.472  0.2104 -0.0347 -0.1437
32363W        W38813  11.017   0.854  24.681 -0.3269 -0.1155  0.0667
32364W        W38814  18.748   1.089   4.138  0.1960  0.0970  0.4582
32365W        W38815  27.177   2.336  17.419  0.1075  0.0449  0.0459
32366W        W38816  30.678   4.421  23.886  0.0522  0.1687 -0.0705
32367W        W38817   0.650   3.484  21.160 -0.0007  0.1968  0.1374
32368W        W38818  25.170   3.065   0.403 -0.1308  0.0992 -0.0635
32369W        W38819  26.984   5.741   7.750 -0.1384  0.1747  0.1236
32370W        W38820  13.498   2.535   7.641  0.1837 -0.2419 -0.2945
32371W        W38821   3.060   5.450  15.685 -0.1706  0.0754 -0.4559
32372W        W38822   0.633   1.481   6.523 -0.2882  0.0208 -0.1736
32373W        W38823  16.364   6.544  15.393  0.0716 -0.1560 -0.0121
32374W        W38824  18.934   3.068  22.142  0.3512  0.0441  0.1355
32375W        W38825  11.841   2.954  26.322  0.0025 -0.1919 -0.1324
32376W        W38826  11.478   7.281   0.645 -0.1033  0.1418  0.2044
32377W        W38827  24.717   5.740  24.861  0.5082 -0.0654  0.0695
32378W        W38828  15.385   3.201   8.667 -0.0642  0.0686 -0.1071
32379W        W38829  15.183   6.169  17.970 -0.0210 -0.0537 -0.1305
32380W        W38830   8.018   0.719  19.299 -0.2158 -0.0152  0.2095
32381W        W38831  24.229   1.381   2.039  0.0080  0.2137 -0.1383
32382W        W38832  20.803   1.535  20.959  0.1109  0.0596 -0.2782
32383W        W38833  28.449   0.947  22.205  0.1817 -0.0495 -0.0289
32384W        W38834   4.242   4.914   5.634  0.1511 -0.3337  0.1852
32385W        W38835  17.410   2.445   4.478 -0.1165 -0.3877 -0.0380
32386W        W38836  20.546   1.639  26.036  0.2365  0.1162  0.0687
32387W        W38837  10.007   5.125   8.084 -0.1693  0.2134 -0.1169
32388W        W38838  10.621   4.491  21.744 -0.0559 -0.1485  0.1616
32389W        W38839   4.695   6.091  24.423 -0.0155 -0.0700  0.2646
32390W        W38840  30.150   3.584   0.411 -0.1054  0.2008 -0.2991
32391W        W38841   5.007   5.487   3.117 -0.0186  0.2568 -0.2788
32392W        W38842   9.117   6.893   6.992  0.0393  0.2455 -0.0919
32393W        W38843  27.415   1.091  15.958 -0.0288  0.3629  0.0975
32394W        W38844  26.499   5.655   6.962 -0.1486 -0.0340  0.1248
32395W        W38845  25.957   4.509  23.408  0.1193 -0.0696 -0.1216
32396W        W38846  25.867   4.494  11.544 -0.0871 -0.3509 -0.0198
32397W        W38847  12.768   4.582  15.287 -0.3568  0.1079 -0.0255
32398W        W38848  28.611   3.713  20.703  0.1416 -0.1710 -0.1038
32399W        W38849  20.141   0.703   8.591  0.4243 -0.0199  0.1377
32400W        W38850   8.915   6.524  23.707 -0.1513  0.4839  0.2822
32401W        W38851  25.741   2.052  16.444  0.3013  0.1313 -0.1197
32402W        W38852   7.796   6.736  14.670 -0.1617 -0.3587  0.0610
32403W        W38853  21.211   1.971  23.348 -0.0934 -0.0260 -0.3134
32404W        W38854   7.244   2.747   1.009 -0.1640 -0.0976 -0.3093
32405W        W38855  13.549   2.084   6.391 -0.0357 -0.1045  0.0474
32406W        W38856  30.630   6.694   5.162  0.1724 -0.0443  0.3909
32407W        W38857  16.194   2.863   4.724  0.2321  0.0928 -0.1107
32408W        W38858   6.250   6.952  19.144 -0.0994  0.2633 -0.1954
32409W        W38859  14.019   3.176  10.389 -0.0816 -0.2657  0.0785
32410W        W38860  25.405   4.842   8.889  0.0343 -0.0371  0.1687
32411W        W38861  19.664   5.648   2.513 -0.1097 -0.1152  0.1262
32412W        W38862   5.978   0.194   5.063 -0.0839 -0.0757  0.3136
32413W        W38863  19.406   0.415   0.538 -0.1220  0.1574  0.2570
32414W        W38864  22.772   4.602   4.293 -0.0436  0.0599  0.1648
32415W        W38865   6.131   4.693  24.229  0.0649  0.3032  0.3984
32416W        W38866  19.797   7.410  19.409  0.0040 -0.3324  0.1914
32417W        W38867  21.709   4.659  21.611 -0.2500  0.1277  0.0570
32418W        W38868   1.958   0.017   2.296  0.1863 -0.0408  0.1400
32419W        W38869   7.034   1.978   6.495  0.0975 -0.0883  0.2726
32420W        W38870  21.289   2.572  26.346  0.2015 -0.1931  0.0095
32421W        W38871  30.299   7.155   8.311 -0.1938  0.2521  0.1236
32422W        W38872  24.451   0.159   7.149 -0.0964 -0.1318  0.1218
32423W        W38873  30.396   3.929   9.671 -0.0823  0.3505 -0.0060
32424W        W38874   5.870   5.580  25.138 -0.0952  0.0042  0.1682
32425W        W38875  13.879   2.848   6.580 -0.2261  0.2346 -0.1091
32426W        W38876  18.359   1.364  20.422  0.2418  0.1554 -0.2748
32427W        W38877   6.186   4.473   2.210 -0.0676  0.1710 -0.0359
32428W        W38878   7.407   7.655   2.389  0.1019  0.0938 -0.0962
32429W        W38879  26.066   5.560  25.311  0.2279 -0.1091 -0.1844
32430W        W38880  16.639   1.558  17.178 -0.3888 -0.1846  0.0470
32431W        W38881  12.427   0.571  20.465 -0.2463 -0.1420  0.1474
32432W        W38882  22.941   4.714   9.243 -0.0821 -0.1157 -0.1370
32433W        W38883   7.470   2.792  15.974  0.2835 -0.1225  0.3097
32434W        W38884   4.078   2.904   5.284  0.1139 -0.0453  0.1091
32435W        W38885  15.241   7.301  18.917  0.0408 -0.1705  0.0245
32436W        W38886  14.838   5.881   3.881  0.3090 -0.3764  0.1506
32437W        W38887   1.083   3.744  21.450  0.1136  0.2325  0.2229
32438W        W38888  25.312   3.417   7.708 -0.1479 -0.1076 -0.0336
32439W        W38889  25.963   3.499  10.126  0.0354  0.2245  0.0552
32440W        W38890  29.207   0.797  15.635 -0.0786 -0.0598 -0.3303
32441W        W38891   8.898   3.585   6.706 -0.1378  0.3626 -0.0096
32442W        W38892  24.583   7.360   5.150 -0.2812  0.3502  0.1052
32443W        W38893  14.028   1.025   3.977 -0.1899 -0.0535  0.0488
32444W        W38894  23.474   3.695  16.864  0.0281  0.1493 -0.0053
32445W        W38895  11.705   3.078   8.752  0.0231  0.0254 -0.0205
32446W        W38896   4.849   2.268  24.582  0.0389  0.0086 -0.0092
32447W        W38897   0.726   5.821  18.759 -0.0097  0.1559  0.0757
32448W        W38898   1.221   2.470   7.130  0.1497 -0.0890 -0.1147
32449W        W38899   4.487   0.228  25.547 -0.0234  0.0713 -0.1332
32450W        W38900   4.904   4.183  20.887  0.0383  0.0721  0.0630
32451W        W38901  19.142   2.570  10.576 -0.0921 -0.0225 -0.0119
32452W        W38902  15.375   6.450   9.985  0.2412  0.0605 -0.0574
32453W        W38903   9.388   1.546  18.756  0.0180 -0.0290  0.2919
32454W        W38904   2.219   0.580   7.087 -0.2950 -0.0425  0.3351
32455W        W38905  11.984   6.296  20.764 -0.0119 -0.0295 -0.1459
32456W        W38906  23.215   6.019  20.702 -0.1431 -0.2029 -0.3841
32457W        W38907  18.742   6.157   3.523  0.0785 -0.2257  0.0902
32458W        W38908  14.960   1.539  26.323  0.3404 -0.0735 -0.1031
32459W        W38909  31.169   4.454   1.785  0.0633  0.3293 -0.0190
32460W        W38910  27.545   0.360  17.531 -0.3801 -0.2403 -0.0206
32461W        W38911  18.577   1.122  10.526  0.0837 -0.0397  0.2197
32462W        W38912   7.142   4.662  22.663  0.0234  0.0396  0.3048
32463W        W38913   6.385   4.361  19.007  0.0377  0.1903 -0.1455
32464W        W38914   4.681   7.295  19.230 -0.1788  0.1231  0.1231
32465W        W38915  30.800   5.036  19.088 -0.1293  0.0763 -0.0041
32466W        W38916  22.465   1.215  22.745  0.1275 -0.1109  0.0503
32467W        W38917   3.448   0.661   8.745 -0.1531 -0.4457  0.0087
32468W        W38918  26.082   4.029  25.874  0.0223 -0.3003  0.0242
32469W        W38919  21.884   0.459   4.531 -0.0422 -0.3504  0.1585
32470W        W38920   6.818   3.192   8.117 -0.2006  0.2551 -0.0673
32471W        W38921   6.843   1.247   2.488  0.0170  0.2761 -0.0357
32472W        W38922  21.687   1.410   8.401 -0.2483 -0.1748 -0.1854
32473W        W38923   7.604   2.366   1.999 -0.0386 -0.3374  0.1272
32474W        W38924  13.885   1.629  18.768 -0.0756 -0.1803 -0.0704
32475W        W38925   8.775   6.148  21.460 -0.0069  0.2569 -0.0904
32476W        W38926   5.825   2.592  16.866 -0.1772  0.0438 -0.0583
32477W        W38927  24.172   7.119   9.104 -0.3139  0.1012  0.2665
32478W        W38928  18.324   4.275   7.129 -0.0176  0.0809  0.0823
32479W        W38929   4.000   3.375  20.304  0.2293  0.2122 -0.0688
32480W        W38930  21.586   2.858   5.178  0.3982  0.3090 -0.3529
32481W        W38931  27.413   3.573  16.288  0.0072 -0.0520 -0.0913
32482W        W38932  28.807   7.066   6.676  0.0835 -0.0631 -0.2449
32483W        W38933  22.032   0.046  24.110  0.0396  0.1641  0.2003
32484W        W38934   7.487   2.417  20.762  0.0578  0.0459  0.1571
32485W        W38935   2.850   0.819  23.821  0.1057  0.2059 -0.1716
32486W        W38936  25.281   2.815  18.687  0.0457  0.1924  0.0692
32487W        W38937   1.584   3.937   6.775  0.1414  0.0284  0.2449
32488W        W38938  14.099   4.564  23.949  0.0464 -0.0710  0.1717
32489W        W38939  27.252   6.369   8.820 -0.1018  0.0450  0.2109
32490W        W38940  20.050   0.046  19.456  0.3480  0.4006 -0.1368
32491W        W38941  15.775   0.373   3.927  0.0462  0.1143 -0.0027
32492W        W38942   3.139   7.211  19.255 -0.0350 -0.2020 -0.2524
32493W        W38943   3.005   3.593   4.907 -0.0144 -0.3352 -0.0888
32494W        W38944  16.029   7.362  22.712  0.1504 -0.1302 -0.0610
32495W        W38945  30.805   7.538   9.636  0.1648  0.1007 -0.0329
32496W        W38946  27.357   1.506  19.149  0.0010 -0.3859 -0.0660
32497W        W38947  27.731   3.141  26.276  0.3566  0.0035  0.1625
32498W        W38948   6.899   1.947   9.283  0.0294  0.3044  0.1868
32499W        W38949   0.264   6.216  10.104 -0.1246 -0.1520  0.0913
32500W        W38950   5.819   1.058   2.614  0.1425 -0.1163  0.3118
32501W        W38951  20.350   2.195  23.015 -0.1698 -0.3349  0.1875
32502W        W38952  29.927   4.508  22.121  0.0515 -0.2150  0.1047
32503W        W38953  20.762   5.618  22.992 -0.1421 -0.0047 -0.2881
32504W        W38954  20.232   2.403  22.022 -0.3721 -0.0303 -0.0914
32505W        W38955   4.970   5.019   6.776 -0.1435  0.1338  0.0101
32506W        W38956   7.305   5.441   3.210 -0.1101 -0.1275 -0.2074
32507W        W38957  20.487   2.608  24.455 -0.0171 -0.0891  0.3704
32508W        W38958   2.772   0.872  24.499 -0.1256 -0.1526  0.3710
32509W        W38959   2.155   5.757  20.151  0.0369  0.1533 -0.2481
32510W        W38960   4.298   4.388  21.472  0.0279 -0.0850 -0.1175
32511W        W38961   2.439   4.324  18.152 -0.0093 -0.0403 -0.1232
32512W        W38962  14.873   4.979  22.107  0.1418  0.1453  0.1562
32513W        W38963  28.220   4.501   9.135  0.1014 -0.0575  0.2805
32514W        W38964   2.194   4.977   8.724  0.0908 -0.1830 -0.0374
32515W        W38965   5.581   7.742   9.179 -0.0490 -0.0818  0.2489
32516W        W38966  28.274   2.950  25.205 -0.0569 -0.2278  0.3031
32517W        W38967  12.374   3.249  20.795  0.2284  0.4821  0.0207
32518W        W38968  23.736   4.857  24.672 -0.0884  0.1713 -0.0756
32519W        W38969  30.995   1.540   9.743  0.1591 -0.1415  0.0751
32520W        W38970  30.264   2.249  21.999 -0.1377  0.0581  0.1416
32521W        W38971   3.198   1.540   7.619  0.0837 -0.0156  0.0437
32522W        W38972  17.305   1.273  20.194  0.0291 -0.1441  0.3842
32523W        W38973  21.887   5.800   0.757 -0.0097  0.0568  0.2007
32524W        W38974   9.370   2.893  10.604 -0.0537  0.3924 -0.3090
32525W        W38975   8.173   3.304   9.423  0.3017  0.0079 -0.0498
32526W        W38976  27.547   2.840  17.621 -0.2058 -0.0961  0.0484
32527W        W38977   4.045   7.200  10.199  0.0906  0.0197 -0.1563
32528W        W38978  21.581   2.506  22.422  0.0839 -0.3475  0.2849
32529W        W38979   8.739   5.318  17.014 -0.0858 -0.2397  0.0356
32530W        W38980  16.853   1.163  18.495  0.0885 -0.0966  0.1250
32531W        W38981  14.742   3.635  17.775  0.0350 -0.0446 -0.1252
32532W        W38982  23.108   2.201   8.251 -0.0957  0.0688  0.1280
32533W        W38983  20.155   5.415   0.699 -0.0586 -0.0392 -0.0675
32534W        W38984  17.166   6.357  24.713  0.1583 -0.0969 -0.0388
32535W        W38985  28.115   2.694  15.475  0.1144  0.2465  0.1003
32536W        W38986   4.610   2.146  10.671  0.4789 -0.0956 -0.1871
32537W        W38987  25.999   0.520  18.739  0.1977 -0.0445 -0.1413
32538W        W38988   7.585   4.138  19.974  0.0596  0.0243  0.0624
32539W        W38989  17.549   7.233  24.580  0.2132  0.0239  0.0872
32540W        W38990  26.584   1.255   9.376 -0.2316 -0.0405  0.2269
32541W        W38991   2.307   2.715   1.760  0.3657 -0.0084  0.0348
32542W        W38992  28.391   2.657  22.526  0.1222  0.2172 -0.1529
32543W        W38993  13.682   0.672  18.697  0.1355  0.0581  0.1169
32544W        W38994  17.003   0.358  24.964 -0.2905 -0.2265  0.0581
32545W        W38995   4.606   0.181   3.947 -0.1624 -0.1386  0.3514
32546W        W38996  29.099   3.847  17.583  0.0532  0.1899  0.0828
32547W        W38997   9.284   0.165   5.094  0.0858  0.0070  0.2721
32548W        W38998   1.153   3.056  20.559 -0.0718  0.1637 -0.1482
32549W        W38999   5.653   1.410   7.832  0.2232 -0.1350 -0.2927
32550W        W39000  11.317   4.707  16.366  0.1101  0.0284 -0.1140
32551W        W39001  24.192   1.075   6.099 -0.2520 -0.2434  0.1250
32552W        W39002   3.461   6.331  16.527  0.1820  0.0477  0.1962
32553W        W39003  25.763   3.290  10.663  0.1848  0.2653 -0.2240
32554W        W39004  24.086   6.547  10.659 -0.1961  0.3273 -0.0350
32555W        W39005  29.476   6.090   4.262  0.1173 -0.2944 -0.1186
32556W        W39006   9.084   0.857  17.462  0.3269 -0.1778  0.0916
32557W        W39007  17.061   3.674  20.568 -0.2083  0.1321  0.1289
32558W        W39008  20.157   0.998  16.501 -0.0884 -0.1819  0.1601
32559W        W39009  26.264   7.300  15.935  0.1988 -0.1876  0.0259
32560W        W39010  11.753   0.921   3.213 -0.2505 -0.2188 -0.1579
32561W        W39011   5.770   3.758  25.031 -0.1888 -0.1725  0.2638
32562W        W39012  18.830   3.338  21.215  0.3379 -0.0266 -0.0608
32563W        W39013   7.318   3.350   5.689  0.2080 -0.0663  0.0989
32564W        W39014  25.898   3.694  21.336  0.1711 -0.0629 -0.1411
32565W        W39015   2.854   6.006  22.133 -0.2039  0.0987 -0.1063
32566W        W39016  27.438   2.194  23.702  0.2394 -0.3344  0.2183
32567W        W39017  29.466   1.967  19.134  0.0760  0.0591  0.0882
32568W        W39018   1.632   3.935  25.235 -0.0527 -0.1960 -0.0075
32569W        W39019  29.092   4.288   2.981 -0.0336 -0.1797  0.2340
32570W        W39020  11.497   4.551   6.309 -0.3448 -0.2600 -0.1182
32571W        W39021  30.948   1.187  10.990 -0.0096 -0.0355  0.3793
32572W        W39022  15.727   7.016  15.690  0.3481 -0.2201  0.0381
32573W        W39023  16.483   4.833  24.648 -0.0735 -0.0913  0.0708
32574W        W39024  25.362   3.439   1.324 -0.1036  0.1607  0.0424
32575W        W39025   6.999   7.319   7.961 -0.0997  0.3950  0.0046
32576W        W39026  11.505   3.995  24.280  0.0818  0.0409  0.2191
32577W        W39027  14.938   3.197  15.613 -0.0064 -0.0874 -0.2498
32578W        W39028  13.137   7.362  18.353  0.2950  0.3365 -0.0657
32579W        W39029   5.380   1.834  17.774  0.3084  0.1899 -0.2440
32580W        W39030  17.636   1.040  25.280  0.2663  0.0082 -0.1665
32581W        W39031   1.141   7.409   4.634  0.2204 -0.0044  0.0748
32582W        W39032  22.065   2.130   2.153  0.0168 -0.1794  0.3321
32583W        W39033  15.992   5.413  24.811 -0.0991  0.0330  0.1343
32584W        W39034  23.892   5.772  23.169  0.0320  0.1414  0.1159
32585W        W39035   3.681   3.555  18.034  0.1217 -0.2435  0.1648
32586W        W39036   3.135   4.222   2.294  0.1122  0.3259 -0.0046
32587W        W39037  10.395   0.886  20.997 -0.1049 -0.1338  0.2677
32588W        W39038   7.622   1.205  25.113 -0.0520  0.4884 -0.0860
32589W        W39039   0.582   6.032  19.811 -0.1182 -0.2816  0.0607
32590W        W39040  15.715   1.173  17.272  0.0273  0.0692 -0.0721
32591W        W39041  17.558   3.964  24.267  0.1633 -0.1723  0.2406
32592W        W39042   0.017   2.959   3.023  0.3429  0.0511  0.0871
32593W        W39043   6.713   1.415   7.233  0.1145 -0.4758 -0.1614
32594W        W39044  31.118   6.024   2.795 -0.0366  0.1549 -0.1394
32595W        W39045  25.873   6.706  15.485 -0.1146 -0.1418  0.1343
32596W        W39046  21.716   5.326  19.538  0.0734  0.1172  0.0629
32597W        W39047  23.879   4.565   4.765 -0.1072  0.2651  0.1187
32598W        W39048  10.553   6.885   5.425 -0.0271  0.1709  0.1697
32599W        W39049  21.663   7.604  10.289  0.2286  0.2424 -0.3929
32600W        W39050  15.444   4.106  16.874 -0.0092 -0.1874 -0.2941
32601W        W39051  27.370   0.540   4.172 -0.0615  0.2273 -0.0271
32602W        W39052  28.893   4.486  19.045 -0.1758 -0.1355  0.1243
32603W        W39053   4.600   7.726   9.210  0.0988  0.3395 -0.0836
32604W        W39054  28.219   3.813  23.373 -0.1040 -0.2004  0.2804
32605W        W39055   9.962   5.476   7.470 -0.3623 -0.0700 -0.1505
32606W        W39056  28.300   6.416   9.431 -0.3091 -0.2135 -0.0033
32607W        W39057  15.831   3.159   4.856  0.1161 -0.2407 -0.1421
32608W        W39058  29.907   5.781   0.860  0.0274 -0.0571  0.0336
32609W        W39059  23.351   5.589  16.776  0.5305  0.0895  0.3665
32610W        W39060   5.395   6.063  25.198  0.3247 -0.0614  0.3341
32611W        W39061   1.665   4.799  22.837  0.1366  0.2014  0.1233
32612W        W39062  22.257   3.805  20.937 -0.2934  0.0009 -0.2695
32613W        W39063  26.664   5.421  24.470  0.0989  0.0550 -0.2715
32614W        W39064   8.128   2.120  11.366 -0.4339  0.1551 -0.0941
32615W        W39065  22.652   4.066  19.059  0.0505  0.1975  0.0139
32616W        W39066  22.191   7.187   1.220  0.1207 -0.0299  0.3079
32617W        W39067  19.930   2.458   8.232  0.0851  0.1112 -0.1419
32618W        W39068  20.302   7.423  23.682 -0.0871 -0.1451  0.1964
32619W        W39069  20.515   2.249   7.198 -0.2726 -0.2513  0.4372
32620W        W39070  12.497   0.777   1.966  0.2428 -0.1927 -0.5032
32621W        W39071  14.261   6.744  16.621 -0.2091 -0.1709 -0.0023
32622W        W39072  28.084   5.675   3.637 -0.3972  0.2653 -0.2472
32623W        W39073  16.138   1.915   9.715 -0.0076 -0.1298  0.2019
32624W        W39074  18.719   6.758  16.485 -0.2633  0.0369 -0.1976
32625W        W39075   2.925   5.764   4.111  0.0713 -0.0137  0.1956
32626W        W39076   6.127   1.068   1.044 -0.0791 -0.0385 -0.0858
32627W        W39077  26.843   5.842  17.632 -0.1420 -0.1153 -0.1064
32628W        W39078   5.918   0.868  15.887 -0.0729 -0.0825  0.2964
32629W        W39079   8.504   3.029   5.067 -0.0119  0.1968 -0.2196
32630W        W39080   2.109   4.199  15.937 -0.0473  0.1021 -0.0834
32631W        W39081   8.247   4.792  24.070  0.0871  0.2402 -0.0058
32632W        W39082  27.036   0.203  20.882 -0.0692  0.1121  0.0276
32633W        W39083  20.885   1.469  10.895 -0.2415  0.2549 -0.0739
32634W        W39084  20.627   5.249   8.144 -0.0810  0.1782  0.0822
32635W        W39085  15.659   4.129  21.046  0.1556  0.2211  0.1499
32636W        W39086  18.622   3.311  18.859 -0.0259 -0.0352 -0.0157
32637W        W39087   9.763   7.516  21.202 -0.0002  0.1099 -0.2262
32638W        W39088  13.718   7.792   3.255  0.0036 -0.1495  0.1378
32639W        W39089  27.246   4.386  16.028 -0.0558  0.0805 -0.1500
32640W        W39090   6.352   1.178   9.775  0.1805 -0.2068 -0.0504
32641W        W39091  16.175   4.003  10.309  0.0619 -0.2234  0.0021
32642W        W39092   9.290   4.058  11.196  0.3085  0.0278  0.4207
32643W        W39093   2.884   0.896  17.280  0.0841  0.1589  0.0169
32644W        W39094  30.819   0.000   3.020  0.1448 -0.1075 -0.1776
32645W        W39095   2.161   0.727  17.918  0.0745  0.1277  0.2048
32646W        W39096   7.457   4.397   0.021  0.2855 -0.0590 -0.2770
32647W        W39097   8.148   2.744   7.651  0.1435 -0.0580  0.1841
32648W        W39098  23.944   2.549   8.575 -0.1214  0.0148  0.2435
32649W        W39099  30.931   1.103  16.422  0.1538 -0.0022  0.0712
32650W        W39100  14.818   7.623  17.242 -0.1947  0.0660  0.2436
32651W        W39101  23.297   6.875  19.398 -0.1646 -0.2752 -0.0729
32652W        W39102  25.148   1.547  20.683  0.1444  0.1937 -0.0814
32653W        W39103  15.536   1.136  16.805  0.2666 -0.1031 -0.2794
32654W        W39104  24.294   0.630   7.846  0.0435  0.0420  0.0278
32655W        W39105  14.554   2.445  24.471  0.1996 -0.1227  0.1194
32656W        W39106   3.078   3.128  26.357  0.0148  0.2299 -0.1026
32657W        W39107  16.833   6.812  19.249 -0.0965 -0.1913 -0.4101
32658W        W39108  10.120   4.634  14.553  0.0347 -0.0259  0.0822
32659W        W39109  10.014   1.787  25.202  0.0490 -0.1596 -0.0688
32660W        W39110   4.275   6.797   1.405  0.2185 -0.2160 -0.1199
32661W        W39111   8.394   2.779  15.692 -0.0047  0.2284  0.1994
32662W        W39112  11.597   5.285  16.819 -0.0686 -0.0729  0.2095
32663W        W39113  12.391   6.532  20.321  0.0763 -0.0254  0.1146
32664W        W39114  14.573   1.813   2.531  0.0254  0.0161 -0.0227
32665W        W39115   7.801   7.269  25.549 -0.2014 -0.1123 -0.1555
32666W        W39116   6.196   1.797   3.090 -0.2012 -0.0046  0.0733
32667W        W39117  23.435   7.532  25.713  0.4451 -0.1748  0.1211
32668W        W39118  14.009   0.759   7.478  0.0793 -0.1279 -0.1140
32669W        W39119  10.188   0.649  26.157 -0.0503 -0.2251  0.4219
32670W        W39120   4.382   4.058  25.991 -0.0694  0.1075  0.0943
32671W        W39121  13.406   2.307   7.200 -0.2170 -0.4338 -0.2028
32672W        W39122   4.192   4.045   6.741  0.1030 -0.2010  0.5550
32673W        W39123  15.027   6.459  18.344  0.0150  0.4179  0.1570
32674W        W39124  26.821   2.504   7.367  0.0321  0.0562  0.0250
32675W        W39125  26.366   3.073  24.064 -0.1596 -0.0466 -0.2733
32676W        W39126  24.419   0.354  15.412  0.0794 -0.1716  0.0466
32677W        W39127  27.605   3.099   4.848  0.0531  0.0243 -0.1787
32678W        W39128   7.528   1.708   2.033  0.0722 -0.0219  0.0925
32679W        W39129  21.848   6.617   0.439  0.0197 -0.0911 -0.3637
32680W        W39130  29.446   7.008   2.127 -0.2546 -0.2423 -0.1925
32681W        W39131   3.306   1.857  22.857 -0.1197  0.0960 -0.1788
32682W        W39132  27.515   5.159  18.358 -0.3679  0.1172 -0.1728
32683W        W39133  10.417   1.464   1.176  0.1179 -0.2023  0.0535
32684W        W39134  25.214   2.749  17.328  0.1184  0.1174 -0.0816
32685W        W39135  17.932   4.264   0.660 -0.1046  0.0140  0.0126
32686W        W39136  30.208   3.802  26.261  0.0123 -0.0907  0.0900
32687W        W39137  17.301   2.031  26.039  0.0811 -0.0729 -0.1190
32688W        W39138  19.859   5.056   8.233  0.1370  0.3124  0.0164
32689W        W39139  18.424   1.575   0.425  0.0536  0.1829  0.0194
32690W        W39140  18.146   3.672  16.623  0.0972  0.0882  0.1210
32691W        W39141   9.834   4.731   8.894  0.3422 -0.0488 -0.0018
32692W        W39142  23.105   3.468  19.468  0.1329  0.1149  0.4419
32693W        W39143  21.944   3.284  24.862  0.1619 -0.1200  0.1529
32694W        W39144  30.401   4.257   6.978  0.1462  0.1667  0.3581
32695W        W39145  14.489   5.947   5.708 -0.0761 -0.0602  0.2410
32696W        W39146  26.384   6.958   2.913 -0.0812 -0.0031 -0.0062
32697W        W39147   8.620   0.018  15.512  0.0409  0.0163  0.1458
32698W        W39148  29.832   7.629   3.618 -0.0565 -0.0902 -0.1276
32699W        W39149  30.059   1.475   9.594  0.1801 -0.3741  0.0044
32700W        W39150   5.140   2.386   6.450 -0.4389 -0.1986 -0.1547
32701W        W39151  14.969   5.356  10.716  0.1602  0.0949 -0.1461
32702W        W39152   2.342   2.644  17.094  0.4082 -0.2333  0.0751
32703W        W39153   1.295   5.410  25.111 -0.0668 -0.0520 -0.1384
32704W        W39154  15.649   5.152  22.984  0.1606  0.0238  0.1979
32705W        W39155  19.907   5.819   1.342  0.0872  0.1992 -0.2001
32706W        W39156  28.614   6.504   0.707 -0.2550  0.2014 -0.1957
32707W        W39157  17.339   4.259  15.347  0.2561  0.1576  0.0082
32708W        W39158  20.627   2.401   1.992 -0.0180 -0.1537  0.1123
32709W        W39159  28.690   4.673  25.883 -0.1602  0.2718 -0.1431
32710W        W39160  20.201   6.524  16.746 -0.0481  0.2034  0.0772
32711W        W39161  17.836   1.900  16.982  0.0454 -0.0310  0.0053
32712W        W39162  14.656   6.435   0.496  0.1459 -0.3363 -0.0421
32713W        W39163   1.883   4.754  18.134  0.1513 -0.0496 -0.0249
32714W        W39164  19.629   3.135   2.615  0.2550 -0.1076 -0.1244
32715W        W39165   4.108   6.624  22.197  0.3462  0.0591 -0.0261
32716W        W39166   1.091   4.699  15.443 -0.2382  0.3672 -0.0582
32717W        W39167  28.527   4.132   2.485 -0.0403 -0.1302 -0.1916
32718W        W39168  14.144   2.792  16.460 -0.0901  0.1595  0.0432
32719W        W39169  27.764   4.303  16.002 -0.0653  0.2060 -0.0713
32720W        W39170  20.971   7.422   6.481  0.2018  0.0445 -0.0202
32721W        W39171   0.404   0.037   1.799  0.0156  0.0755  0.1095
32722W        W39172  18.555   1.592   9.534  0.1504  0.1772  0.2056
32723W        W39173  29.806   6.238   0.635 -0.3205 -0.1140 -0.0803
32724W        W39174   8.765   3.169  16.639 -0.1600  0.0019 -0.0342
32725W        W39175   7.606   1.265  22.989  0.2375 -0.1072 -0.3819
32726W        W39176  12.922   3.062  20.746  0.1185 -0.0269 -0.1448
32727W        W39177  21.237   1.485   5.227  0.0420 -0.0669  0.3004
32728W        W39178  10.237   3.348  22.085 -0.1862  0.0050  0.0652
32729W        W39179  27.755   3.061  24.574 -0.0465 -0.0077 -0.3839
32730W        W39180  18.087   7.319  15.124 -0.0478 -0.0193  0.0707
32731W        W39181  17.364   2.461  10.021 -0.0602  0.1397 -0.2715
32732W        W39182  19.169   2.139   5.211  0.1394  0.0689  0.2244
32733W        W39183   5.199   0.238   9.891 -0.0093  0.0808 -0.1559
32734W        W39184  15.805   7.734  21.278 -0.1186  0.2906 -0.1911
32735W        W39185  15.909   0.318   4.400  0.0095  0.2494  0.0349
32736W        W39186  14.955   7.568   0.387 -0.0747  0.1509 -0.2202
32737W        W39187  13.093   5.571  23.959 -0.0132  0.0599  0.1030
32738W        W39188   5.270   4.232   8.259  0.0137  0.0569  0.2332
32739W        W39189  13.035   0.629   3.084  0.4456 -0.1519  0.2746
32740W        W39190  12.565   3.794   1.289 -0.0476  0.0591  0.0763
32741W        W39191   6.370   4.251  16.011 -0.1686 -0.0282  0.1979
32742W        W39192  15.022   4.901  21.281 -0.1178 -0.0597  0.0313
32743W        W39193   8.432   7.753   2.626 -0.0289 -0.0759 -0.2578
32744W        W39194   1.247   4.373   5.466 -0.1363 -0.0551 -0.0808
32745W        W39195  23.450   6.654  11.753  0.1604 -0.2719 -0.1140
32746W        W39196  20.027   3.849   6.401 -0.1032 -0.1875  0.0724
32747W        W39197   3.316   5.198  24.108  0.1386  0.0663  0.1505
32748W        W39198  10.289   7.470  25.918 -0.2005  0.2030  0.0524
32749W        W39199   9.278   1.297  10.124  0.0412 -0.1369  0.0672
32750W        W39200  29.980   6.824  23.422 -0.0291  0.0801 -0.0073
32751W        W39201   5.522   5.618  19.319  0.1345 -0.3299  0.0501
32752W        W39202  13.362   3.674   8.894 -0.0125  0.0437  0.1409
32753W        W39203   9.035   7.701  21.173 -0.0599 -0.0419 -0.2188
32754W        W39204   4.427   3.082  11.002 -0.2310 -0.0146 -0.0810
32755W        W39205  31.153   7.454  23.007  0.0546  0.0069 -0.1470
32756W        W39206   0.911   0.135   1.568 -0.1411 -0.0763  0.1260
32757W        W39207  27.309   5.199   3.342  0.1532 -0.2544  0.1383
32758W        W39208  14.296   7.292   7.146  0.0404  0.0298 -0.2201
32759W        W39209  25.149   5.519  10.772 -0.0065  0.1815  0.0403
32760W        W39210  15.322   0.041  23.611  0.0093  0.1362 -0.0830
32761W        W39211  24.760   3.645  17.728 -0.4304 -0.2883 -0.3008
32762W        W39212  15.668   6.489   7.987 -0.0624  0.0835  0.2580
32763W        W39213  24.747   7.579  25.819 -0.0116  0.1451  0.1079
32764W        W39214   0.182   4.557  26.034 -0.1902 -0.1063  0.1651
32765W        W39215  15.650   3.773  20.651 -0.0524 -0.2138 -0.0536
32766W        W39216  17.588   7.738  15.706  0.0575  0.2542 -0.0076
32767W        W39217   8.111   3.295  19.526 -0.0587 -0.1423  0.2512
32768W        W39218  22.510   0.925  17.200 -0.0814  0.0726 -0.0029
32769W        W39219  11.074   4.759  23.195 -0.0969  0.0579 -0.0068
32770W        W39220  23.272   1.439   6.004 -0.0675  0.2121  0.2018
32771W        W39221   4.216   0.831  17.427  0.0281 -0.0787 -0.1836
32772W        W39222  23.921   0.840  10.989  0.0071 -0.0406 -0.0654
32773W        W39223  17.833   0.075  22.898  0.0492  0.3456  0.2115
32774W        W39224  20.398   2.639   8.018 -0.2403  0.1767  0.5606
32775W        W39225  26.170   3.662  23.993 -0.0661 -0.1869  0.1854
32776W        W39226  11.137   0.747   5.459 -0.0861 -0.0933  0.2790
32777W        W39227  23.536   4.749   7.202  0.1067 -0.0638  0.1851
32778W        W39228  12.542   2.083  25.483 -0.3428 -0.5123 -0.0038
32779W        W39229  24.917   3.754   9.065 -0.0126  0.0512  0.1892
32780W        W39230  16.307   6.114  15.600  0.0979  0.0529 -0.3400
32781W        W39231   8.326   6.793   6.639 -0.0169  0.0039 -0.2388
32782W        W39232  13.113   1.261   8.242 -0.0469 -0.2215 -0.0568
32783W        W39233  23.014   2.274  23.547  0.3558 -0.0115 -0.0873
32784W        W39234  24.066   5.216  16.125 -0.2707  0.3346 -0.2090
32785W        W39235   3.287   1.981  23.988 -0.0191 -0.1324  0.2479
32786W        W39236   7.196   6.270   3.287 -0.3549  0.0489 -0.0114
32787W        W39237  21.563   7.791  24.456  0.0288  0.2380 -0.0684
32788W        W39238  29.361   1.229   9.438  0.4208  0.3311  0.1766
32789W        W39239   5.809   1.592  10.265 -0.0835  0.0229 -0.0855
32790W        W39240   1.714   0.894  24.653 -0.0054  0.2159 -0.0009
32791W        W39241  27.354   7.419  16.245  0.1339 -0.0237  0.0689
32792W        W39242  30.930   4.383  16.288  0.0252  0.1400 -0.1726
32793W        W39243   5.670   0.183  19.864 -0.0161  0.2358  0.0262
32794W        W39244  21.435   2.418   3.343 -0.2439 -0.0064 -0.0534
32795W        W39245  18.337   2.368  24.407  0.0802 -0.0595  0.1809
32796W        W39246  22.956   4.568   8.359  0.3042 -0.1971  0.2415
32797W        W39247  24.925   2.883  20.578 -0.0445  0.4189  0.2976
32798W        W39248   7.213   0.023   3.922  0.0046  0.1230  0.0555
32799W        W39249   3.487   2.918   5.659  0.0844 -0.0598 -0.1794
32800W        W39250  11.226   0.873  26.283  0.1799  0.1394 -0.0126
32801W        W39251  31.040   2.395   5.870 -0.0400 -0.0792  0.0139
32802W        W39252  21.075   5.283   7.227  0.0232  0.1610 -0.3169
32803W        W39253   7.105   7.504  17.969  0.0582  0.1911  0.0210
32804W        W39254   2.160   5.098  18.976 -0.0545  0.0313 -0.0097
32805W        W39255  25.591   0.855  22.256  0.1339  0.0520 -0.0648
32806W        W39256  11.260   3.742  21.581  0.0546  0.0111  0.0812
32807W        W39257  13.479   5.844   2.495 -0.2065 -0.1558  0.0185
32808W        W39258  17.851   4.393   3.901  0.1094  0.3596  0.0450
32809W        W39259   0.405   7.604  17.039  0.0474  0.1301 -0.3032
32810W        W39260  12.016   3.232   5.973 -0.2674 -0.2426 -0.1446
32811W        W39261   3.369   7.213  15.895  0.1512  0.1170  0.2221
32812W        W39262  29.126   1.016  21.095 -0.4680  0.2080 -0.2413
32813W        W39263  30.937   6.269  24.292 -0.0902 -0.1247 -0.2486
32814W        W39264  22.406   7.703   9.950  0.1792 -0.2420 -0.0537
32815W        W39265   9.127   6.469  26.116 -0.0942  0.0250 -0.0276
32816W        W39266   4.019   3.968   7.214  0.0675 -0.3506 -0.4575
32817W        W39267  17.368   3.358   1.811 -0.0982  0.1534 -0.0989
32818W        W39268  18.530   5.287  18.567  0.1496 -0.1076  0.0345
32819W        W39269   4.753   3.156   2.314  0.1126  0.0623  0.0204
32820W        W39270  16.215   5.315   3.973 -0.1583 -0.1915 -0.0091
32821W        W39271  20.227   0.739   9.409  0.0664 -0.3018  0.0380
32822W        W39272   9.870   5.882  23.447 -0.0776 -0.1113  0.3305
32823W        W39273  19.316   4.573  24.759 -0.2190  0.1959 -0.0039
32824W        W39274  28.825   4.551   2.646 -0.0767  0.1882 -0.1427
32825W        W39275  30.071   1.393  10.095  0.1504 -0.1184 -0.0035
32826W        W39276  19.135   2.274   6.981  0.0869 -0.2738  0.0592
32827W        W39277  14.018   4.344  22.669  0.1537  0.1520 -0.1504
32828W        W39278  10.877   1.564   1.151 -0.1961 -0.0125 -0.1059
32829W        W39279  16.321   4.612   8.646 -0.0014  0.1308 -0.0670
32830W        W39280   2.455   4.186   9.405  0.0344  0.0514  0.0490
32831W        W39281  24.153   7.463   5.067 -0.0080 -0.2513  0.3307
32832W        W39282   4.389   3.555  16.797  0.0243  0.0790 -0.0013
32833W        W39283  15.536   2.531  23.073  0.2199 -0.2431  0.2282
32834W        W39284  28.879   7.046   1.307 -0.1902 -0.1632 -0.0108
32835W        W39285  16.506   5.897  21.591  0.3026 -0.0762  0.1062
32836W        W39286  17.006   6.825   4.444 -0.1729  0.2232  0.4342
32837W        W39287   1.973   6.604  18.228  0.0175  0.0464 -0.2760
32838W        W39288  16.062   2.351  24.091 -0.0195 -0.1616 -0.3179
32839W        W39289  12.086   0.114  18.544  0.2636  0.1117  0.2541
32840W        W39290  21.674   5.897  22.437  0.4192  0.0670  0.1713
32841W        W39291  20.843   1.258  16.361  0.0413 -0.1533  0.1121
32842W        W39292  17.669   5.234   7.273 -0.1683 -0.2467  0.2584
32843W        W39293   3.361   3.385   5.771 -0.1900  0.3207 -0.0151
32844W        W39294  28.230   2.923  18.153 -0.1646 -0.0068 -0.0849
32845W        W39295  11.667   6.593   9.956 -0.0548  0.0404  0.2917
32846W        W39296  30.912   2.783  18.809 -0.0154  0.2192 -0.0192
32847W        W39297   3.036   1.934  20.398  0.0251 -0.2373  0.0375
32848W        W39298   7.712   1.850   9.182 -0.0395 -0.0484  0.5187
32849W        W39299   5.364   6.665  15.576 -0.0657 -0.2290 -0.1686
32850W        W39300  21.027   3.131  16.494 -0.0809 -0.2178  0.0891
32851W        W39301   9.766   1.218  22.485 -0.2261 -0.1153 -0.1489
32852W        W39302  16.263   1.529   1.175 -0.1628  0.0851 -0.0038
32853W        W39303   2.194   0.545  22.513  0.3475 -0.3444  0.1274
32854W        W39304  11.952   6.330   8.612 -0.1016 -0.0836  0.0836
32855W        W39305  10.138   0.944  16.282  0.3382  0.2197 -0.1454
32856W        W39306   8.251   4.879  21.957 -0.0301  0.2336 -0.0601
32857W        W39307   1.270   0.465   6.885 -0.1757 -0.0313 -0.0564
32858W        W39308  28.681   2.210  16.999  0.1722  0.1720 -0.1232
32859W        W39309  14.188   2.504  20.304  0.2153 -0.0331  0.1567
32860W        W39310  25.654   5.301  18.656 -0.2829 -0.1854  0.0032
32861W        W39311   9.924   5.187  20.816  0.1895 -0.3649  0.1054
32862W        W39312  30.128   2.882  22.848 -0.0460 -0.1408  0.0873
32863W        W39313   7.209   1.729  10.127  0.0613 -0.0092 -0.0949
32864W        W39314   4.433   7.241  26.306  0.0926  0.1866 -0.3693
32865W        W39315   2.254   6.205  23.836  0.3142  0.3885 -0.1478
32866W        W39316   4.211   7.346  16.709 -0.3045 -0.1292 -0.0718
32867W        W39317  28.826   3.184   6.309  0.2100 -0.0360 -0.0845
32868W        W39318   6.212   1.231  16.133  0.2219  0.0604 -0.2699
32869W        W39319   5.327   5.224   1.367  0.0888 -0.1233  0.0003
32870W        W39320   0.389   3.470   2.535 -0.0349  0.4009  0.2492
32871W        W39321   8.176   6.096  18.367  0.0171  0.0423  0.3558
32872W        W39322  19.870   0.378  24.683  0.0873  0.4584 -0.1656
32873W        W39323  16.952   4.106   1.085 -0.1480  0.0466  0.0163
32874W        W39324  23.851   7.683  25.385  0.0429 -0.1230 -0.0645
32875W        W39325  22.952   6.927   3.762  0.0477 -0.1070  0.0851
32876W        W39326  13.117   4.314  21.145  0.1804 -0.1587  0.0186
32877W        W39327  11.013   2.076  18.253  0.1012  0.0092 -0.0281
32878W        W39328  21.314   2.897   3.436  0.0378  0.0259  0.0743
32879W        W39329  12.260   1.100   8.074 -0.1353 -0.2458 -0.2093
32880W        W39330  15.328   1.014  21.904 -0.2750 -0.2038  0.0122
32881W        W39331   5.161   5.632  22.232  0.1296 -0.2365 -0.0476
32882W        W39332  10.412   3.952  21.141 -0.0243 -0.1865  0.0173
32883W        W39333  21.336   2.303   9.404 -0.0933 -0.0098  0.0732
32884W        W39334  12.543   2.060   2.511  0.1181 -0.1204 -0.0707
32885W        W39335  14.648   7.347   6.685  0.0519 -0.1314 -0.2761
32886W        W39336  22.267   5.158  26.204  0.0876  0.5408  0.2416
32887W        W39337  22.658   7.027   1.048 -0.2828 -0.1410  0.0806
32888W        W39338  29.447   7.448   1.822  0.0513  0.0051  0.3051
32889W        W39339   3.722   4.343  17.110 -0.0297 -0.0489 -0.1254
32890W        W39340  17.282   3.633   0.231  0.1014  0.1479 -0.0470
32891W        W39341  11.739   6.814   1.441 -0.0422  0.1427  0.0271
32892W        W39342  22.495   0.014  25.963 -0.0366 -0.2634 -0.1125
32893W        W39343  14.933   7.294  16.155  0.3666 -0.0789  0.2602
32894W        W39344   8.633   3.019  17.180 -0.0237  0.0104  0.0337
32895W        W39345   9.902   7.628  16.821  0.1371 -0.0311 -0.3529
32896W        W39346  28.308   1.517   4.544 -0.0306  0.0074  0.0729
32897W        W39347  13.412   1.664   7.972 -0.2449 -0.0526  0.2090
32898W        W39348  27.299   1.653   5.916  0.2687  0.2010 -0.2066
32899W        W39349   5.297   2.219  17.464 -0.2354  0.3161  0.0183
32900W        W39350   9.439   5.503   7.361  0.0657 -0.0907  0.4278
32901W        W39351  24.052   7.514   0.117 -0.0873 -0.1114  0.0326
32902W        W39352   9.180   5.736  25.021  0.0128 -0.0970 -0.1426
32903W        W39353   9.879   4.395  18.994 -0.0757  0.3408  0.1905
32904W        W39354   2.493   6.569  19.210 -0.0036 -0.0504  0.0231
32905W        W39355  30.889   2.905   3.978 -0.2230  0.0348 -0.1703
32906W        W39356   4.178   6.127  25.366  0.1767  0.4484 -0.1990
32907W        W39357  27.738   5.619   5.059 -0.0975 -0.3159  0.0031
32908W        W39358  16.226   2.798  21.853  0.0471 -0.0328 -0.2490
32909W        W39359  30.213   2.043  17.061 -0.1296 -0.1677  0.2131
32910W        W39360  19.069   4.759   9.575  0.1283 -0.1737 -0.2173
32911W        W39361  15.308   1.033   3.454 -0.0749 -0.0643  0.0696
32912W        W39362  16.279   6.788  24.988 -0.1667 -0.0774 -0.0118
32913W        W39363   1.859   3.000   1.593 -0.0015 -0.3714 -0.4118
32914W        W39364  24.805   4.727  10.391 -0.1859 -0.4170 -0.0915
32915W        W39365  23.657   3.718  18.671  0.1050 -0.0326 -0.0586
32916W        W39366   6.215   1.360  20.840  0.2329 -0.1966  0.0874
32917W        W39367   2.243   3.658  23.033  0.3167 -0.0587 -0.1411
32918W        W39368  28.091   0.940  19.704 -0.2099  0.1560 -0.0739
32919W        W39369   3.144   6.598   3.754  0.0893  0.1662  0.0714
32920W        W39370  25.209   2.556   7.338 -0.1727 -0.2271  0.2478
32921W        W39371  28.261   7.389  20.081  0.1929 -0.0665 -0.1320
32922W        W39372  20.632   3.068  20.120 -0.1979  0.0211  0.1338
32923W        W39373  16.356   6.380  26.191 -0.0584  0.1147 -0.0180
32924W        W39374   1.020   2.529   8.046  0.0091  0.1120 -0.2430
32925W        W39375   9.996   7.010   4.906  0.2160 -0.1470 -0.1461
32926W        W39376  14.866   1.232  17.882 -0.1956  0.1432  0.1424
32927W        W39377  22.405   6.508   9.124  0.0081  0.0155 -0.1099
32928W        W39378  25.458   6.033   6.026  0.0230  0.0897  0.1550
32929W        W39379  15.698   4.924   7.765  0.2417 -0.3269 -0.0641
32930W        W39380  26.479   1.157   4.859 -0.1166 -0.2240  0.0114
32931W        W39381   6.938   0.046   8.735  0.0974  0.0255 -0.1237
32932W        W39382  15.822   2.043  16.811  0.1036 -0.1803 -0.2265
32933W        W39383   9.354   7.061  20.196  0.2057  0.0410 -0.0390
32934W        W39384  17.342   3.463  24.611 -0.2500 -0.1229  0.1056
32935W        W39385  22.279   7.032  18.325  0.4780  0.2476  0.0628
32936W        W39386  13.144   6.896  16.003 -0.1156  0.0188  0.2526
32937W        W39387  11.936   0.825  23.040 -0.4474  0.0632  0.0734
32938W        W39388   7.820   6.924   2.689  0.1835  0.0187  0.0098
32939W        W39389  23.614   5.218  25.855  0.3061 -0.1425 -0.0420
32940W        W39390   7.259   5.790   2.894  0.1787 -0.0692 -0.2222
32941W        W39391   8.296   6.054  15.727 -0.0088  0.0613 -0.0030
32942W        W39392   7.324   5.032  22.284  0.4511 -0.1143 -0.1552
32943W        W39393  16.375   0.449   8.213  0.1918 -0.1455  0.0149
32944W        W39394  18.632   4.025  17.943  0.0702  0.0945  0.2528
32945W        W39395  12.785   3.509   6.343 -0.1607 -0.1848 -0.3533
32946W        W39396  20.185   1.950  16.419  0.2175  0.0092  0.0894
32947W        W39397  10.435   5.971  22.099 -0.0395 -0.0957  0.3290
32948W        W39398  20.445   0.276  21.423 -0.0013  0.1511  0.3098
32949W        W39399  15.288   7.412  22.484 -0.0614  0.5525 -0.2200
32950W        W39400  11.916   4.897   5.210  0.0720  0.1686  0.0803
32951W        W39401  21.729   6.534  21.661  0.1755 -0.0079 -0.2566
32952W        W39402  14.220   2.410   2.794  0.0666 -0.3940 -0.2070
32953W        W39403  14.275   0.974  25.336  0.1864 -0.1862 -0.4808
32954W        W39404  25.470   7.688  25.055  0.3272  0.0366  0.0981
32955W        W39405  20.150   5.051   8.937  0.1544 -0.0279 -0.0203
32956W        W39406  25.433   3.059  26.410  0.0206 -0.1513 -0.0009
32957W        W39407   7.277   6.815   6.610 -0.1570  0.2797 -0.0264
32958W        W39408  11.552   1.610  24.593  0.0449  0.3599  0.0034
32959W        W39409   2.518   2.494  23.653 -0.1281 -0.0916 -0.1413
32960W        W39410  23.143   6.221   2.677 -0.5012  0.0508  0.0594
32961W        W39411   6.849   3.475   6.299  0.2178 -0.0820  0.1267
32962W        W39412  17.212   5.972   0.069 -0.2030  0.2455 -0.4505
32963W        W39413  19.216   4.610  26.305  0.0899 -0.0758 -0.1224
32964W        W39414  24.801   3.990   3.903  0.2464  0.0837 -0.4395
32965W        W39415  25.748   4.858  18.602  0.0770 -0.0590 -0.1131
32966W        W39416  13.861   5.793   4.760 -0.0141 -0.3668  0.0515
32967W        W39417  24.662   6.381  20.342  0.1652 -0.1440 -0.1015
32968W        W39418  11.249   5.060  15.464 -0.1139 -0.1606  0.1759
32969W        W39419  30.617   7.271  24.905 -0.1270  0.1836  0.3042
32970W        W39420   9.995   3.659  22.790 -0.2407  0.3300 -0.2316
32971W        W39421  28.360   0.629  24.568 -0.0475  0.4274  0.2189
32972W        W39422   3.086   5.536  19.794 -0.0849  0.2296 -0.0371
32973W        W39423  25.053   3.103  26.066  0.1520  0.0055 -0.0116
32974W        W39424  21.509   1.561   3.084  0.0210  0.2682 -0.1131
32975W        W39425   0.748   6.581  24.705 -0.0027 -0.0592  0.1004
32976W        W39426  29.534   4.617  18.470 -0.0686 -0.0327  0.0576
32977W        W39427  17.211   0.172   0.492 -0.0007 -0.1677 -0.0217
32978W        W39428  13.627   3.078   2.799  0.2384 -0.0635 -0.2805
32979W        W39429  25.683   0.004  19.410  0.2049  0.1230 -0.0732
32980W        W39430  23.193   7.435   8.934  0.1587 -0.0763 -0.1503
32981W        W39431  13.582   3.981  24.452  0.2557  0.1758  0.0168
32982W        W39432  13.559   2.946  21.369  0.2504 -0.1207  0.1883
32983W        W39433  22.709   7.377   1.778  0.1418 -0.1067 -0.1958
32984W        W39434  13.853   1.556   8.535 -0.1579 -0.1790 -0.3358
32985W        W39435  20.780   1.447  26.393 -0.0114  0.0901  0.0064
32986W        W39436  24.982   6.800  20.305  0.1190 -0.4198  0.0701
32987W        W39437   9.271   3.226   5.497  0.2000 -0.2036  0.1818
32988W        W39438   1.973   4.355  22.782 -0.2380  0.2869 -0.3771
32989W        W39439  24.949   1.864  18.475  0.3158  0.1055 -0.1178
32990W        W39440  12.629   3.096   1.827  0.0419 -0.2760  0.0447
32991W        W39441   2.385   3.316  25.630 -0.0363  0.0902 -0.0529
32992W        W39442  25.319   4.625  10.612  0.1847  0.0934 -0.0829
32993W        W39443   7.876   1.975  17.203  0.0126  0.0257  0.1083
32994W        W39444  27.381   3.087  21.521 -0.0566 -0.1037 -0.5196
32995W        W39445  28.944   1.405   0.323 -0.0063  0.4601 -0.0130
32996W        W39446   8.569   1.659   5.726  0.1521 -0.0138  0.2540
32997W        W39447  10.388   0.462   6.226 -0.1627 -0.0727 -0.2030
32998W        W39448  17.970   2.135  24.677 -0.0535  0.1070  0.0646
32999W        W39449   3.352   0.847  11.259  0.0241 -0.2038  0.0493
33000W        W39450  15.200   3.432  25.244  0.0394 -0.0155 -0.0441
33001W        W39451  20.358   7.024  24.038  0.1914 -0.3253  0.0487
33002W        W39452   4.241   3.199   9.996 -0.1730 -0.2007  0.2390
33003W        W39453  29.284   7.003  24.189  0.1437  0.0303 -0.1858
33004W        W39454   0.721   2.745   0.189  0.0828 -0.2550 -0.0625
33005W        W39455  13.115   3.570   3.474 -0.0391  0.0269 -0.0078
33006W        W39456  24.138   3.257  25.794 -0.1895  0.0771  0.0282
33007W        W39457   5.919   6.743   7.535 -0.0257 -0.0712 -0.0756
33008W        W39458   6.586   2.659   9.896  0.0829  0.1658 -0.1936
33009W        W39459   8.292   5.817  22.948  0.0361 -0.0137 -0.4320
33010W        W39460   8.520   3.082   9.841 -0.1410  0.2367  0.0886
33011W        W39461  21.236   7.303  23.547  0.4269 -0.1676  0.1584
33012W        W39462  25.809   7.608  24.537  0.1256  0.1507 -0.0216
33013W        W39463   5.443   1.986   2.088 -0.3046  0.0393 -0.1024
33014W        W39464  18.902   5.070  21.292 -0.3652 -0.2807  0.0579
33015W        W39465  17.599   3.811  20.902 -0.1849 -0.0756 -0.0544
33016W        W39466   4.928   6.364  20.754  0.1125 -0.0773  0.1713
33017W        W39467   0.588   0.204   6.001  0.1284 -0.1336  0.0570
33018W        W39468  18.165   1.697  22.351 -0.0797 -0.2014 -0.0237
33019W        W39469  23.985   5.415  18.244 -0.2242 -0.0299  0.2203
33020W        W39470  26.320   6.499  25.332  0.0341 -0.3418  0.3320
33021W        W39471  30.374   5.103   3.665 -0.2110  0.2320  0.2996
33022W        W39472   6.217   1.947   7.306 -0.0350 -0.0689 -0.0237
33023W        W39473  18.103   2.573   3.805 -0.1962 -0.1481  0.0434
33024W        W39474   9.182   6.591  25.518  0.0706 -0.0734 -0.2049
33025W        W39475  13.882   3.896  14.758  0.3498 -0.2790 -0.2649
33026W        W39476  18.128   2.827  25.245  0.2770 -0.1871 -0.0131
33027W        W39477  17.360   6.350  23.688 -0.1113  0.1028 -0.0690
33028W        W39478   6.960   0.787  25.478 -0.2017  0.1956 -0.0511
33029W        W39479  24.354   2.187   1.896 -0.2489  0.0933 -0.0586
33030W        W39480   1.106   1.559   6.096 -0.1216 -0.1018  0.1333
33031W        W39481  11.578   4.051   6.325 -0.0673 -0.2824  0.0276
33032W        W39482  12.950   2.147   3.688 -0.2619  0.0388  0.1456
33033W        W39483  15.439   7.163  21.982 -0.0229  0.0744 -0.1179
33034W        W39484   8.579   7.548   5.033 -0.1303  0.0810 -0.2807
33035W        W39485  23.628   1.291  24.059 -0.0292 -0.1070  0.1100
33036W        W39486  21.080   7.262  18.233 -0.0015  0.0656  0.0591
33037W        W39487  31.147   7.737  15.183  0.0164  0.0309 -0.1686
33038W        W39488  23.121   4.673   7.839 -0.2472  0.1938  0.2407
33039W        W39489   3.693   6.333  22.029  0.0999  0.1163  0.0490
33040W        W39490  16.996   7.058   4.873 -0.0111 -0.3980 -0.0393
33041W        W39491   8.783   5.892  21.001 -0.0585 -0.2427  0.0270
33042W        W39492  19.486   6.257   8.123 -0.0326  0.0241  0.0242
33043W        W39493  29.445   7.590  21.151 -0.2726  0.1141 -0.2169
33044W        W39494   5.319   4.464  20.834 -0.1794 -0.0557  0.0616
33045W        W39495   2.086   6.410  18.663  0.0111 -0.0642  0.0373
33046W        W39496   2.714   3.650  22.880 -0.2008 -0.0382  0.0971
33047W        W39497   2.820   2.579   9.904  0.0303  0.0030  0.0932
33048W        W39498  23.647   7.555  19.027  0.0674  0.1010 -0.1392
33049W        W39499  24.039   3.808  25.117  0.0034  0.2833  0.3110
33050W        W39500  18.316   1.233  20.964  0.0858 -0.0165  0.0445
33051W        W39501   2.073   0.028  25.113  0.0632  0.4413 -0.2882
33052W        W39502   7.180   2.644   1.921  0.1472 -0.0434 -0.1424
33053W        W39503  22.860   4.362  17.777 -0.0625 -0.0719  0.3686
33054W        W39504  24.578   4.759   0.906  0.2416 -0.0832 -0.0008
33055W        W39505  22.664   4.072  10.430  0.1396 -0.0357 -0.0929
33056W        W39506  29.716   1.357   0.162 -0.1546  0.0339 -0.1148
33057W        W39507   6.564   7.654   1.353 -0.2997  0.0080 -0.0974
33058W        W39508  22.036   2.736  26.285  0.0249 -0.3366 -0.1508
33059W        W39509   9.309   6.096  22.210 -0.4212 -0.2145  0.2541
33060W        W39510  24.943   1.671  20.257 -0.2366 -0.0093  0.0353
33061W        W39511  28.453   3.516   6.475 -0.0921  0.0900  0.0637
33062W        W39512   8.036   2.708  20.332 -0.1156 -0.2461 -0.3502
33063W        W39513  19.177   6.746  11.812 -0.1643  0.1361  0.1807
33064W        W39514   3.667   2.778  15.230 -0.1349  0.2789 -0.2559
33065W        W39515   2.566   2.091  16.283  0.0896  0.1718  0.2015
33066W        W39516   9.937   0.977   9.192  0.0441  0.1841 -0.1474
33067W        W39517  21.232   4.473  26.401  0.2195  0.3734  0.3954
33068W        W39518  11.708   3.569  20.871  0.1960  0.0814  0.1811
33069W        W39519  11.977   1.793   8.693 -0.0663  0.1049  0.2932
33070W        W39520   1.545   3.253  10.349 -0.1597  0.3807  0.0397
33071W        W39521  14.304   1.361  23.702 -0.2198  0.1975 -0.2827
33072W        W39522  28.955   2.249  23.865  0.1783  0.0881 -0.0820
33073W        W39523   8.179   1.865  16.719 -0.2076  0.0444 -0.1751
33074W        W39524  12.526   6.117   4.939 -0.0088  0.3577  0.2150
33075W        W39525   1.806   6.062  16.619 -0.2549  0.0788 -0.2223
33076W        W39526  10.691   1.338  21.126 -0.0090  0.1337 -0.0165
33077W        W39527  26.941   0.287  10.662 -0.0219 -0.1141  0.1346
33078W        W39528  10.061   6.683  21.544 -0.0903  0.0367  0.2626
33079W        W39529   3.537   4.678  20.976 -0.0613  0.2361 -0.2050
33080W        W39530  11.601   5.520   1.771  0.1505  0.0471  0.0871
33081W        W39531   9.445   4.878  21.394  0.0837  0.2897 -0.2659
33082W        W39532  18.208   6.851   5.209 -0.3047 -0.0205  0.3001
33083W        W39533   9.600   1.474  25.137 -0.0775  0.0346 -0.1000
33084W        W39534  18.610   6.841  10.839  0.1173 -0.2376 -0.0687
33085W        W39535   8.857   4.115  21.733  0.1240 -0.0971  0.0791
33086W        W39536   4.216   3.803   5.852  0.3499 -0.0419  0.1973
33087W        W39537   1.206   4.159  25.957  0.0190 -0.0005 -0.0486
33088W        W39538  29.853   1.599  22.639  0.2768  0.0607 -0.1150
33089W        W39539   3.892   6.739  18.953 -0.0299 -0.2909  0.2828
33090W        W39540   6.335   3.473  16.416  0.0472 -0.4948  0.0555
33091W        W39541   3.738   3.216  18.873 -0.0856 -0.2709  0.0122
33092W        W39542  30.542   3.489  24.554  0.1787 -0.3402 -0.1864
33093W        W39543   1.555   1.270  22.721  0.3033 -0.0089 -0.0554
33094W        W39544  28.934   4.256  21.127 -0.2785 -0.1342  0.1814
33095W        W39545  21.733   5.241  25.383  0.0123 -0.0422 -0.0629
33096W        W39546  22.920   4.202  10.855 -0.2881 -0.1467  0.5895
33097W        W39547  28.457   2.009  18.918  0.2532 -0.0448 -0.0749
33098W        W39548  10.040   3.713   9.071 -0.1058 -0.3230  0.3486
33099W        W39549   8.430   6.553  18.466 -0.0233  0.0011 -0.1535
33100W        W39550  30.041   0.548  23.157 -0.2647  0.0849  0.2025
33101W        W39551  26.682   1.692   2.562  0.0014  0.0391  0.4997
33102W        W39552   7.464   1.668  17.611  0.0666  0.2934  0.2058
33103W        W39553   9.230   3.127  16.997  0.2056  0.1015  0.3452
33104W        W39554  27.620   6.639  17.995 -0.0780  0.2225  0.2502
33105W        W39555  26.015   6.166   4.879 -0.1688 -0.0650  0.2268
33106W        W39556  25.457   1.569  25.082  0.0370 -0.1492  0.1732
33107W        W39557  23.999   0.738  15.404  0.0540 -0.3305 -0.2796
33108W        W39558  30.845   2.995  20.049 -0.1269 -0.2062 -0.1469
33109W        W39559  22.301   4.682   9.882 -0.2499  0.0096  0.0411
33110W        W39560  17.149   3.319  15.595  0.0142 -0.0666 -0.0576
33111W        W39561   0.014   6.553   2.557  0.1299  0.1080 -0.2391
33112W        W39562  24.710   1.775   0.368  0.3211 -0.2694 -0.0233
33113W        W39563  20.899   2.077   7.425 -0.0179  0.0004  0.1752
33114W        W39564  25.396   4.154   1.074 -0.0252  0.1431  0.0584
33115W        W39565  21.791   3.031   4.639 -0.0571 -0.2088  0.1583
33116W        W39566  29.281   1.906  21.733 -0.1948 -0.1615  0.1233
33117W        W39567  27.438   2.634  16.280  0.1297 -0.2686 -0.1919
33118W        W39568  28.628   0.515  17.513 -0.1730 -0.1639  0.2129
33119W        W39569  11.121   2.559  17.948  0.0288  0.0430  0.2953
33120W        W39570  12.806   0.056  15.600 -0.4276 -0.0400  0.2400
33121W        W39571   1.870   4.019   5.802  0.0288  0.1048  0.1015
33122W        W39572  30.217   5.797  25.559  0.1006  0.0193  0.3604
33123W        W39573  24.052   1.698  22.700  0.2330 -0.2291  0.1106
33124W        W39574   1.772   5.021  19.440 -0.1755  0.2578 -0.3327
33125W        W39575  11.097   2.362   0.553  0.1307 -0.0993 -0.0407
33126W        W39576   4.886   0.043  10.280 -0.0987 -0.3774 -0.1775
33127W        W39577  18.373   1.279   5.069 -0.0594  0.1374  0.0054
33128W        W39578   0.177   4.612  21.450  0.0957 -0.0877 -0.3333
33129W        W39579   4.289   0.990  23.482 -0.2245 -0.1068  0.1107
33130W        W39580  24.540   3.398   1.673 -0.0633 -0.2267  0.0603
33131W        W39581  18.299   5.022  23.937  0.1440 -0.0161  0.0369
33132W        W39582  23.475   5.552   4.025 -0.1307 -0.0560  0.0946
33133W        W39583  16.830   2.534  24.028 -0.2698 -0.1123 -0.0456
33134W        W39584  17.874   2.912   6.462 -0.2491  0.1666  0.1979
33135W        W39585  11.183   6.685  26.413 -0.1349 -0.3386  0.4092
33136W        W39586  17.620   0.396   2.005 -0.2250 -0.1117 -0.2478
33137W        W39587  17.908   2.347  21.474  0.2228  0.0754  0.0636
33138W        W39588   9.041   6.772   2.022  0.2231  0.0269 -0.2478
33139W        W39589  25.353   4.452  25.019  0.3926  0.0458  0.1308
33140W        W39590  21.078   7.695   0.546 -0.0214  0.0812  0.2259
33141W        W39591  22.236   4.138  24.133 -0.0702 -0.0951 -0.0279
33142W        W39592  30.338   7.617  20.778 -0.1647  0.4113  0.0691
33143W        W39593   9.245   7.203   2.494  0.0850  0.2611 -0.1609
33144W        W39594  23.226   7.680   4.547  0.0233  0.2252 -0.0518
33145W        W39595   1.787   4.428  25.181  0.0796  0.1060  0.1157
33146W        W39596   3.936   3.252   9.045  0.2711  0.3270 -0.0082
33147W        W39597  19.873   0.392   6.253 -0.3004 -0.0987 -0.0238
33148W        W39598   3.724   3.908  19.520  0.0026 -0.1262 -0.1165
33149W        W39599  12.962   4.613  21.542 -0.1133 -0.2902 -0.3061
33150W        W39600   0.342   3.185  24.869  0.1403 -0.0470 -0.0267
33151W        W39601  13.126   0.023   8.480 -0.1556 -0.1412 -0.0286
33152W        W39602  16.281   4.483  15.480 -0.2198 -0.0712 -0.0017
33153W        W39603  10.738   1.762  23.512 -0.0190 -0.1244  0.0054
33154W        W39604  15.727   2.026  25.450  0.3022 -0.4119 -0.1448
33155W        W39605  27.662   0.105   9.154  0.1174  0.2536 -0.1795
33156W        W39606  18.590   1.477  24.465 -0.1382  0.0943  0.0666
33157W        W39607  14.310   3.196   4.365  0.0349  0.0833 -0.0006
33158W        W39608  24.442   6.453  17.331  0.1634 -0.2851 -0.1998
33159W        W39609   6.702   3.084   5.150  0.1614  0.0974 -0.1166
33160W        W39610   0.921   4.888  23.163  0.0900 -0.0345  0.1504
33161W        W39611   6.868   3.614  24.567 -0.0295 -0.1527 -0.1621
33162W        W39612  19.798   0.464  20.305  0.0863 -0.0582 -0.0206
33163W        W39613  29.286   2.563  18.323  0.1184  0.2653  0.0034
33164W        W39614   8.241   3.480  19.061 -0.0372  0.0244  0.1975
33165W        W39615  27.364   7.116  23.734 -0.0404 -0.0336  0.0077
33166W        W39616   8.098   1.320   4.206  0.0144  0.1053 -0.0148
33167W        W39617  12.176   6.710  23.348 -0.2264  0.2446 -0.0903
33168W        W39618  12.246   6.928  15.114 -0.1449  0.1618  0.3545
33169W        W39619  18.017   0.963   7.372 -0.1625  0.1720 -0.1666
33170W        W39620  17.235   2.817  22.809 -0.1658 -0.0786 -0.0406
33171W        W39621  10.939   3.865   4.422 -0.1351  0.1131 -0.1751
33172W        W39622  24.956   6.736  15.891 -0.0073  0.2533  0.1388
33173W        W39623  17.488   5.051   3.051  0.0094 -0.2144 -0.1518
33174W        W39624  16.378   3.851  10.752 -0.1961 -0.0815 -0.1557
33175W        W39625  21.146   4.890  23.484  0.1503 -0.0894  0.0216
33176W        W39626   1.046   3.282  18.900  0.0158 -0.0057  0.1024
33177W        W39627   3.653   7.634   6.042  0.2132  0.3213  0.1256
33178W        W39628  24.598   5.582  19.714 -0.0198  0.0505  0.2287
33179W        W39629   7.862   3.849   2.552  0.0490  0.3352 -0.1959
33180W        W39630  25.332   7.288  17.493  0.0105 -0.2993  0.0349
33181W        W39631   0.015   1.330  23.792  0.1422 -0.2778  0.1176
33182W        W39632  21.976   6.975  11.419 -0.0197 -0.0803  0.1194
33183W        W39633   3.948   1.829   8.042 -0.1070 -0.0084 -0.0839
33184W        W39634  30.624   4.763  25.297 -0.0577 -0.2184  0.1519
33185W        W39635  19.513   6.489  20.157 -0.1095 -0.1409  0.1164
33186W        W39636  24.015   4.139   0.569 -0.0179 -0.0596  0.0369
33187W        W39637  16.227   0.803  17.823 -0.1244  0.0031  0.0942
33188W        W39638   6.989   3.542   7.052  0.0508  0.1911 -0.0262
33189W        W39639  27.683   4.550  22.082  0.0857 -0.0446  0.1150
33190W        W39640   7.534   7.201   6.416 -0.0614  0.1337  0.2991
33191W        W39641  24.551   5.013  10.725  0.1479 -0.1201 -0.0299
33192W        W39642  27.602   5.646  18.225  0.0209  0.0990 -0.1537
33193W        W39643  22.285   7.598  18.115 -0.1321 -0.0707  0.3321
33194W        W39644  20.390   4.959  19.963 -0.3262  0.0080 -0.2589
33195W        W39645   6.275   4.665  23.165 -0.1496 -0.0483  0.0934
33196W        W39646  11.675   3.731  17.325  0.1062  0.0480 -0.2690
33197W        W39647   1.167   5.203  22.877 -0.3715  0.4282 -0.2856
33198W        W39648  11.941   7.308  16.263  0.0142  0.1390  0.0086
33199W        W39649   8.522   6.417  23.225 -0.1949  0.3330 -0.1433
33200W        W39650   2.437   4.138   7.156 -0.3870 -0.0311 -0.0810
33201W        W39651  11.600   4.066  26.035  0.2091  0.0363 -0.2036
33202W        W39652  18.451   3.739   5.026 -0.3454 -0.0514 -0.1640
33203W        W39653  30.144   2.578  21.161  0.1471 -0.0149 -0.2054
33204W        W39654   5.681   5.183  25.763 -0.2822 -0.0914 -0.0389
33205W        W39655  13.397   6.905   7.474 -0.0581 -0.2750 -0.0203
33206W        W39656  11.437   2.736   8.445  0.0828  0.2111  0.2668
33207W        W39657  13.723   0.197   2.701 -0.0409  0.0465 -0.0302
33208W        W39658   9.011   3.429  10.731  0.0779 -0.2149  0.0053
33209W        W39659   1.821   6.000   6.329 -0.0016  0.0474 -0.3289
33210W        W39660   3.279   2.631   1.808  0.0679 -0.0674  0.0093
33211W        W39661   2.643   1.755  15.731 -0.1891  0.1231  0.1240
33212W        W39662   2.046   3.735  24.007 -0.3605  0.3292 -0.0486
33213W        W39663   7.435   6.716  10.957  0.0156 -0.0886 -0.2633
33214W        W39664   6.847   0.769   2.630  0.0931  0.0806 -0.2275
33215W        W39665  28.782   1.927  21.600  0.1475 -0.1565 -0.0613
33216W        W39666  15.208   7.114  15.697  0.0062 -0.2127  0.0008
33217W        W39667  18.262   3.197   2.697  0.3474  0.2094  0.0402
33218W        W39668   6.025   2.473  19.094 -0.0191 -0.2254  0.0657
33219W        W39669  16.175   2.557   9.166  0.2056 -0.0435  0.1069
33220W        W39670   4.696   5.768  23.477  0.1411 -0.0194  0.0092
33221W        W39671  31.115   5.356   1.485  0.0930  0.0155  0.0205
33222W        W39672  18.545   1.256  22.606 -0.0780 -0.1192  0.2486
33223W        W39673  23.114   5.769   5.905  0.2716 -0.1487  0.0061
33224W        W39674  13.279   0.572  16.321 -0.1768  0.1331 -0.0506
33225W        W39675  25.135   2.046   3.464 -0.0945 -0.0100 -0.0243
33226W        W39676   5.168   3.333  18.290 -0.2047  0.0862  0.3833
33227W        W39677  13.896   0.576   8.309  0.1177 -0.1178 -0.0428
33228W        W39678  23.617   7.265   9.616 -0.0874  0.0852  0.2470
33229W        W39679  31.043   6.089  15.888  0.0363  0.0729 -0.0400
33230W        W39680   4.729   2.462   5.708  0.3910 -0.0413 -0.1813
33231W        W39681   0.449   1.520   3.337  0.0966  0.2213 -0.0700
33232W        W39682   8.954   2.715   0.127  0.0621 -0.0706 -0.1847
33233W        W39683  17.613   6.570   3.643 -0.2098 -0.2447 -0.0828
33234W        W39684  20.084   7.663  25.527  0.0762  0.0447  0.1120
33235W        W39685  13.368   0.560  20.496 -0.2073  0.0356  0.0918
33236W        W39686   7.788   1.212  20.887 -0.0526  0.2161 -0.0040
33237W        W39687   2.795   6.482   8.311  0.0629 -0.1025  0.0818
33238W        W39688   2.295   0.380   4.064 -0.0070  0.1616  0.1557
33239W        W39689  11.907   7.072   9.860  0.1059 -0.1785  0.0443
33240W        W39690  28.335   0.217   4.184 -0.0011 -0.2305 -0.2508
33241W        W39691   0.729   5.314  19.573  0.3423  0.3810  0.1591
33242W        W39692  12.493   7.328  17.525  0.1095  0.0884 -0.2315
33243W        W39693  19.380   7.796  17.691  0.0300  0.3151 -0.0017
33244W        W39694  21.557   2.989   1.032 -0.3180 -0.4834  0.0798
33245W        W39695  10.473   3.153  17.638 -0.1075  0.0920  0.1029
33246W        W39696  22.478   1.357  24.530  0.1330 -0.4663  0.1877
33247W        W39697   0.693   7.015  15.364 -0.0508 -0.0244 -0.2705
33248W        W39698   8.266   7.339   7.601 -0.0630 -0.1794 -0.1594
33249W        W39699  23.983   0.750  22.262 -0.1513 -0.0042 -0.0975
33250W        W39700  14.250   4.893   1.989 -0.0773 -0.0138 -0.0891
33251W        W39701  20.324   5.574  18.123 -0.2227  0.1383 -0.0967
33252W        W39702  16.001   0.570  24.735  0.0794 -0.0553  0.2007
33253W        W39703   9.693   4.996  25.125  0.1326 -0.0582 -0.0179
33254W        W39704   1.997   7.057   8.641 -0.1018  0.3065 -0.1878
33255W        W39705   2.500   2.294   9.557 -0.3890 -0.1553  0.3069
33256W        W39706  27.045   1.354  24.339  0.0464  0.1248 -0.1331
33257W        W39707  22.007   4.142  26.191  0.0103 -0.1167  0.1366
33258W        W39708  14.105   2.680   3.238 -0.1690 -0.0129  0.2789
33259W        W39709  20.027   0.077  23.621 -0.3270 -0.1228  0.1228
33260W        W39710  10.361   5.373  26.131 -0.0232  0.0823 -0.4178
33261W        W39711  22.951   6.892   1.923 -0.2243 -0.3014  0.1608
33262W        W39712  25.133   2.950  18.148 -0.3692  0.4783 -0.0923
33263W        W39713   7.694   2.475   7.843  0.0431  0.3031 -0.0694
33264W        W39714  19.199   5.719   5.042 -0.3591  0.3146  0.2021
33265W        W39715   7.018   7.275  16.247 -0.0853 -0.0930 -0.1892
33266W        W39716  17.084   0.737  25.456 -0.2513 -0.1254 -0.0248
33267W        W39717   2.211   4.911   1.753  0.0847 -0.0149  0.0174
33268W        W39718  10.134   5.271  25.118  0.2133  0.1824  0.3744
33269W        W39719  20.259   5.633  26.162 -0.1466  0.1352  0.1288
33270W        W39720  16.861   2.120  18.386  0.0495  0.1139  0.1304
33271W        W39721   6.139   3.213  17.345  0.1584  0.2066 -0.1071
33272W        W39722  29.578   0.823  18.410  0.1449 -0.0123  0.1342
33273W        W39723  24.155   5.892   1.254 -0.0664 -0.3139  0.0046
33274W        W39724  12.419   0.140   4.886  0.2116 -0.1803 -0.2180
33275W        W39725   9.731   0.355   6.939 -0.1458 -0.1221  0.0494
33276W        W39726  12.996   7.001   1.399 -0.0908 -0.0650  0.0371
33277W        W39727   9.978   2.265  22.812  0.1192  0.1168  0.1246
33278W        W39728  23.183   5.353  26.233 -0.2646 -0.1569 -0.1974
33279W        W39729   6.542   6.424   9.956 -0.1658  0.1502  0.2759
33280W        W39730  11.096   7.021  18.118  0.2538  0.0967  0.0164
33281W        W39731  20.768   5.843  21.919  0.0477 -0.1650 -0.1664
33282W        W39732  14.907   0.426  25.021  0.0449  0.1344 -0.0230
33283W        W39733  20.848   4.348   6.013 -0.0179 -0.0217 -0.0870
33284W        W39734   4.169   5.803  18.052 -0.3067 -0.0191  0.2570
33285W        W39735  25.910   3.490  16.667 -0.2595  0.2398  0.0934
33286W        W39736   0.066   1.474  25.998 -0.3080  0.0438  0.0622
33287W        W39737   2.863   3.689  20.202 -0.2772 -0.1308  0.1002
33288W        W39738  16.239   3.788  22.772 -0.3011 -0.0607  0.1540
33289W        W39739   2.704   0.401  23.060  0.0742  0.3468  0.0026
33290W        W39740   2.362   7.790  19.229 -0.0418 -0.1320 -0.3653
33291W        W39741  11.567   0.369  10.657 -0.0948  0.1621  0.1121
33292W        W39742  17.283   0.543  19.052 -0.1814  0.0755 -0.1694
33293W        W39743   1.194   2.209   4.899 -0.0400 -0.2850 -0.0311
33294W        W39744   1.158   1.906  24.708  0.0178 -0.3067 -0.0657
33295W        W39745   3.828   0.591   1.784  0.0355  0.0568  0.3459
33296W        W39746  10.774   1.721   5.676 -0.0783 -0.3701 -0.1830
33297W        W39747  20.632   5.685   7.187 -0.2172  0.0895  0.2150
33298W        W39748   9.056   4.828  24.369  0.3072 -0.1727 -0.2372
33299W        W39749  25.676   3.043  22.038 -0.1212 -0.1570  0.3439
33300W        W39750  26.181   7.649   1.403 -0.1360  0.1572 -0.2590
33301W        W39751   0.020   5.025   4.903 -0.0453 -0.3074 -0.0764
33302W        W39752  28.776   2.214  11.404 -0.1059  0.2089  0.0506
33303W        W39753  24.648   2.608  21.865  0.0309 -0.0146 -0.0661
33304W        W39754   9.489   2.363   6.794  0.0507  0.2528  0.1003
33305W        W39755  26.252   0.994  25.292 -0.2836  0.0566  0.1153
33306W        W39756  21.137   7.763  24.764 -0.0075  0.1404  0.1153
33307W        W39757  17.316   7.355   8.716  0.2176 -0.0302 -0.2507
33308W        W39758  27.928   3.983  20.115  0.1572 -0.3301 -0.0477
33309W        W39759  10.938   4.964   4.250  0.0748 -0.0725 -0.1741
33310W        W39760  16.027   7.685  17.749 -0.0929  0.0938  0.1468
33311W        W39761  10.566   0.881  19.884 -0.2884 -0.0625  0.0173
33312W        W39762   1.630   5.204   5.339  0.0467 -0.1271 -0.0311
33313W        W39763  22.051   4.897  19.716  0.5319 -0.2568  0.0425
33314W        W39764  10.458   4.000   9.548  0.3498 -0.2266 -0.0955
33315W        W39765   8.400   0.269   5.601  0.1932 -0.1523 -0.0027
33316W        W39766  16.522   4.517   3.776  0.1400 -0.0172  0.2847
33317W        W39767  15.002   5.643  20.763  0.1987  0.3319 -0.2413
33318W        W39768   1.631   0.299   3.286  0.0077 -0.1237  0.0200
33319W        W39769  12.569   0.581  21.664 -0.0951  0.1569 -0.2387
33320W        W39770   1.308   2.180   6.077 -0.0142  0.0234  0.2307
33321W        W39771   9.707   3.279  16.851 -0.0781 -0.0954  0.0009
33322W        W39772  17.413   6.908  22.858 -0.1325 -0.1081 -0.2684
33323W        W39773  12.062   5.222  26.387  0.1142 -0.1635  0.0999
33324W        W39774  14.803   1.965   9.379 -0.1818  0.1585  0.1767
33325W        W39775   9.119   2.621  18.710  0.1608  0.1262  0.0292
33326W        W39776  21.415   6.198  20.429 -0.1349 -0.3273 -0.0466
33327W        W39777   4.042   2.852  18.652 -0.1101  0.0000 -0.1881
33328W        W39778   2.563   3.114  22.286  0.2746  0.0622 -0.1686
33329W        W39779  10.212   2.463   4.647 -0.0177  0.1157  0.2096
33330W        W39780  21.470   3.862   4.723  0.1147  0.1223  0.3087
33331W        W39781   1.816   2.529   3.134 -0.2279 -0.1072 -0.0182
33332W        W39782  27.800   6.416  26.058 -0.1557  0.3023 -0.0293
33333W        W39783   8.028   7.092  18.073 -0.2048 -0.1004 -0.2597
33334W        W39784  16.143   2.100  20.170  0.0527 -0.0186  0.1777
33335W        W39785  30.254   3.610  18.866 -0.0664 -0.0009  0.1487
33336W        W39786   7.779   4.418  18.965  0.2595 -0.3343 -0.0149
33337W        W39787   1.929   1.042  21.364  0.2636 -0.2974 -0.0475
33338W        W39788  25.904   1.448   8.530  0.0079 -0.1836  0.0469
33339W        W39789  22.636   3.460  17.308  0.1121  0.0742 -0.3653
33340W        W39790   3.290   4.047   0.169  0.1924 -0.2570  0.2843
33341W        W39791  28.380   2.463   5.762 -0.0696 -0.1522  0.3723
33342W        W39792  21.861   6.595  24.939 -0.1803 -0.2292  0.1267
33343W        W39793  21.528   7.321  19.465  0.0943  0.0803  0.0371
33344W        W39794  24.081   3.562   2.962  0.0803  0.0226  0.5474
33345W        W39795  27.707   1.565   1.542 -0.0344  0.0860  0.1911
33346W        W39796  10.463   2.893   1.234 -0.0630 -0.1955 -0.3740
33347W        W39797  22.913   3.713   3.306 -0.1857  0.2299  0.2410
33348W        W39798  29.376   6.137  17.338  0.2542 -0.1036  0.3949
33349W        W39799  28.601   1.859   9.958 -0.3250  0.0139 -0.1559
33350W        W39800   5.938   1.083   1.966 -0.0479  0.0552 -0.1339
33351W        W39801   8.217   5.298  23.996  0.2473  0.0983  0.2106
33352W        W39802   5.065   5.572   5.235  0.2097 -0.2320 -0.0503
33353W        W39803  20.583   1.952   3.193 -0.1423  0.0404  0.2177
33354W        W39804  31.198   0.848   2.973 -0.0046 -0.1709  0.1138
33355W        W39805  22.728   6.155  24.260  0.0856  0.1178 -0.1733
33356W        W39806  19.269   3.985   5.257  0.3180 -0.2284  0.2067
33357W        W39807   8.231   1.266   3.218 -0.0367  0.1476 -0.2846
33358W        W39808  24.544   5.239  22.910  0.0523  0.5432  0.2714
33359W        W39809  22.334   3.922   7.516  0.0824 -0.0152  0.0848
33360W        W39810  10.155   3.192  25.356  0.3002  0.0843 -0.0838
33361W        W39811  15.679   0.135  20.426 -0.3525 -0.1830  0.0993
33362W        W39812  12.394   5.892  16.602  0.4438  0.3317  0.1410
33363W        W39813   8.081   6.867   4.399 -0.0100 -0.0785 -0.1869
33364W        W39814   9.473   3.231   9.351 -0.0265 -0.0496 -0.1804
33365W        W39815  11.973   2.345   6.726  0.2763  0.0292  0.0996
33366W        W39816  22.861   1.009  16.417  0.0111 -0.0362  0.0147
33367W        W39817   9.559   4.435   0.492  0.0671 -0.0016 -0.3134
33368W        W39818  19.634   6.650   7.814  0.1284  0.0960  0.3346
33369W        W39819   7.179   0.247   6.821 -0.1701 -0.1254 -0.0155
33370W        W39820  12.034   7.526   5.860  0.1019  0.0093  0.0236
33371W        W39821   1.656   7.484   0.940 -0.2823 -0.0036 -0.1733
33372W        W39822   7.017   6.972   8.551 -0.0776 -0.1579 -0.1192
33373W        W39823   3.252   6.983   8.328  0.0452  0.2170  0.1167
33374W        W39824  13.537   7.309  22.582  0.0694 -0.3794 -0.1631
33375W        W39825   4.189   3.576  22.533  0.0773  0.0117  0.1557
33376W        W39826   4.463   1.022  15.115 -0.1695  0.1028 -0.1574
33377W        W39827   3.805   6.234   5.744 -0.0237 -0.1683 -0.1424
33378W        W39828  25.244   5.378  23.213  0.1301  0.2050 -0.2362
33379W        W39829  28.849   5.301   8.774  0.0901 -0.0825 -0.1026
33380W        W39830  14.350   0.220  16.276  0.0400 -0.1823 -0.0385
33381W        W39831  29.295   5.798   0.634 -0.1352  0.0975 -0.0960
33382W        W39832   2.772   7.325  16.225 -0.0418  0.2935 -0.1848
33383W        W39833  28.979   4.678   4.914  0.0241 -0.2330  0.1832
33384W        W39834  11.517   5.848  10.703  0.1128 -0.0887 -0.0554
33385W        W39835  12.375   3.210  26.074  0.2399  0.0677  0.1225
33386W        W39836  13.924   1.721   5.276  0.2005 -0.2739  0.1281
33387W        W39837   8.069   4.510  10.725 -0.0695 -0.2722  0.0830
33388W        W39838   7.891   1.245  21.402  0.2981 -0.0020 -0.0254
33389W        W39839  27.703   5.613  10.882 -0.1887  0.0219 -0.0922
33390W        W39840  29.256   1.241   2.491  0.2987  0.0207 -0.0640
33391W        W39841  27.581   0.926  10.232 -0.2674  0.1448  0.1526
33392W        W39842  12.174   4.710  17.977 -0.1626 -0.2462 -0.0341
33393W        W39843  21.326   1.681   5.646 -0.1593  0.1218  0.2164
33394W        W39844  30.939   3.626   0.910 -0.3236  0.0683  0.0194
33395W        W39845  26.994   6.106  23.786  0.0532 -0.0897  0.2213
33396W        W39846  10.193   4.241  15.464  0.0137  0.1380  0.2192
33397W        W39847  19.886   2.566   6.093  0.1235 -0.1101  0.1340
33398W        W39848  28.664   1.976   6.965 -0.0487  0.1265  0.1875
33399W        W39849  21.848   5.217   0.134 -0.0792  0.1270 -0.2232
33400W        W39850  20.785   4.962   1.935  0.0897 -0.1612  0.0832
33401W        W39851   5.792   6.729  20.562  0.0825  0.0638  0.1704
33402W        W39852  22.581   4.225  22.251 -0.0407  0.0999 -0.0067
33403W        W39853  16.250   4.693  18.317  0.0822  0.1637  0.0227
33404W        W39854   1.872   1.685   2.129 -0.1691  0.4349  0.2400
33405W        W39855   4.386   2.897  19.619  0.1868 -0.0618  0.2593
33406W        W39856   2.948   1.202   5.865 -0.1358  0.0776 -0.1378
33407W        W39857  20.230   7.457  22.784  0.1588  0.0199  0.1100
33408W        W39858   2.958   7.709   6.733  0.1124 -0.0118  0.2787
33409W        W39859  23.336   2.531  11.209  0.4291  0.1073 -0.0518
33410W        W39860  20.566   1.550   1.758 -0.1361  0.1459  0.0421
33411W        W39861  10.866   3.605  15.093  0.1020  0.0680 -0.0136
33412W        W39862  12.997   2.141  20.636 -0.2176  0.0462  0.1736
33413W        W39863  20.310   5.104  17.977 -0.0111 -0.0872 -0.0220
33414W        W39864   6.357   1.422  24.963 -0.1130  0.3643 -0.0015
33415W        W39865  12.137   4.868  16.417  0.1278 -0.1044 -0.1357
33416W        W39866   4.637   4.734  22.993 -0.0044  0.2487 -0.1007
33417W        W39867  16.099   4.050  26.041 -0.0912  0.0689  0.0279
33418W        W39868   5.924   0.485  10.714 -0.0519 -0.0022  0.3143
33419W        W39869  14.104   4.935  15.492 -0.1101 -0.4515 -0.0782
33420W        W39870  29.629   1.211  18.079  0.3045 -0.0278  0.2376
33421W        W39871  30.603   7.177   3.056 -0.0724  0.1556 -0.0738
33422W        W39872  27.461   1.383   3.417 -0.1122 -0.1082 -0.2090
33423W        W39873  30.433   0.824   6.883 -0.0724  0.1863  0.0165
33424W        W39874  12.908   7.426  25.480  0.0651 -0.1169  0.2400
33425W        W39875  28.347   3.728   3.296  0.0191 -0.1077 -0.0293
33426W        W39876  17.454   2.454   0.396 -0.2054  0.1000  0.3291
33427W        W39877  19.759   6.024   0.290  0.0739  0.1375  0.0601
33428W        W39878  19.983   1.918   9.991  0.1499 -0.0665 -0.0703
33429W        W39879   6.036   3.575   8.817  0.0608 -0.0571  0.0188
33430W        W39880  29.281   2.636   1.677 -0.0231  0.2141 -0.1309
33431W        W39881  22.626   6.496   1.268 -0.0096  0.1467  0.1506
33432W        W39882  10.835   4.159  16.406 -0.1926  0.0002 -0.1519
33433W        W39883  17.880   3.706  17.542  0.1458  0.0366 -0.0894
33434W        W39884  22.558   6.823   8.730 -0.4060  0.0092 -0.1347
33435W        W39885  28.955   7.565  15.823  0.0495  0.1382  0.0043
33436W        W39886  11.852   5.478  10.410  0.3781  0.1283 -0.0596
33437W        W39887  27.233   0.550  16.962  0.1196  0.0477  0.0309
33438W        W39888   5.216   3.904  22.211 -0.0231  0.0598 -0.0575
33439W        W39889  28.616   5.367   2.282  0.0030 -0.0791 -0.2417
33440W        W39890  10.216   4.014  10.021 -0.1765 -0.0381  0.0402
33441W        W39891  29.120   4.836   1.083  0.0044  0.1589  0.0208
33442W        W39892   3.601   3.475   6.528 -0.1231 -0.0392 -0.0548
33443W        W39893   9.048   2.195   5.046  0.0913 -0.1425 -0.2666
33444W        W39894  25.106   3.848   4.300 -0.0466 -0.0812  0.0911
33445W        W39895  19.369   5.983   8.950 -0.1419  0.2184  0.1474
33446W        W39896   8.075   1.910   5.680  0.0775  0.0568 -0.2892
33447W        W39897  13.070   1.278  22.908 -0.0659 -0.1751  0.0509
33448W        W39898  17.309   5.907  11.297 -0.0504  0.2891  0.2915
33449W        W39899  21.256   1.730  23.778 -0.2517 -0.1037  0.2105
33450W        W39900  20.277   3.970   8.154 -0.0774 -0.1883  0.0679
33451W        W39901  28.959   5.621  20.897  0.0511 -0.0023  0.1440
33452W        W39902   5.422   6.500  19.203 -0.0042  0.0338  0.1103
33453W        W39903  24.446   3.280   9.188 -0.1776 -0.1999  0.1224
33454W        W39904  24.832   3.511   7.416 -0.2848 -0.0014 -0.0802
33455W        W39905  13.569   2.611  25.247  0.0961  0.0823 -0.1692
33456W        W39906  22.108   2.440  23.338  0.1203 -0.0247 -0.2357
33457W        W39907  10.463   1.636   8.556 -0.1079 -0.0296 -0.2366
33458W        W39908  28.943   6.841   2.806  0.1539 -0.1804  0.0730
33459W        W39909   1.346   6.039   1.673  0.1226  0.1599 -0.0321
33460W        W39910   2.380   2.694  17.812 -0.0685  0.1651  0.2441
33461W        W39911   3.559   5.106  16.967  0.0880 -0.4009  0.0284
33462W        W39912  24.945   3.194  15.391  0.2831 -0.2762 -0.2378
33463W        W39913  28.521   4.319   7.681 -0.1721  0.0114  0.0791
33464W        W39914  19.710   7.305   0.364 -0.1425  0.3013  0.2217
33465W        W39915   7.972   5.858   6.091 -0.1523 -0.1945  0.1321
33466W        W39916  27.084   1.232  19.545 -0.3036  0.0620  0.3111
33467W        W39917   9.082   3.748  23.218  0.0146  0.0873 -0.1227
33468W        W39918   1.841   4.010  19.275 -0.2421  0.1024  0.2335
33469W        W39919  30.489   4.192  10.116 -0.1479  0.2491  0.0670
33470W        W39920   9.337   7.192   0.795 -0.0602 -0.0458 -0.0044
33471W        W39921  15.800   4.013   4.279  0.0740  0.0066 -0.0489
33472W        W39922  23.182   4.473   2.335  0.2420  0.1830 -0.0696
33473W        W39923  21.291   4.721  10.998  0.0106 -0.3059 -0.2652
33474W        W39924  17.434   2.241  15.461  0.0059 -0.2352  0.0489
33475W        W39925  19.536   6.115   2.693  0.0413  0.0135  0.3975
33476W        W39926  16.913   6.552  15.134  0.2947  0.1498 -0.0241
33477W        W39927  11.070   7.590  23.177 -0.1192 -0.1665  0.1354
33478W        W39928  12.731   5.425   2.385 -0.0392 -0.3583  0.2431
33479W        W39929  23.880   7.161  21.245 -0.1266 -0.0821 -0.3008
33480W        W39930  22.276   0.736  18.711 -0.2417  0.1912 -0.0665
33481W        W39931   4.026   5.982   1.375 -0.4182  0.1824 -0.1347
33482W        W39932  30.233   0.587  22.286  0.0686 -0.0432 -0.0346
33483W        W39933  27.391   0.817   6.302  0.0471  0.0232 -0.0261
33484W        W39934   4.460   7.622   1.740 -0.0738 -0.0148  0.0742
33485W        W39935  23.160   4.003  20.919 -0.0825  0.2185  0.0076
33486W        W39936  10.273   7.531   8.779 -0.0391 -0.1168 -0.1833
33487W        W39937   9.719   4.434  19.887  0.1425  0.3531  0.2510
33488W        W39938  13.629   4.714   7.571  0.1071  0.0338 -0.1293
33489W        W39939  25.549   1.582  25.560 -0.1088  0.1322 -0.1664
33490W        W39940  26.429   0.929  18.471  0.0678 -0.2466 -0.0835
33491W        W39941   2.413   4.263  20.993  0.1805 -0.1415  0.0551
33492W        W39942  18.335   0.378  19.739  0.1085  0.0856 -0.1070
33493W        W39943   1.627   2.733   2.464  0.1869 -0.2310 -0.1774
33494W        W39944  14.217   2.054  20.685  0.0361 -0.1029  0.1352
33495W        W39945  13.410   4.844   0.894  0.2480  0.1235  0.1372
33496W        W39946  28.307   6.782   6.092  0.2564  0.0788  0.0857
33497W        W39947  21.487   5.782  19.419 -0.0898 -0.2575 -0.1499
33498W        W39948  24.372   6.611   5.426 -0.0384 -0.0142 -0.0380
33499W        W39949  22.252   4.240  25.006 -0.1546  0.0389  0.1706
33500W        W39950  13.147   4.185  15.194 -0.1835 -0.1955 -0.1607
33501W        W39951  31.159   6.321   3.800 -0.3353  0.0947  0.0161
33502W        W39952  18.310   1.926  17.227  0.1145 -0.0318 -0.2380
33503W        W39953   4.941   7.045   2.546  0.1585  0.1585  0.2129
33504W        W39954   7.489   1.282  10.319  0.1496  0.3328 -0.0757
33505W        W39955  13.115   6.627   3.096 -0.2077  0.2763 -0.2066
33506W        W39956  29.625   5.356   1.248 -0.3306 -0.1939 -0.0172
33507W        W39957   4.558   1.353  16.545 -0.1464 -0.0868 -0.1296
33508W        W39958  22.804   0.104   4.672  0.1982 -0.1107 -0.0128
33509W        W39959  12.330   1.315  18.147 -0.2529 -0.0504 -0.1665
33510W        W39960   3.976   0.927  23.914 -0.2196  0.0063 -0.1112
33511W        W39961  29.509   3.568   9.472 -0.2533 -0.2341  0.0764
33512W        W39962  22.409   4.561  21.939 -0.2390 -0.0481  0.2409
33513W        W39963  17.896   4.081   0.152 -0.0081  0.1935 -0.0511
33514W        W39964   8.899   6.423  19.633  0.2358 -0.0079 -0.1084
33515W        W39965  23.873   2.665  20.717 -0.1186  0.0310  0.3260
33516W        W39966  10.853   6.570   9.265 -0.2976  0.1285 -0.0855
33517W        W39967  26.890   0.961   7.113 -0.0123  0.1012 -0.2184
33518W        W39968  21.084   0.340   1.703 -0.0315  0.2627  0.0891
33519W        W39969  28.492   4.050  25.236  0.1500  0.0541  0.3068
33520W        W39970   7.231   6.791   5.216 -0.3471 -0.2039 -0.0542
33521W        W39971  26.999   6.225  15.901 -0.0374  0.2256  0.1855
33522W        W39972   1.204   4.136  17.179  0.0161 -0.0560  0.0592
33523W        W39973  21.435   7.786  21.489  0.1100  0.0740  0.1682
33524W        W39974   0.085   2.969   1.609  0.1237  0.0531 -0.1631
33525W        W39975  18.780   1.969  24.277  0.0570 -0.2472 -0.0425
33526W        W39976  18.349   2.820   6.659 -0.0014 -0.1657  0.0473
33527W        W39977  22.412   6.248   3.892 -0.1819  0.0710 -0.0086
33528W        W39978   5.414   2.470  18.102 -0.0999 -0.2067 -0.0669
33529W        W39979  18.757   1.098  20.747 -0.0992  0.2227 -0.2108
33530W        W39980   1.048   0.828  23.974  0.2862  0.0345 -0.1230
33531W        W39981  23.751   4.107  21.005  0.1034 -0.0777 -0.1604
33532W        W39982  22.852   1.290  23.189 -0.2377  0.2292  0.2558
33533W        W39983  27.487   1.718   1.998 -0.1466 -0.1294  0.0995
33534W        W39984  30.284   1.999   0.929  0.2100  0.0881 -0.0843
33535W        W39985   8.795   5.857   5.780  0.0813 -0.2742  0.0954
33536W        W39986  19.815   0.519   1.927  0.1114 -0.1307  0.0537
33537W        W39987  27.656   6.457   9.840  0.2754  0.1047  0.1511
33538W        W39988   5.219   4.859  19.913 -0.0320 -0.0143  0.2229
33539W        W39989   7.935   7.385  21.721  0.0334 -0.1198  0.0212
33540W        W39990   7.089   7.734  10.506  0.0570 -0.1719  0.0105
33541W        W39991  28.109   5.964   7.640  0.5304 -0.0532  0.1043
33542W        W39992   6.010   3.977   8.335 -0.0515  0.0837  0.3331
33543W        W39993  29.090   3.154   0.758  0.2546 -0.0853  0.1412
33544W        W39994  12.134   6.318   3.507  0.3974  0.0532 -0.0726
33545W        W39995  23.993   0.826   2.646 -0.1216  0.1250  0.1217
33546W        W39996  25.546   3.650  20.933  0.0378 -0.3569  0.0708
33547W        W39997  10.093   0.844  10.705  0.1018 -0.0553 -0.1422
33548W        W39998   5.119   1.102   9.315 -0.1293  0.0668 -0.0702
33549W        W39999   2.009   3.039  19.390  0.2508  0.0808  0.0551
33550W        W40000  29.206   5.279   0.878  0.1090 -0.1137 -0.0145
33551W        W40001  13.458   0.408   8.179 -0.0367  0.0187  0.2449
33552W        W40002  26.111   3.541  23.072  0.2413  0.1340 -0.1452
33553W        W40003  29.786   3.109  24.385 -0.3098  0.0530 -0.1311
33554W        W40004  11.263   6.032  23.937 -0.2738 -0.3076 -0.0055
33555W        W40005  20.725   4.215  19.684  0.2046 -0.1706 -0.2850
33556W        W40006   7.727   7.280  18.549 -0.1162 -0.1425 -0.2310
33557W        W40007   1.644   4.528   3.451  0.0995 -0.1108 -0.1341
33558W        W40008  16.523   6.859   3.223 -0.0906 -0.0099 -0.2149
33559W        W40009  30.351   3.540   5.115  0.0816  0.1776 -0.3450
33560W        W40010  27.828   2.939   9.755  0.1640 -0.0502  0.1163
33561W        W40011  13.959   7.753  20.248  0.0191 -0.3000 -0.0049
33562W        W40012  15.792   2.633  17.160 -0.0351 -0.0334  0.2123
33563W        W40013   6.046   6.156  23.478 -0.1939 -0.1540 -0.3324
33564W        W40014  17.883   1.373  15.633  0.1838 -0.1249  0.0792
33565W        W40015  20.532   4.619  20.371 -0.0085  0.0468 -0.1247
33566W        W40016  19.902   3.777  19.274 -0.1593  0.0310 -0.3119
33567W        W40017  11.302   7.570   0.201 -0.0092  0.1060  0.1116
33568W        W40018   9.899   1.807   6.150 -0.2059  0.0799 -0.5231
33569W        W40019  20.608   1.953   2.145 -0.0545  0.0202 -0.0894
33570W        W40020   0.166   0.276   7.761  0.0365  0.0527 -0.1061
33571W        W40021  22.882   5.001  15.508  0.0039 -0.2989 -0.0762
33572W        W40022  10.433   0.717   8.683 -0.2949  0.0403 -0.0903
33573W        W40023  21.307   0.676  18.531 -0.0708  0.1769  0.1371
33574W        W40024  25.038   2.747  16.075 -0.1435  0.0561  0.1208
33575W        W40025  24.294   6.396  23.417 -0.0957  0.0467 -0.1698
33576W        W40026  17.481   2.241   9.513  0.2460  0.1198 -0.1033
33577W        W40027  19.894   3.248   9.878 -0.0425 -0.0438  0.0649
33578W        W40028   6.690   7.172  17.546 -0.2345 -0.0950 -0.0358
33579W        W40029  10.695   6.364  23.316 -0.1227  0.0754  0.2188
33580W        W40030  25.731   2.168  24.722 -0.3045 -0.0363  0.0700
33581W        W40031  24.016   2.551  19.382  0.0981 -0.1069 -0.1566
33582W        W40032   7.508   4.729   2.193  0.0853  0.2956 -0.0434
33583W        W40033   2.995   2.273  16.583  0.0752 -0.0178 -0.2139
33584W        W40034  21.883   4.268   4.414 -0.2687 -0.3491 -0.2048
33585W        W40035   9.984   0.148  16.458 -0.0439 -0.3537 -0.2707
33586W        W40036  23.738   0.672  19.113 -0.1469 -0.1080  0.3111
33587W        W40037  23.202   3.052  25.282 -0.2793 -0.0688 -0.2316
33588W        W40038   9.099   7.741  25.905  0.0174 -0.1485  0.0696
33589W        W40039   5.544   5.346   2.347  0.1769 -0.0821 -0.1005
33590W        W40040  22.207   1.908  23.746 -0.2499 -0.1521 -0.0589
33591W        W40041   5.588   0.583  15.603 -0.3495 -0.1487  0.2123
33592W        W40042  26.630   1.966  21.111 -0.0311 -0.1200 -0.0496
33593W        W40043  13.540   1.511  16.507 -0.1815  0.0754 -0.0518
33594W        W40044  26.255   3.571  19.814  0.0063 -0.2461  0.0520
33595W        W40045   6.034   0.126  18.710 -0.0470  0.0845 -0.0440
33596W        W40046  15.870   4.620  26.011  0.0525 -0.1395 -0.1465
33597W        W40047  24.113   2.321   9.169 -0.2312  0.1579 -0.0128
33598W        W40048  26.417   4.878   1.365  0.1709 -0.1191  0.1944
33599W        W40049  22.488   1.690  26.173  0.0973  0.1486  0.0917
33600W        W40050  14.213   7.706   0.750 -0.2934  0.1442  0.2897
33601W        W40051  30.243   1.569  26.152 -0.1650 -0.1231 -0.0708
33602W        W40052  25.810   7.193  10.918  0.0953 -0.1101 -0.0389
33603W        W40053  17.317   3.241  20.457  0.2514 -0.1889 -0.0327
33604W        W40054   4.649   6.390   4.784 -0.0321 -0.2157 -0.0684
33605W        W40055   7.492   0.987   3.543  0.0907 -0.0295 -0.2516
33606W        W40056   1.442   7.332  20.768 -0.0827 -0.1984 -0.1272
33607W        W40057   0.896   5.854   1.820 -0.1827  0.0055 -0.3883
33608W        W40058  25.489   5.598  21.438  0.2590  0.1359 -0.1801
33609W        W40059   4.740   4.040  20.012  0.0833 -0.0456 -0.0457
33610W        W40060  22.783   5.580  16.902  0.2674 -0.2087  0.1350
33611W        W40061  26.803   5.334  17.432  0.0463  0.2195 -0.1893
33612W        W40062  11.310   3.329  20.099 -0.1818  0.1057  0.2279
33613W        W40063  15.589   2.248  23.913 -0.0595  0.1671  0.2137
33614W        W40064   9.980   3.125   1.284  0.1869  0.0467 -0.2864
33615W        W40065   9.410   3.452   1.902 -0.3252 -0.3157  0.0682
33616W        W40066   7.951   4.560   6.903  0.0003  0.2982 -0.1396
33617W        W40067   8.505   2.244  19.496  0.0569  0.0866 -0.0487
33618W        W40068   0.815   0.086  25.826  0.1988  0.1491  0.3463
33619W        W40069  22.836   2.572   4.784 -0.2466 -0.3081 -0.3346
33620W        W40070  23.920   5.999   2.430 -0.0326 -0.2595  0.0817
33621W        W40071  20.223   4.035  26.290  0.0201  0.2632 -0.4257
33622W        W40072   6.987   6.236  26.111  0.1572  0.0342 -0.1732
33623W        W40073   3.774   3.309  10.224  0.0252 -0.2845  0.0821
33624W        W40074   6.481   3.300  18.561 -0.0225 -0.2733 -0.1128
33625W        W40075  15.395   3.715  21.705  0.0895 -0.1135 -0.1483
33626W        W40076   7.192   1.490  23.672  0.1565  0.1422  0.0095
33627W        W40077  15.886   6.126  14.668  0.1407  0.1440 -0.0161
33628W        W40078  25.488   3.050   1.631 -0.1288 -0.0738  0.1007
33629W        W40079   3.667   5.742   5.760 -0.1782 -0.0297  0.2125
33630W        W40080   7.181   6.814  26.163  0.0306  0.1007 -0.1297
33631W        W40081   3.738   4.297   6.999  0.0799  0.2286  0.2847
33632W        W40082   8.369   6.604  18.955  0.1327  0.0553  0.0620
33633W        W40083  21.853   7.629  17.235  0.2698 -0.0144 -0.2336
33634W        W40084  23.347   6.442  23.613 -0.3775 -0.2707  0.0332
33635W        W40085  30.557   3.007   5.133  0.0499 -0.0951 -0.0545
33636W        W40086  27.160   3.439   3.136 -0.0312  0.0644 -0.2535
33637W        W40087   8.355   6.904   3.766  0.0776 -0.2897 -0.1532
33638W        W40088  27.927   5.331  23.001 -0.5608 -0.0325  0.0635
33639W        W40089  25.099   2.401  20.820 -0.0721  0.0575 -0.1597
33640W        W40090   5.714   7.389  15.484  0.3984  0.2475 -0.0334
33641W        W40091   2.364   1.192   6.032  0.1359  0.1817  0.1520
33642W        W40092  13.076   5.538   8.457 -0.2702  0.0797  0.0349
33643W        W40093  21.635   2.936  25.595 -0.1653  0.2188  0.1917
33644W        W40094   4.190   6.507  25.815 -0.3500  0.1969 -0.0743
33645W        W40095  25.406   6.242  23.353  0.1771  0.0230  0.1013
33646W        W40096  26.336   3.149  17.174  0.0707 -0.0325  0.0205
33647W        W40097  13.663   1.398  21.664  0.0139 -0.3515 -0.0913
33648W        W40098  10.473   5.703   8.885 -0.0919  0.3377  0.1261
33649W        W40099  23.021   5.934   8.224  0.0673  0.3050  0.2606
33650W        W40100  11.597   6.089  18.665 -0.0798 -0.0153  0.4150
33651W        W40101  26.403   2.115  18.385  0.2283  0.3662 -0.0043
33652W        W40102  14.710   3.533  25.040 -0.0089  0.1931  0.2372
33653W        W40103   1.798   5.927   9.295  0.0359 -0.3048 -0.2320
33654W        W40104  18.070   7.599  24.784 -0.2792  0.1447  0.1573
33655W        W40105   7.677   4.507  14.577 -0.0338  0.1406 -0.0961
33656W        W40106  23.030   1.200  19.441  0.0370 -0.0279 -0.2314
33657W        W40107  28.916   3.387  24.514  0.2961 -0.0174 -0.0349
33658W        W40108  10.807   3.738  15.562  0.0250  0.1801  0.4126
33659W        W40109   5.550   2.938  15.500  0.0726 -0.0509 -0.0067
33660W        W40110  27.793   1.391  18.918  0.1197 -0.0473 -0.1345
33661W        W40111  19.112   2.597  22.778 -0.4219 -0.1514 -0.1973
33662W        W40112  26.495   5.864   7.420  0.0796  0.0362  0.1344
33663W        W40113   7.883   1.656   3.835 -0.0845  0.0977 -0.0590
33664W        W40114  27.393   6.110  15.339 -0.0863  0.1274  0.2516
33665W        W40115  28.095   3.383  16.539  0.1514  0.1647  0.0097
33666W        W40116   7.779   2.174  17.660  0.2739 -0.0033  0.3312
33667W        W40117  22.514   5.495  10.296 -0.0384 -0.0906 -0.3037
33668W        W40118   3.326   0.474   7.687  0.3242 -0.0690  0.1773
33669W        W40119   0.008   7.597   4.016 -0.0691  0.0603 -0.1813
33670W        W40120  27.765   6.310  24.941 -0.2182  0.0973  0.1005
33671W        W40121  25.859   4.289   8.060 -0.1246 -0.0357  0.1809
33672W        W40122  29.986   0.241   2.146  0.2947 -0.0559  0.1441
33673W        W40123  14.488   6.214  24.723 -0.0584 -0.1822 -0.0325
33674W        W40124  12.720   3.974   3.068  0.0680 -0.1736 -0.2463
33675W        W40125  14.841   2.274  17.685 -0.3467 -0.0729  0.1047
33676W        W40126  21.416   4.656  23.152  0.2188  0.0934  0.1613
33677W        W40127   6.266   1.236  16.998  0.1734 -0.2104 -0.1481
33678W        W40128  25.462   6.413  20.423 -0.0174 -0.0711  0.1578
33679W        W40129  14.580   4.979  15.756  0.1414 -0.0491  0.1001
33680W        W40130   1.974   4.092  20.824  0.3864  0.2515 -0.0114
33681W        W40131  12.252   6.800  22.005  0.0679 -0.1247 -0.3599
33682W        W40132  29.203   0.690  26.274  0.0470 -0.0815  0.0187
33683W        W40133  11.598   4.369   8.938  0.3284  0.0795  0.1713
33684W        W40134  29.399   5.421   1.748 -0.2245  0.2763 -0.2565
33685W        W40135  12.015   0.377  20.664  0.1077  0.0292  0.0482
33686W        W40136  24.301   6.416  24.432 -0.0139 -0.1344 -0.1408
33687W        W40137  16.836   5.111   0.239 -0.1240 -0.4391 -0.4373
33688W        W40138  19.035   1.290  17.470  0.1327 -0.1854  0.1800
33689W        W40139  19.187   2.709  17.877 -0.1966 -0.2076 -0.2952
33690W        W40140  31.116   0.917   6.434  0.3539  0.0703  0.0915
33691W        W40141  18.233   6.924   2.910 -0.0971  0.1393  0.1399
33692W        W40142  14.196   7.004   2.967 -0.0650 -0.1566 -0.0235
33693W        W40143  14.221   5.122  26.086  0.0071 -0.0463  0.0844
33694W        W40144   5.983   7.055  24.696 -0.0423 -0.2194 -0.4296
33695W        W40145  23.600   4.315  23.402 -0.0703  0.3471 -0.2735
33696W        W40146  26.263   5.533  26.121 -0.0784 -0.1923  0.1537
33697W        W40147   0.170   5.417   8.086 -0.2327 -0.2422  0.0185
33698W        W40148  20.449   6.712  10.541 -0.1839  0.2570  0.0518
33699W        W40149  24.945   6.401  15.524  0.1558 -0.0484  0.0687
33700W        W40150   1.448   0.504   0.601 -0.0880  0.1524  0.2873
33701W        W40151  16.831   3.239   5.521  0.0770 -0.1310 -0.1009
33702W        W40152  11.376   3.874  23.350 -0.0404  0.1840 -0.0406
33703W        W40153  12.428   0.836  18.102  0.0412  0.1776 -0.0529
33704W        W40154  28.578   0.372  25.076  0.1034  0.0324 -0.2339
33705W        W40155  12.594   6.618   8.999 -0.3061 -0.1637 -0.0234
33706W        W40156  18.478   4.298  22.072 -0.1503 -0.0796 -0.1339
33707W        W40157  17.582   6.077  21.674  0.0728 -0.1820  0.1735
33708W        W40158   7.075   0.678  16.630  0.1532  0.1622  0.0617
33709W        W40159   8.652   0.059  18.886 -0.2694  0.1451  0.2059
33710W        W40160  22.712   6.731   4.645  0.0106  0.0834 -0.2608
33711W        W40161  15.903   6.729  16.165  0.0041  0.0294 -0.0942
33712W        W40162  16.757   0.797   1.151 -0.0626  0.1015  0.1145
33713W        W40163   3.987   3.909   4.589 -0.2052  0.1001  0.1714
33714W        W40164  28.581   0.295   2.554 -0.0427  0.1301 -0.0419
33715W        W40165   6.743   0.753  16.238  0.1459 -0.0528 -0.1325
33716W        W40166  25.489   1.912   4.356 -0.1378 -0.1771 -0.0496
33717W        W40167  18.186   5.981   3.251  0.0799  0.0073 -0.0136
33718W        W40168  21.554   5.138  20.548 -0.0644 -0.1100  0.1345
33719W        W40169  28.576   2.646   5.329  0.1173  0.3419  0.0032
33720W        W40170  18.455   2.928  21.902  0.2565  0.1527 -0.1451
33721W        W40171  25.410   5.112   1.006  0.1049  0.1218 -0.0262
33722W        W40172  23.786   1.810  19.112 -0.2303 -0.1288 -0.0695
33723W        W40173  26.015   1.139  24.282  0.2920  0.0629  0.3339
33724W        W40174  23.147   6.787   2.906 -0.1079  0.1988  0.0449
33725W        W40175  23.110   3.829  18.592  0.1444  0.2800  0.0933
33726W        W40176  13.952   6.907   8.416  0.0590 -0.1675  0.1437
33727W        W40177  16.304   4.826  18.790  0.0803 -0.2183  0.1682
33728W        W40178  13.113   6.559  22.541  0.1739  0.1321  0.1051
33729W        W40179   1.125   6.560   0.011 -0.0651 -0.1146 -0.1643
33730W        W40180  29.976   5.728  19.758 -0.2590 -0.0074 -0.0326
33731W        W40181  23.839   4.981  20.620  0.1645 -0.2999  0.0329
33732W        W40182   5.013   7.435   9.934 -0.3013 -0.0265 -0.1152
33733W        W40183  12.767   0.502  10.628  0.0470  0.4467 -0.0997
33734W        W40184  28.890   6.861  24.470 -0.0389 -0.2398 -0.2065
33735W        W40185  13.760   1.743  22.905 -0.1054  0.0764 -0.3259
33736W        W40186  17.518   4.638   3.543  0.1545  0.0812 -0.1393
33737W        W40187  14.242   0.892  26.341  0.0946  0.3384  0.3250
33738W        W40188  27.678   4.609   5.946  0.2567  0.0747  0.0881
33739W        W40189  22.643   1.772  18.649  0.1735 -0.1493  0.0418
33740W        W40190   3.068   6.808  10.158  0.1927 -0.3912  0.0318
33741W        W40191  30.667   0.816  17.666 -0.1672 -0.2174  0.0311
33742W        W40192  29.432   7.622   7.146  0.3217  0.1404 -0.2884
33743W        W40193  13.170   2.840   7.821 -0.1213 -0.1954 -0.0911
33744W        W40194  15.047   1.087  19.107 -0.0003  0.0228  0.0892
33745W        W40195  11.157   5.156   6.989  0.0828  0.1055 -0.3433
33746W        W40196  22.855   6.311  24.972 -0.0141  0.0115 -0.0977
33747W        W40197   5.002   3.120   2.891 -0.2568 -0.3991 -0.2148
33748W        W40198  11.046   5.996   6.642 -0.0443 -0.1101  0.1190
33749W        W40199   9.902   7.257   0.945 -0.1308 -0.1421  0.1180
33750W        W40200  20.729   0.502  17.921  0.1316 -0.2453  0.0095
33751W        W40201  25.146   6.550   0.198 -0.1424 -0.1456  0.2204
33752W        W40202  15.059   1.021  18.591 -0.2604  0.2476 -0.2167
33753W        W40203   7.207   0.017  25.145  0.2110  0.0589 -0.1705
33754W        W40204  27.539   4.282   4.348  0.1608 -0.1066 -0.0543
33755W        W40205  13.000   3.771  25.118 -0.5650  0.0639 -0.0102
33756W        W40206   6.401   6.833  24.525 -0.1157  0.1145  0.0283
33757W        W40207  30.717   4.354  24.995 -0.2354  0.1491 -0.0145
33758W        W40208  23.056   5.505  18.657 -0.0162  0.1927  0.1927
33759W        W40209  27.234   1.550  25.598  0.0222 -0.0098  0.0927
33760W        W40210  21.434   7.515   8.831 -0.2985 -0.2272  0.0571
33761W        W40211  27.807   4.151  17.427 -0.0992 -0.0881 -0.1263
33762W        W40212  23.995   3.934  20.174  0.0667  0.0152 -0.0206
33763W        W40213   8.115   0.279   0.779 -0.0180  0.2081  0.0034
33764W        W40214  20.768   7.547  20.255 -0.1455 -0.1625 -0.2359
33765W        W40215   8.962   6.599  18.687  0.0309 -0.1470  0.0472
33766W        W40216  20.476   2.408   1.493  0.0879 -0.0389  0.0697
33767W        W40217  22.517   0.982   7.705 -0.0541 -0.1262  0.2754
33768W        W40218  13.842   0.820   0.203 -0.0957 -0.0232 -0.0829
33769W        W40219  24.724   6.869  18.412  0.1155 -0.2164  0.1835
33770W        W40220   2.647   2.130   4.089  0.0549  0.1796 -0.2058
33771W        W40221   6.362   0.106   7.781 -0.1630 -0.0388 -0.2630
33772W        W40222  15.880   4.082  23.760 -0.1432  0.2289  0.0840
33773W        W40223   7.630   5.771   8.663 -0.1938  0.1745  0.1441
33774W        W40224  20.031   5.089   3.919  0.0194 -0.1882 -0.1232
33775W        W40225   9.304   4.743   1.199  0.0150 -0.1721 -0.2077
33776W        W40226  28.443   3.542   8.469 -0.2646 -0.3764 -0.0930
33777W        W40227  30.443   2.379  17.339  0.0170  0.1842  0.1153
33778W        W40228  22.861   1.582   5.656 -0.2731  0.3831 -0.2649
33779W        W40229  30.453   3.908   4.166 -0.0447 -0.0420  0.0497
33780W        W40230  28.989   7.599   8.926 -0.1411  0.2357 -0.0267
33781W        W40231   2.579   0.937  19.313 -0.0521  0.1429  0.0532
33782W        W40232  23.360   3.695  22.804  0.2268 -0.0335  0.1808
33783W        W40233  12.438   0.790  20.903 -0.4822  0.0198  0.0717
33784W        W40234  12.699   6.015   7.261  0.0979  0.0014  0.2500
33785W        W40235  27.526   4.772  16.956 -0.0659  0.0058 -0.2469
33786W        W40236  19.705   0.861   0.367  0.4517 -0.0561 -0.0579
33787W        W40237  15.427   4.789   3.250  0.0486 -0.0569 -0.0293
33788W        W40238   2.012   7.594  19.734 -0.3691  0.0326 -0.2504
33789W        W40239   8.605   1.429  16.893 -0.0858 -0.3017 -0.0708
33790W        W40240   5.031   0.445  16.871 -0.0154 -0.1234 -0.0903
33791W        W40241   4.150   5.521   4.177 -0.1254  0.3149 -0.2390
33792W        W40242   3.359   4.693  19.546 -0.3407  0.0191 -0.0084
33793W        W40243   7.844   1.881  10.995  0.0608  0.0685 -0.1026
33794W        W40244  29.460   3.370   7.653  0.1350  0.0114 -0.1015
33795W        W40245  20.574   7.492   9.625  0.2757  0.1676 -0.2214
33796W        W40246   9.455   2.870   0.047 -0.3423  0.1882  0.0872
33797W        W40247  24.249   7.155  21.663  0.0601 -0.0176  0.2051
33798W        W40248   0.361   3.806  16.770 -0.0512  0.1784 -0.1377
33799W        W40249   9.376   5.138  19.329 -0.0684 -0.2367 -0.0629
33800W        W40250   4.379   3.952  18.510 -0.0250  0.2064 -0.1746
33801W        W40251   2.129   2.824  16.669  0.1498  0.0469 -0.0525
33802W        W40252   6.223   5.309   8.482  0.1184  0.1918  0.1343
33803W        W40253   3.461   7.320   5.670 -0.3504 -0.0618 -0.0407
33804W        W40254  21.331   4.644   1.372  0.0524 -0.1244 -0.0027
33805W        W40255   5.497   0.745   5.683  0.0997  0.2603 -0.1364
33806W        W40256  29.654   0.528  23.464  0.1952 -0.0347 -0.3183
33807W        W40257   0.791   4.859   2.902 -0.5660 -0.0303  0.1461
33808W        W40258  19.379   2.170  26.359  0.2632 -0.1481  0.0856
33809W        W40259  30.093   2.650   5.217 -0.0639  0.0631  0.2672
33810W        W40260   2.085   6.246  19.180  0.1107  0.0631  0.1770
33811W        W40261   4.172   5.721  18.559 -0.2759 -0.1733 -0.3025
33812W        W40262   2.658   1.663   2.782 -0.2084 -0.1476 -0.0648
33813W        W40263   9.995   7.395  24.819 -0.0951 -0.1689 -0.0162
33814W        W40264  22.955   2.699   1.708 -0.1203  0.1162 -0.0618
33815W        W40265  22.731   5.188   0.981  0.0179  0.1885  0.1077
33816W        W40266   5.624   1.857  17.301  0.0387 -0.1230  0.2066
33817W        W40267  12.608   6.152   2.451  0.1541  0.1201  0.3156
33818W        W40268  26.165   1.330  19.337 -0.1516  0.0704  0.1631
33819W        W40269  17.559   4.022  15.754 -0.0960 -0.0471 -0.1547
33820W        W40270   4.087   1.093   3.334  0.1292 -0.0534  0.0779
33821W        W40271   6.218   2.195  17.565 -0.2900  0.0944 -0.0568
33822W        W40272   6.770   1.736  19.670  0.3049  0.3774  0.2713
33823W        W40273  17.830   3.334   8.341 -0.2713  0.0056  0.1337
33824W        W40274  22.224   1.440   4.339 -0.0058  0.0030  0.0983
33825W        W40275  26.041   4.984  23.300 -0.1820 -0.0951 -0.0054
33826W        W40276   9.614   3.060  19.738 -0.3279 -0.0152 -0.2783
33827W        W40277   9.978   7.535   8.278 -0.2291 -0.0600 -0.0518
33828W        W40278  16.277   1.498  23.498 -0.1784  0.2239  0.2523
33829W        W40279   3.776   0.959  23.442 -0.1843 -0.1460  0.2634
33830W        W40280  13.272   1.768  22.958  0.2570 -0.1052 -0.3228
33831W        W40281  14.773   2.085   4.313 -0.0284 -0.0116  0.1261
33832W        W40282  28.383   3.818   5.362 -0.0643  0.1438  0.0946
33833W        W40283  14.210   3.194   7.818  0.0788 -0.0803  0.2908
33834W        W40284  11.677   3.349  21.776  0.1062 -0.0298  0.1671
33835W        W40285  16.264   1.573  18.990  0.0009  0.1987 -0.1269
33836W        W40286   1.011   7.679  20.816 -0.4619 -0.1194  0.0213
33837W        W40287  24.392   4.702   4.171  0.0953  0.0394  0.0201
33838W        W40288   7.386   4.628  10.729  0.0147  0.2088  0.0041
33839W        W40289  21.627   6.042   6.553 -0.3761 -0.1325 -0.2208
33840W        W40290  13.699   6.605  18.200  0.1325 -0.0696 -0.2594
33841W        W40291   8.843   7.714   1.117  0.1441  0.2722  0.0702
33842W        W40292  20.514   1.436  19.628 -0.2671  0.1109  0.1147
33843W        W40293  26.596   5.694  21.404 -0.2983  0.1946  0.2312
33844W        W40294  11.577   3.421  16.792  0.3376 -0.0415  0.2393
33845W        W40295  16.834   0.527  10.212  0.0390 -0.0289 -0.1015
33846W        W40296  16.786   6.649  17.347  0.3366  0.0532  0.0245
33847W        W40297  25.136   3.642  17.355 -0.1790  0.0707 -0.0804
33848W        W40298   2.875   1.305  15.776 -0.1291  0.1408  0.1401
33849W        W40299   4.183   6.553  18.455  0.0577  0.0765  0.0548
33850W        W40300  12.601   6.403  22.019  0.0462 -0.0695 -0.1354
33851W        W40301   1.375   2.433   2.139 -0.1979 -0.0356  0.1695
33852W        W40302  10.154   3.174   4.244 -0.1792 -0.0230  0.1335
33853W        W40303  14.685   2.915  24.805  0.1415 -0.0149  0.0876
33854W        W40304  22.669   5.321   2.976  0.1778  0.1917  0.1866
33855W        W40305  21.315   0.910  22.263  0.2447 -0.1820  0.2752
33856W        W40306  21.813   7.197   3.297  0.1369  0.1336  0.1833
33857W        W40307  16.145   5.572  21.928 -0.2200  0.2518  0.1744
33858W        W40308  13.206   3.759  15.551  0.3410 -0.1345  0.0193
33859W        W40309  22.139   3.967   6.952 -0.1743  0.1500 -0.2954
33860W        W40310  28.997   1.075   2.888 -0.0055  0.1358 -0.2373
33861W        W40311  25.646   2.077   9.697 -0.1611  0.1728  0.0834
33862W        W40312   3.187   3.728  22.942 -0.0584  0.2385  0.0339
33863W        W40313  24.261   7.572  23.595 -0.1239 -0.4138  0.2822
33864W        W40314  14.656   6.683  17.438  0.3825 -0.0950 -0.2334
33865W        W40315  14.638   0.450   4.137 -0.2705 -0.2769 -0.3108
33866W        W40316  29.804   7.536  19.955  0.1369  0.1100  0.0509
33867W        W40317  26.873   1.491  19.093  0.1581 -0.0388  0.1071
33868W        W40318  13.369   1.838  20.459 -0.2042  0.1996  0.2241
33869W        W40319  28.964   5.494  16.582  0.1080 -0.3674  0.1418
33870W        W40320   5.890   2.873   4.074 -0.2078  0.1836 -0.0608
33871W        W40321   8.605   5.113  10.847  0.1550  0.3256 -0.1822
33872W        W40322  17.795   0.660  10.920 -0.2139 -0.1410  0.1052
33873W        W40323   2.998   3.387  21.187 -0.0146  0.0916  0.0894
33874W        W40324  15.381   4.367   6.256  0.0891 -0.0176 -0.1354
33875W        W40325  16.933   3.800  23.789  0.1097 -0.1719  0.0919
33876W        W40326   1.141   6.052  21.859  0.4946  0.1926  0.0458
33877W        W40327  18.408   0.170  24.725  0.1683 -0.0452  0.1324
33878W        W40328  10.817   6.982   7.556  0.0362  0.0797 -0.1499
33879W        W40329  24.931   1.225  24.064 -0.0142  0.2326  0.1659
33880W        W40330  25.082   6.842  19.824 -0.1736  0.2548 -0.2999
33881W        W40331  11.713   1.099   5.500 -0.2251 -0.1202 -0.2558
33882W        W40332  23.975   6.765   6.842 -0.0278 -0.2240 -0.1404
33883W        W40333  17.875   2.926  22.770  0.2841  0.1726 -0.3107
33884W        W40334  17.396   5.023  25.306  0.1343  0.2906 -0.0108
33885W        W40335  19.112   1.481   9.263 -0.2389 -0.1375 -0.0793
33886W        W40336  15.822   7.729  10.151  0.2369 -0.0821 -0.2571
33887W        W40337   2.316   7.059  16.230  0.3331  0.3132  0.0403
33888W        W40338  13.773   3.559  16.575 -0.0046  0.0143 -0.0069
33889W        W40339   5.517   3.983  23.762  0.0552  0.1054 -0.4317
33890W        W40340  26.539   0.931   5.838  0.0615 -0.0549 -0.0517
33891W        W40341  30.984   3.522   6.706  0.1311  0.1391  0.0889
33892W        W40342  28.817   2.185   6.497 -0.0181  0.1521  0.3140
33893W        W40343   8.291   0.919   2.869 -0.1477  0.1424 -0.1453
33894W        W40344  16.348   6.485   1.099  0.4680 -0.0922  0.1248
33895W        W40345  18.959   2.994   4.930 -0.0697  0.0472 -0.0416
33896W        W40346   1.626   0.164   5.104  0.2488  0.1611  0.0277
33897W        W40347   5.951   3.301  25.078  0.1541 -0.2929  0.0142
33898W        W40348   1.461   4.397  21.742 -0.3394 -0.0910  0.3744
33899W        W40349   7.799   5.080  22.102  0.2129  0.2810  0.0830
33900W        W40350  15.542   6.898  10.681  0.0228  0.0650  0.1887
33901W        W40351  18.327   1.939   2.942  0.0593 -0.1309 -0.1700
33902W        W40352   4.707   0.886  22.609  0.2988 -0.1447  0.0185
33903W        W40353   3.521   3.348  21.352 -0.2237 -0.0261  0.0537
33904W        W40354  19.117   5.504  25.296  0.1724 -0.1102 -0.1987
33905W        W40355  27.994   5.784  21.967  0.2311 -0.0777 -0.2160
33906W        W40356   3.863   5.534  16.759  0.1279 -0.0852  0.1307
33907W        W40357  19.780   7.295  25.324 -0.0967 -0.0749  0.0996
33908W        W40358  20.064   3.041  17.455 -0.3838 -0.0046 -0.1655
33909W        W40359  15.146   7.098  18.113  0.1174 -0.1854 -0.0004
33910W        W40360  23.192   4.976   4.143 -0.0709 -0.0943 -0.0424
33911W        W40361   3.219   3.196   6.690 -0.0609  0.3332 -0.4821
33912W        W40362  16.291   5.840   7.768 -0.2802 -0.0773  0.1296
33913W        W40363  22.811   6.282  10.601  0.2283  0.0569 -0.0600
33914W        W40364  20.493   4.320   3.332 -0.1833  0.1399  0.0506
33915W        W40365   1.435   6.754  21.471 -0.0307 -0.1422 -0.0295
33916W        W40366  13.804   6.738  24.501  0.2604  0.0144  0.1018
33917W        W40367  17.563   3.041   6.839  0.0663 -0.1383  0.0539
33918W        W40368   2.604   0.035   2.852  0.4086 -0.1487 -0.3426
33919W        W40369  29.826   3.969   4.084 -0.0398 -0.1465  0.2517
33920W        W40370  13.696   2.406  21.696 -0.0259 -0.1846  0.3114
33921W        W40371   8.868   5.440  21.049  0.0878 -0.1995  0.1698
33922W        W40372   1.963   1.211  23.064  0.0563  0.0952 -0.0157
33923W        W40373  17.540   6.788  21.796 -0.0169  0.0962  0.1545
33924W        W40374  10.418   4.689   2.800  0.0422  0.3299 -0.1707
33925W        W40375  24.489   3.360  24.400 -0.1431  0.1880  0.0238
33926W        W40376   0.963   5.292   8.204  0.4286  0.1344 -0.3744
33927W        W40377   6.229   5.625  24.316 -0.3155 -0.3848  0.0026
33928W        W40378  21.029   6.912  17.303  0.0035 -0.3751 -0.1466
33929W        W40379  30.184   4.895  17.482  0.1535  0.4022  0.0014
33930W        W40380  17.873   1.034   0.439 -0.0588 -0.2945  0.1051
33931W        W40381  12.824   0.446  16.413 -0.3323 -0.0941  0.4792
33932W        W40382  20.141   4.737   8.500  0.0522 -0.2512  0.0075
33933W        W40383   1.639   7.191  19.616  0.0882 -0.1736 -0.0551
33934W        W40384  23.664   5.977  25.164 -0.2239  0.0210 -0.2165
33935W        W40385  23.246   2.904  18.796 -0.0672  0.4253  0.0564
33936W        W40386  15.659   4.673  16.259 -0.0106  0.6158 -0.1703
33937W        W40387   7.360   1.191  26.288  0.3678 -0.2401  0.1868
33938W        W40388  23.102   0.322  22.632 -0.2558 -0.1957 -0.6158
33939W        W40389   2.797   5.548  25.357 -0.2477 -0.0889 -0.0711
33940W        W40390  23.422   6.317   1.204 -0.1715  0.0025 -0.0691
33941W        W40391  10.550   4.941  22.070 -0.0566  0.0919 -0.0215
33942W        W40392  11.357   0.614  16.291 -0.0396  0.3353 -0.0525
33943W        W40393   0.056   5.932  22.682 -0.0359  0.2107 -0.2205
33944W        W40394   7.370   1.768  18.869 -0.1547 -0.1443 -0.1496
33945W        W40395  27.691   5.932   3.758 -0.0158 -0.2645  0.1201
33946W        W40396  15.044   6.898   6.628  0.1738  0.0667 -0.2743
33947W        W40397  28.664   6.510   6.370  0.1554 -0.3080  0.0978
33948W        W40398  17.464   2.383  25.350 -0.1239 -0.3785 -0.4180
33949W        W40399   8.921   1.893   8.371 -0.1020  0.2490  0.1476
33950W        W40400  22.406   5.354   4.910 -0.1403  0.2587  0.0212
33951W        W40401  31.193   0.385   5.337 -0.0919 -0.1193 -0.0915
33952W        W40402  15.306   5.406  18.495 -0.0370 -0.0212 -0.0324
33953W        W40403  25.126   1.987  17.708  0.0298 -0.0549 -0.2114
33954W        W40404  26.265   3.583   8.829 -0.0842 -0.0945  0.1826
33955W        W40405  30.839   5.720  17.617  0.1469 -0.0367  0.2530
33956W        W40406  19.508   1.739   8.673  0.2638 -0.1834  0.0452
33957W        W40407   8.154   2.277  16.405 -0.1650  0.2521 -0.0312
33958W        W40408  22.080   1.257  22.328 -0.0215  0.2618  0.0779
33959W        W40409   0.980   1.399  19.827  0.2393 -0.1042  0.1153
33960W        W40410   0.750   6.182  26.266 -0.2485  0.1836 -0.1353
33961W        W40411   7.495   3.111  21.671  0.0346 -0.0761 -0.1675
33962W        W40412  14.340   3.490  20.322  0.0595 -0.1286  0.2284
33963W        W40413   2.743   6.769  11.184 -0.2376  0.0548  0.3053
33964W        W40414  20.204   1.520  26.402  0.2357 -0.3095  0.0171
33965W        W40415  27.032   0.106  25.434 -0.1047 -0.0065  0.0853
33966W        W40416  30.627   5.612  15.121  0.1925 -0.2150  0.0974
33967W        W40417   8.682   2.732   3.425  0.0271  0.4398 -0.0515
33968W        W40418  28.678   0.873   6.702  0.1318 -0.0436  0.0313
33969W        W40419  15.038   3.332   0.156 -0.0126 -0.1935 -0.1700
33970W        W40420  24.407   0.481   2.060  0.0855 -0.0599  0.1700
33971W        W40421   4.367   1.580   6.110  0.0511  0.3436 -0.3451
33972W        W40422  16.286   7.192  24.204 -0.2115 -0.1574  0.0160
33973W        W40423  13.983   0.230  24.727  0.0186 -0.5631  0.2654
33974W        W40424   2.752   7.231  18.267  0.2091  0.2238 -0.1880
33975W        W40425  19.647   1.455   9.182  0.1916  0.0385  0.1388
33976W        W40426   1.076   7.409  17.386 -0.2044  0.0637 -0.0367
33977W        W40427  20.138   5.007   7.347 -0.0337 -0.0510  0.2990
33978W        W40428   2.471   0.397  10.036 -0.0122 -0.1099  0.1561
33979W        W40429  21.210   6.021  21.765  0.1522 -0.1142  0.0259
33980W        W40430   9.551   1.940   4.260 -0.3597 -0.0812 -0.0946
33981W        W40431   3.922   2.542  10.780 -0.0858  0.1511  0.2001
33982W        W40432  21.841   7.354  11.162  0.1946  0.0665 -0.2458
33983W        W40433   2.336   3.112  21.620 -0.1115 -0.3250  0.0213
33984W        W40434  22.160   2.208   8.175  0.2179 -0.0990 -0.0784
33985W        W40435  15.988   4.551   7.805  0.0130  0.1118  0.1012
33986W        W40436  20.746   3.159   0.211  0.0105  0.0159 -0.0477
33987W        W40437  13.789   3.478   0.454 -0.0369 -0.0420  0.0897
33988W        W40438  25.172   5.065  21.910 -0.0825  0.0955  0.3503
33989W        W40439   9.359   3.633  15.527 -0.1940  0.2538 -0.1684
33990W        W40440  26.866   5.192   3.068 -0.2048  0.2086  0.0598
33991W        W40441   9.407   5.350  18.647  0.0188  0.1713 -0.0640
33992W        W40442   9.760   1.594  11.301  0.1290  0.0827  0.1251
33993W        W40443  11.085   1.463  18.116  0.0960 -0.2147  0.2033
33994W        W40444  20.507   2.434   3.458  0.1606 -0.0055 -0.4570
33995W        W40445   1.371   0.760  22.124  0.1462  0.1160 -0.1379
33996W        W40446   6.273   7.623  23.525  0.2575 -0.3397  0.2431
33997W        W40447  28.065   4.608   4.094 -0.0281  0.1149  0.0182
33998W        W40448  14.803   6.867   1.539  0.2342 -0.3407  0.2078
33999W        W40449  21.069   4.377  10.715 -0.1263  0.0681  0.0343
34000W        W40450   3.117   6.432   2.128  0.0226  0.0193  0.1896
34001W        W40451  16.622   1.806  16.341  0.0872 -0.0998  0.2946
34002W        W40452   2.597   3.598   4.578  0.0300  0.2151  0.0470
34003W        W40453   9.584   5.951  25.871 -0.3198 -0.0841  0.0409
34004W        W40454  24.535   3.049   8.770 -0.1340 -0.2843 -0.0830
34005W        W40455   0.752   6.406  19.432  0.1977  0.2263  0.2170
34006W        W40456   2.287   5.225   0.517  0.2077 -0.0932  0.0355
34007W        W40457  17.903   1.674   0.686 -0.0108  0.0944 -0.3016
34008W        W40458  15.159   1.558   1.181  0.0885  0.1215 -0.0067
34009W        W40459  16.846   5.614  19.656  0.0162 -0.2474  0.1284
34010W        W40460  29.564   6.340   7.407  0.0274  0.0303  0.4203
34011W        W40461   5.676   2.080   9.214 -0.1404  0.0310 -0.1594
34012W        W40462  19.124   6.144  22.433 -0.0651  0.3680 -0.0985
34013W        W40463  16.104   3.686  25.282 -0.3219 -0.0497 -0.0456
34014W        W40464   1.769   2.557  24.758 -0.0186 -0.0634 -0.1484
34015W        W40465   0.171   2.715   6.132 -0.0090  0.1976 -0.0030
34016W        W40466  17.272   7.548  19.493  0.1183  0.0533  0.1175
34017W        W40467  24.856   6.286  24.217 -0.1227 -0.4149  0.1030
34018W        W40468   5.637   2.995   3.309  0.0389  0.0074  0.1573
34019W        W40469  12.099   6.615   9.634 -0.2701  0.1289 -0.2895
34020W        W40470  27.996   4.927  25.229  0.2595 -0.1030  0.0918
34021W        W40471  19.091   4.065   3.490  0.0508  0.0051 -0.2862
34022W        W40472  23.496   7.006  17.609 -0.0952  0.2600 -0.1950
34023W        W40473  26.222   2.276  24.526  0.2264  0.0284 -0.0368
34024W        W40474  16.307   1.544  21.549 -0.2129 -0.3255  0.0597
34025W        W40475  13.980   7.320  23.617 -0.1385 -0.1611 -0.0363
34026W        W40476  22.444   2.971  18.826 -0.0565 -0.1061 -0.3458
34027W        W40477  12.371   4.802  10.371  0.0792  0.1314 -0.1760
34028W        W40478  10.879   0.734   9.947 -0.1546  0.0059 -0.0745
34029W        W40479  10.640   3.562  10.777  0.0745  0.0767 -0.0570
34030W        W40480  13.377   5.640   4.508 -0.0213 -0.0067 -0.1854
34031W        W40481   4.334   4.625  20.529 -0.3543 -0.0058  0.2406
34032W        W40482   6.926   7.074  20.691 -0.3166  0.2361  0.0276
34033W        W40483   5.988   2.365  21.799  0.1862 -0.1091 -0.0114
34034W        W40484  12.259   1.138  19.112 -0.1225  0.2308  0.1073
34035W        W40485  10.779   6.469   4.610  0.0663 -0.3684 -0.0765
34036W        W40486  11.075   0.582   8.757  0.0329  0.1237  0.1433
34037W        W40487  15.391   3.578  16.849  0.1102  0.2080  0.0713
34038W        W40488  25.731   3.450   0.020  0.0912  0.2266  0.0462
34039W        W40489  24.095   4.924   4.493  0.0914  0.2962 -0.0534
34040W        W40490  16.592   2.311  18.002 -0.0989  0.2296  0.1265
34041W        W40491  28.405   6.119   4.393 -0.2589 -0.0848  0.0111
34042W        W40492   5.701   0.958  20.266 -0.2055 -0.1024 -0.3787
34043W        W40493  26.451   3.614  15.462 -0.0671  0.2784 -0.2620
34044W        W40494  24.046   2.302  26.405 -0.1006 -0.3271 -0.0954
34045W        W40495  13.636   7.043  26.165 -0.1399 -0.2463  0.3272
34046W        W40496  15.207   6.154  19.807  0.0729 -0.1127  0.2054
34047W        W40497  24.864   6.149   7.519 -0.0099 -0.1847 -0.2008
34048W        W40498   2.966   3.118  10.754 -0.1577  0.1008  0.0954
34049W        W40499  29.546   4.792  21.393 -0.0116 -0.0818  0.1779
34050W        W40500  17.450   1.756  24.800  0.3076  0.2460  0.0046
34051W        W40501  14.288   6.817   5.225  0.1829 -0.1285  0.0312
34052W        W40502  20.311   5.940  20.426 -0.1279  0.0722 -0.1408
34053W        W40503  22.657   5.979  22.849 -0.2084 -0.2312  0.1387
34054W        W40504   8.759   2.375  20.125  0.1511  0.4944 -0.2444
34055W        W40505  26.461   6.160   9.204 -0.1155  0.2116  0.1089
34056W        W40506  25.565   1.297  18.735 -0.0587 -0.0022  0.2293
34057W        W40507   1.822   2.969  15.872 -0.1514 -0.2774 -0.2370
34058W        W40508   5.272   5.824  21.172 -0.0654  0.2660  0.1796
34059W        W40509  17.276   2.905  24.541 -0.1892 -0.0132 -0.0374
34060W        W40510   6.506   2.756   0.078 -0.1876 -0.1556 -0.1447
34061W        W40511  26.423   2.339  20.846 -0.1716 -0.1822 -0.2887
34062W        W40512  12.507   6.574   0.838  0.1811 -0.2070  0.0260
34063W        W40513   4.617   4.019  16.895  0.1171 -0.2989  0.1564
34064W        W40514  23.881   6.969   9.931 -0.0143 -0.2822  0.0134
34065W        W40515  23.065   6.619  20.884  0.1685  0.3362 -0.2611
34066W        W40516  28.368   6.713  21.432  0.1028 -0.3633 -0.0966
34067W        W40517   1.343   7.025   4.964  0.1192 -0.1354 -0.3590
34068W        W40518  27.414   6.687   0.722  0.1255  0.2019  0.2281
34069W        W40519  27.014   2.039   7.462  0.1410  0.3331 -0.0939
34070W        W40520  25.511   7.362   4.516  0.0137  0.0591 -0.0274
34071W        W40521  11.979   0.245  16.766 -0.1023  0.1758  0.0694
34072W        W40522  15.018   2.754  18.036  0.2481 -0.1129  0.0637
34073W        W40523  24.116   5.162  26.209  0.0095 -0.2906 -0.2250
34074W        W40524  29.367   4.894   7.116  0.2807 -0.2061 -0.1921
34075W        W40525   8.937   0.187   5.680 -0.0182  0.2021  0.1694
34076W        W40526   9.526   6.613   4.855 -0.4014  0.0369 -0.0157
34077W        W40527  26.449   3.839   7.599 -0.0362 -0.0318  0.1161
34078W        W40528  20.201   2.692   1.977 -0.0278 -0.1068  0.0045
34079W        W40529  16.489   7.094  18.677 -0.1020  0.3478 -0.1136
34080W        W40530   9.772   7.359  15.956 -0.2479  0.0455 -0.0446
34081W        W40531  20.276   3.834  25.661  0.2205 -0.0630 -0.0278
34082W        W40532   0.180   2.290  17.680 -0.2141 -0.0617 -0.1103
34083W        W40533  22.854   7.114  18.740 -0.2974  0.2236 -0.0305
34084W        W40534   8.617   0.617   8.280 -0.1753 -0.0785 -0.2250
34085W        W40535   2.485   6.282  22.446 -0.2012  0.2367  0.2194
34086W        W40536   1.503   7.109  16.151 -0.0537  0.2453 -0.3185
34087W        W40537  16.565   5.362   1.721  0.3723  0.1092 -0.0126
34088W        W40538   2.707   3.049   4.539  0.1585 -0.1209  0.0361
34089W        W40539  19.218   0.092   6.975  0.1762 -0.0895  0.0294
34090W        W40540   6.126   5.121  25.090  0.0623  0.1443 -0.0037
34091W        W40541  19.682   6.855  18.473 -0.1856  0.0519  0.1227
34092W        W40542  20.254   6.020  15.489  0.1059  0.1568 -0.0097
34093W        W40543  12.166   5.709   1.755  0.1765 -0.0478  0.0872
34094W        W40544   1.980   7.214  16.680  0.1130 -0.1126  0.0178
34095W        W40545   1.843   6.659   3.157 -0.0959 -0.2309  0.0067
34096W        W40546   0.315   2.094  19.292 -0.1375  0.0765  0.1658
34097W        W40547  19.220   2.563  23.487  0.0369  0.2315 -0.2794
34098W        W40548   8.405   5.058   3.921 -0.0358  0.1741 -0.2603
34099W        W40549   9.126   2.608   7.610 -0.2886  0.1508 -0.0604
34100W        W40550   9.367   0.694  24.092  0.0860  0.0021  0.1128
34101W        W40551  27.826   0.741  17.752  0.2856 -0.1771  0.1784
34102W        W40552   1.776   0.561   5.917 -0.0861  0.2821 -0.1630
34103W        W40553   5.035   1.778   4.265  0.0229 -0.1956 -0.0308
34104W        W40554   7.811   4.060   5.837  0.1856  0.2840  0.1244
34105W        W40555   2.482   0.723   0.749 -0.2874  0.0581  0.0497
34106W        W40556  22.024   6.989   9.799 -0.2795  0.1037 -0.1068
34107W        W40557  22.485   4.504   8.475  0.0206 -0.0337  0.4750
34108W        W40558  23.792   7.543  16.023 -0.1581  0.3791  0.0777
34109W        W40559  25.648   6.095  17.831  0.2306  0.2963 -0.0018
34110W        W40560   0.299   7.605   7.778 -0.0253  0.0437 -0.3763
34111W        W40561  26.458   4.825  22.000  0.2331 -0.1808 -0.0872
34112W        W40562  15.416   4.283  18.834  0.3517 -0.0754  0.1680
34113W        W40563  23.767   2.639   7.499  0.0481  0.0848 -0.1968
34114W        W40564  10.302   2.465   3.678  0.0504 -0.0857  0.0642
34115W        W40565  14.853   5.943  14.792  0.0364  0.1057 -0.3900
34116W        W40566  26.638   3.765   0.208  0.0087  0.1589  0.0979
34117W        W40567  10.354   2.013  18.820  0.1548 -0.1694  0.2681
34118W        W40568  24.033   5.933   7.246 -0.4340 -0.2529 -0.0333
34119W        W40569  30.723   7.281  10.985 -0.2221 -0.3143 -0.1129
34120W        W40570  10.489   1.326  25.903  0.0637 -0.2842  0.2549
34121W        W40571  25.128   5.890  23.114 -0.0224  0.1003 -0.1904
34122W        W40572   2.788   6.719  21.418  0.1712  0.1028  0.0119
34123W        W40573  30.470   6.032   7.170 -0.1590  0.0137 -0.1414
34124W        W40574  30.957   0.163  21.119 -0.2941 -0.0111 -0.0099
34125W        W40575   9.512   6.115  10.484  0.4270 -0.0839  0.2863
34126W        W40576   7.705   4.137  16.786  0.3017 -0.1310  0.1346
34127W        W40577   0.244   6.840  21.106 -0.1096  0.0382 -0.1660
34128W        W40578  25.014   0.401  16.178 -0.2891 -0.2544  0.0154
34129W        W40579   0.562   6.962  18.172 -0.0900 -0.2518  0.0355
34130W        W40580  25.470   6.084   0.200 -0.0274 -0.0662  0.1138
34131W        W40581  28.711   0.432   1.352 -0.0956 -0.0401  0.0897
34132W        W40582  16.861   7.479  25.195  0.0527  0.0036 -0.1168
34133W        W40583  28.673   2.228  19.346 -0.1998  0.0266  0.1666
34134W        W40584   3.655   5.703  24.100 -0.1092 -0.2430  0.0614
34135W        W40585  23.691   1.458  21.516 -0.1035  0.0213 -0.2174
34136W        W40586   9.119   1.686   4.987  0.1708 -0.0504  0.0578
34137W        W40587  24.348   6.063  25.300 -0.3222  0.2255  0.5350
34138W        W40588  21.110   7.708  16.406 -0.1402  0.0962 -0.2632
34139W        W40589  26.881   0.132   3.836  0.3761  0.0104  0.2726
34140W        W40590  20.553   0.247   4.641  0.0089 -0.0326 -0.1297
34141W        W40591  16.076   6.624   1.517 -0.3567  0.0973 -0.0119
34142W        W40592   5.853   2.584  15.980 -0.1809  0.2058 -0.3361
34143W        W40593   9.453   5.989   1.906  0.0170 -0.4303 -0.1749
34144W        W40594   8.872   5.433  18.766  0.1382 -0.2098  0.0719
34145W        W40595   5.211   5.692  10.359  0.1522 -0.1336  0.0783
34146W        W40596  12.808   6.950  17.602  0.2724 -0.0331  0.1484
34147W        W40597   0.656   0.352  25.375  0.1591 -0.0103  0.0988
34148W        W40598  24.727   0.096   1.953 -0.2473 -0.0547  0.2341
34149W        W40599  13.543   1.661   2.513 -0.1225 -0.2265  0.1497
34150W        W40600  26.265   7.146  19.960  0.2555 -0.1079 -0.4463
34151W        W40601   9.462   2.541  20.975 -0.0673  0.0213 -0.2003
34152W        W40602   6.754   7.643  21.313 -0.2360  0.1054 -0.2036
34153W        W40603  24.638   0.711  16.240 -0.1853 -0.0608  0.1940
34154W        W40604   3.861   5.674   0.365 -0.0639  0.3072  0.2021
34155W        W40605   1.929   2.799   5.394 -0.0684  0.3202 -0.2936
34156W        W40606  11.598   5.945  15.652 -0.1970 -0.0045 -0.2578
34157W        W40607  22.752   3.357   5.708  0.0654  0.1537  0.0274
34158W        W40608  27.488   6.395   5.325  0.2583  0.4276  0.0002
34159W        W40609  14.971   7.565  19.945 -0.4610  0.3072  0.0492
34160W        W40610  23.238   3.279  24.409 -0.3122  0.0546  0.1385
34161W        W40611  20.297   2.555   4.846  0.3092  0.2718  0.0834
34162W        W40612  29.035   0.536  10.639  0.0819 -0.1574 -0.0532
34163W        W40613   6.395   0.431  21.876 -0.0825 -0.3566 -0.1911
34164W        W40614  13.146   7.581   5.781  0.2189  0.1965  0.1747
34165W        W40615  13.559   3.927   7.928  0.0476 -0.1751 -0.2215
34166W        W40616  28.584   3.639   1.234 -0.1730 -0.0469 -0.0637
34167W        W40617   5.163   4.645  10.908  0.2811  0.0405  0.2011
34168W        W40618   0.548   6.907  23.404 -0.0895  0.0010  0.0304
34169W        W40619  19.676   7.076   6.443  0.0413  0.0995  0.1172
34170W        W40620   8.305   6.314  22.691  0.2535 -0.1104  0.4667
34171W        W40621  10.729   1.622  26.247 -0.0977  0.3351  0.1722
34172W        W40622  15.663   1.670  19.479  0.0441  0.0716 -0.1322
34173W        W40623  28.441   6.602   4.461 -0.0623 -0.0215  0.0679
34174W        W40624  13.344   4.742  24.749  0.0562 -0.0377 -0.0823
34175W        W40625  22.604   5.728   8.818  0.0691 -0.1250 -0.2800
34176W        W40626   2.220   1.899   6.013 -0.2316 -0.3005  0.0554
34177W        W40627  28.789   3.400  26.305 -0.0370  0.3387  0.0718
34178W        W40628   0.538   1.256   8.487  0.1725 -0.1476 -0.0529
34179W        W40629  12.367   0.181  19.839  0.0783  0.2067  0.3074
34180W        W40630  17.490   4.880   6.045 -0.2030  0.2579 -0.0594
34181W        W40631  28.582   7.582   3.920 -0.1371  0.0621  0.0523
34182W        W40632   4.570   3.251   6.976 -0.2418  0.5927 -0.0639
34183W        W40633   9.761   6.717  21.939  0.2350 -0.0203  0.1068
34184W        W40634   4.893   1.664   3.449  0.2389  0.1879  0.0174
34185W        W40635  30.766   3.945  10.476  0.2238  0.4486 -0.0833
34186W        W40636   6.189   3.689  25.580 -0.1094 -0.2013 -0.1010
34187W        W40637  23.408   4.463   8.197  0.0741  0.0592  0.3150
34188W        W40638  16.582   5.600  24.180 -0.2312  0.0736  0.1022
34189W        W40639   0.445   5.580  16.928  0.0084 -0.1854  0.1440
34190W        W40640  20.689   4.632  23.498  0.0608 -0.0481  0.0971
34191W        W40641  21.222   2.074  18.007  0.0372 -0.0830  0.5431
34192W        W40642  11.407   2.172  18.609  0.1215  0.0771  0.0282
34193W        W40643  11.098   5.805  24.328  0.2952  0.1240  0.3124
34194W        W40644   7.092   0.858   8.790  0.3701  0.0934 -0.1916
34195W        W40645   0.003   6.571  14.864 -0.1704  0.1398 -0.2209
34196W        W40646  16.103   1.861  15.897  0.1101  0.0525 -0.5094
34197W        W40647  12.189   7.613   2.178 -0.0149 -0.0809 -0.0519
34198W        W40648  20.305   6.531  22.557 -0.2073  0.1411  0.2061
34199W        W40649  28.204   7.623  24.375 -0.1075  0.0338 -0.1474
34200W        W40650  11.161   0.824   7.204  0.0480  0.2012 -0.0653
34201W        W40651  16.552   0.617   7.330  0.2354  0.0796  0.0789
34202W        W40652  17.136   5.353   7.974 -0.2818  0.1489 -0.1326
34203W        W40653   4.287   6.046   0.175 -0.0749  0.2366 -0.2116
34204W        W40654  28.094   3.856  16.113  0.1947 -0.0984 -0.1462
34205W        W40655   1.964   1.102  15.882  0.0334  0.1978 -0.2690
34206W        W40656  28.313   1.488  24.783 -0.1554 -0.1182  0.1900
34207W        W40657  12.127   2.311   4.250  0.0450 -0.2531  0.1728
34208W        W40658  11.707   6.231  21.237  0.1806  0.1217 -0.1757
34209W        W40659   6.751   4.184  19.656  0.3862  0.1182  0.1013
34210W        W40660  17.996   1.419   7.172 -0.0358  0.1343  0.1008
34211W        W40661   6.340   5.270   1.340  0.1772  0.0160  0.1171
34212W        W40662  19.348   1.481  16.135  0.0164 -0.2350  0.1497
34213W        W40663   5.048   4.434  15.895  0.2261  0.2128 -0.1425
34214W        W40664  26.108   4.135   2.380  0.1134  0.1444  0.2084
34215W        W40665  30.437   2.242  15.045  0.1232 -0.2015 -0.1572
34216W        W40666   3.032   1.687  23.696  0.1202 -0.2479  0.0181
34217W        W40667   4.471   6.177   2.831 -0.1436 -0.1058  0.3165
34218W        W40668  19.361   3.457   1.266 -0.1794 -0.0310  0.0041
34219W        W40669   6.594   7.194   2.055 -0.0862 -0.0653  0.0354
34220W        W40670  19.519   0.705  10.928  0.2848  0.0278 -0.3013
34221W        W40671  27.867   4.077   2.741  0.1578  0.0311 -0.3494
34222W        W40672   5.177   6.941  20.115  0.0184 -0.2243 -0.4077
34223W        W40673  26.146   0.690   0.389 -0.1213 -0.1383  0.1742
34224W        W40674  15.763   2.784  19.783  0.2923  0.2847  0.0164
34225W        W40675  28.813   3.939  23.383  0.1506  0.1336 -0.0180
34226W        W40676  21.417   2.810  22.013  0.1725  0.1088  0.2616
34227W        W40677  18.997   2.354   6.482  0.1118 -0.2149 -0.6222
34228W        W40678   0.034   5.522  17.760 -0.3614 -0.1215  0.0020
34229W        W40679  17.133   2.932   1.193  0.1063 -0.2677 -0.0198
34230W        W40680   6.293   7.398  21.307 -0.1213  0.0877  0.2530
34231W        W40681   8.286   5.926   5.615 -0.3672  0.0694 -0.1042
34232W        W40682  26.981   6.725  18.096  0.0586 -0.1856 -0.1644
34233W        W40683  15.772   4.749   3.602  0.2646 -0.2235 -0.0477
34234W        W40684   9.026   0.474  25.895  0.3170 -0.3766 -0.0586
34235W        W40685  28.590   4.717  19.368  0.0592 -0.0577 -0.1815
34236W        W40686   6.150   5.065  20.463  0.3059 -0.1443 -0.2072
34237W        W40687  25.978   1.871  15.654  0.0359  0.1004  0.1744
34238W        W40688   0.195   5.180  25.413 -0.0782  0.0581  0.0742
34239W        W40689  18.138   5.876  22.310 -0.2278  0.0089  0.2545
34240W        W40690   8.947   0.337  18.498 -0.2468  0.0187  0.1815
34241W        W40691  12.882   7.503  26.203  0.3474  0.0059  0.0687
34242W        W40692   7.215   5.807   5.933  0.1483  0.0149  0.1200
34243W        W40693  17.788   5.677  23.692  0.0188 -0.0413 -0.2956
34244W        W40694  13.167   4.046   5.024 -0.2155 -0.2257  0.1080
34245W        W40695   4.974   6.534   6.243 -0.5507 -0.1298 -0.0850
34246W        W40696  15.270   1.162   4.909 -0.2871 -0.0910 -0.0767
34247W        W40697  21.296   5.068  19.355  0.2195 -0.1307  0.0091
34248W        W40698   2.545   2.776  25.678  0.2328  0.2520 -0.2174
34249W        W40699  26.131   4.576  18.495  0.0576  0.2308  0.1544
34250W        W40700  27.349   1.029  16.999  0.3497 -0.0389 -0.1234
34251W        W40701  21.717   1.411   8.993 -0.0677  0.4772 -0.2468
34252W        W40702   5.328   2.718  19.373 -0.0577 -0.1083  0.2061
34253W        W40703   8.545   7.788  22.861  0.1429  0.1820  0.0176
34254W        W40704  23.918   4.650  16.977  0.1969 -0.0774 -0.1801
34255W        W40705  15.608   5.708   3.167  0.0099 -0.1736  0.1886
34256W        W40706  18.072   3.252  18.110  0.1117  0.0665  0.3178
34257W        W40707  14.141   7.049   7.886  0.3364  0.2702  0.0186
34258W        W40708   5.735   6.590  10.508  0.1284  0.0361  0.0728
34259W        W40709   4.640   5.182  22.372  0.0883 -0.0231 -0.2312
34260W        W40710  12.875   6.412   6.740  0.1376  0.1137  0.0318
34261W        W40711  17.677   6.406   9.563  0.0459 -0.3047 -0.1890
34262W        W40712  12.312   4.157  14.869  0.0870 -0.1934 -0.4074
34263W        W40713  23.943   6.629  23.719  0.2327  0.1580 -0.1030
34264W        W40714  10.502   5.793  17.817  0.2408  0.1952 -0.1551
34265W        W40715  27.772   1.444   4.560  0.0041  0.1320  0.0359
34266W        W40716  14.428   2.822   4.684 -0.2509  0.0205  0.1222
34267W        W40717  14.552   5.698  24.606 -0.2286  0.0107 -0.0985
34268W        W40718  15.539   4.855  19.011  0.0540  0.0639  0.0293
34269W        W40719  27.378   7.483   9.107  0.1181  0.0904  0.1400
34270W        W40720   8.308   6.024   1.815 -0.1226  0.2506  0.2107
34271W        W40721  20.917   5.867  18.267 -0.0961  0.0816 -0.2541
34272W        W40722  15.348   0.702   8.500  0.2462 -0.0737 -0.1036
34273W        W40723  27.874   0.554  25.783  0.1394  0.0862 -0.2743
34274W        W40724   3.192   0.832  20.624  0.1162 -0.2513 -0.0005
34275W        W40725  11.262   6.333  19.342 -0.0890  0.0534 -0.1537
34276W        W40726   7.373   4.795  20.675  0.0267 -0.1888 -0.4229
34277W        W40727  28.373   5.851  26.075  0.0150  0.3419 -0.0926
34278W        W40728   4.470   0.558   0.670  0.1118  0.0134 -0.2381
34279W        W40729  26.597   3.341  18.600  0.2636  0.0249 -0.2172
34280W        W40730  16.575   1.326  16.669  0.0157 -0.1762 -0.4283
34281W        W40731  26.457   4.728  20.970 -0.1548 -0.1482  0.1977
34282W        W40732   9.037   4.925  18.964  0.1055  0.0374  0.1142
34283W        W40733   9.649   1.273   8.445 -0.0771  0.2079  0.2316
34284W        W40734  15.224   1.548  21.920  0.0287  0.0486 -0.1403
34285W        W40735  20.729   3.217  10.746 -0.4034  0.0157  0.1795
34286W        W40736  23.971   5.828  10.516  0.1012 -0.1114  0.1632
34287W        W40737  19.126   4.017  24.183 -0.0158  0.1726  0.1320
34288W        W40738  29.667   0.051  18.983 -0.2745 -0.2610 -0.2236
34289W        W40739   4.611   6.711  21.330  0.2177 -0.0144 -0.1248
34290W        W40740   9.957   3.694  19.630  0.2952  0.2517 -0.1181
34291W        W40741   8.638   2.466   5.082 -0.2635  0.2116  0.1557
34292W        W40742  29.642   4.150  16.342 -0.0090 -0.0826 -0.1986
34293W        W40743  24.211   5.357   9.317 -0.1059  0.2136 -0.0072
34294W        W40744   7.411   7.535   9.029 -0.1026  0.1319  0.0098
34295W        W40745  10.419   5.789   0.047 -0.2185 -0.0468 -0.1448
34296W        W40746  13.105   0.734   8.059 -0.1251  0.0420 -0.2661
34297W        W40747   8.330   5.359  22.145  0.1688 -0.0266 -0.1366
34298W        W40748   7.697   5.743   3.067  0.1572  0.2518 -0.0601
34299W        W40749  28.126   5.089  24.750 -0.1574 -0.0886  0.2714
34300W        W40750  27.065   7.601  20.116 -0.3039 -0.3988 -0.0717
34301W        W40751   2.355   3.676  18.718 -0.0649  0.1168 -0.0457
34302W        W40752  19.215   3.451  20.904  0.1884 -0.0130 -0.0442
34303W        W40753  20.684   2.732  10.979 -0.0285 -0.2882 -0.3118
34304W        W40754  16.059   1.287   8.487  0.2908 -0.2205 -0.1487
34305W        W40755   7.430   0.491   6.462 -0.0526 -0.1021  0.1347
34306W        W40756   9.215   4.608   2.775  0.1339 -0.1971  0.0931
34307W        W40757  13.565   6.744  22.371 -0.0735 -0.1247 -0.1290
34308W        W40758   5.432   3.378   6.571  0.1968 -0.0947 -0.3637
34309W        W40759   2.104   0.297   1.104 -0.1478 -0.1919  0.0088
34310W        W40760  14.013   2.222  21.241 -0.2060 -0.1145  0.2145
34311W        W40761  25.413   0.616   3.639 -0.2046 -0.0207 -0.0976
34312W        W40762   7.980   4.159  23.101 -0.1853 -0.0222 -0.0044
34313W        W40763  11.326   4.252   2.701 -0.1457 -0.2562 -0.1679
34314W        W40764  26.221   6.347   9.593  0.0861  0.2487 -0.0911
34315W        W40765  10.745   2.775   5.650 -0.3399 -0.1121 -0.0515
34316W        W40766  20.244   4.952  23.295  0.1133 -0.1955  0.0359
34317W        W40767  20.656   0.353  21.872  0.2352  0.1031  0.1753
34318W        W40768  15.994   5.107  14.622 -0.0785  0.2055  0.2948
34319W        W40769   1.659   3.238   0.370 -0.0635 -0.1283 -0.1282
34320W        W40770   9.901   6.281   6.963  0.1317  0.1211  0.0549
34321W        W40771  17.805   5.167  17.631  0.3260 -0.2284  0.2658
34322W        W40772   3.931   3.034  21.116  0.0926 -0.1625 -0.2255
34323W        W40773   4.084   3.395   2.576 -0.0421 -0.2660 -0.0394
34324W        W40774  26.566   2.654   6.974  0.0058  0.0385  0.2449
34325W        W40775  14.042   5.199  20.433 -0.1330 -0.1171  0.2050
34326W        W40776  23.577   7.159  26.049 -0.0771 -0.1429 -0.1822
34327W        W40777  17.717   0.494   1.219  0.1165 -0.0831 -0.2509
34328W        W40778   5.970   1.513   0.264  0.0932 -0.0069 -0.0813
34329W        W40779   0.200   4.015   6.596  0.0012  0.0811  0.4567
34330W        W40780  26.413   0.774  22.273 -0.0858  0.0359  0.1733
34331W        W40781  24.565   6.974  22.278  0.1198  0.1297 -0.0908
34332W        W40782   0.236   3.646   4.074 -0.1783  0.0687 -0.0647
34333W        W40783  23.449   7.230  23.055  0.0749  0.1668 -0.0915
34334W        W40784  11.617   2.645  22.918 -0.1665  0.2492 -0.1866
34335W        W40785   7.899   5.445  23.063  0.2881 -0.0382 -0.0366
34336W        W40786   5.112   6.752   7.217  0.1343 -0.2140 -0.0756
34337W        W40787   2.494   2.173  16.882 -0.1445 -0.0800 -0.3040
34338W        W40788  18.998   1.924   4.422  0.0999  0.0584  0.0832
34339W        W40789  25.906   4.710  17.629  0.0665  0.2885 -0.1135
34340W        W40790   7.344   2.257   1.562  0.3569 -0.0014 -0.4146
34341W        W40791   4.540   2.353   7.377 -0.0354 -0.0057  0.0437
34342W        W40792  27.080   5.482  18.444 -0.2763 -0.0882 -0.0897
34343W        W40793   1.215   2.633   6.504 -0.2863  0.1771  0.0666
34344W        W40794   7.863   5.551  26.104  0.0560  0.0576 -0.0238
34345W        W40795   5.751   3.117  20.266 -0.0723  0.2466  0.0829
34346W        W40796  27.708   1.916  17.133  0.0844  0.0145 -0.0893
34347W        W40797  24.871   7.603  18.300  0.4140  0.1179  0.0871
34348W        W40798  24.214   7.274  11.381 -0.1675 -0.1175 -0.1592
34349W        W40799  11.236   6.551   2.093  0.0109  0.0655  0.4052
34350W        W40800   5.318   7.413   5.816 -0.1015  0.1050 -0.1476
34351W        W40801  29.541   3.904   4.619  0.1802  0.1540 -0.0146
34352W        W40802  15.128   4.141   9.486 -0.2838 -0.4431  0.0909
34353W        W40803  16.548   0.674  16.179 -0.1226  0.2614  0.1206
34354W        W40804   5.165   5.240  25.883  0.1790 -0.1594 -0.1602
34355W        W40805   6.746   0.352   9.454 -0.0312 -0.0122 -0.0847
34356W        W40806   3.172   7.641   5.426  0.0646  0.0186 -0.2775
34357W        W40807   0.854   3.201   5.903 -0.3327  0.0221 -0.0226
34358W        W40808   8.357   2.249  22.057  0.2205 -0.0426 -0.1316
34359W        W40809  28.747   2.952  21.519 -0.2491  0.0854  0.0538
34360W        W40810  27.891   6.711   1.594  0.1025  0.0995 -0.2081
34361W        W40811  16.726   7.329   5.843 -0.2969  0.0215  0.1412
34362W        W40812  17.490   1.149   2.356  0.0017 -0.0181 -0.2288
34363W        W40813  26.060   1.685  16.437 -0.1727  0.3433  0.3125
34364W        W40814  12.522   4.482   6.530 -0.3268  0.0723 -0.0403
34365W        W40815  19.376   3.935  25.778  0.1184  0.0493  0.0159
34366W        W40816  20.315   4.868   3.318 -0.2323 -0.1804 -0.1639
34367W        W40817   2.849   4.411   6.343 -0.0989  0.2353  0.2257
34368W        W40818  10.582   1.496  24.019 -0.0451  0.0888  0.1523
34369W        W40819   4.815   5.530   1.381  0.1663 -0.1910 -0.0159
34370W        W40820   7.947   5.633  15.435  0.0334 -0.0090  0.4831
34371W        W40821  18.244   0.961  22.949 -0.2718  0.0797 -0.1601
34372W        W40822   3.232   5.427  26.327 -0.0325 -0.1807 -0.1167
34373W        W40823   9.979   2.660   8.063 -0.0587  0.0817 -0.3132
34374W        W40824   0.015   5.997  24.850 -0.0949 -0.0084  0.0088
34375W        W40825  20.231   5.835   5.944  0.1753 -0.1786  0.2950
34376W        W40826  10.469   6.645   8.384 -0.3416  0.1950 -0.1988
34377W        W40827   5.367   7.748  24.595  0.0619  0.0710  0.2581
34378W        W40828  17.645   3.113  19.059 -0.2248  0.1333 -0.1890
34379W        W40829   9.996   5.509  20.322  0.3873  0.2175  0.0276
34380W        W40830  28.248   4.358  15.973  0.1914  0.1927  0.1021
34381W        W40831  30.041   0.266  23.717 -0.2445 -0.4163 -0.0988
34382W        W40832  17.601   5.971   3.236  0.0770  0.0944  0.0185
34383W        W40833  27.200   7.105   5.704  0.2641  0.0395  0.2156
34384W        W40834  21.555   6.601   7.164  0.1136  0.1323 -0.3425
34385W        W40835  12.791   7.345   2.388  0.0488  0.1019  0.3626
34386W        W40836  12.527   4.280   1.118 -0.1015  0.2383 -0.0967
34387W        W40837  12.861   5.845  19.306  0.1123  0.0908  0.0067
34388W        W40838   5.048   6.084   6.468  0.2731  0.3365 -0.1457
34389W        W40839  18.101   6.293  11.526  0.1924  0.1200 -0.0744
34390W        W40840   7.169   7.519   6.209 -0.3412  0.1191 -0.1037
34391W        W40841   8.183   6.409   4.652  0.1413 -0.2374 -0.0365
34392W        W40842   4.869   7.003  17.273  0.0457 -0.0985  0.0401
34393W        W40843  21.518   7.231   5.758 -0.1394  0.0070  0.0999
34394W        W40844  15.016   7.454  25.166 -0.2211  0.1122  0.0438
34395W        W40845  23.048   4.754  26.423  0.0085 -0.1253  0.2014
34396W        W40846  30.492   5.756  21.972 -0.2255 -0.2593 -0.3376
34397W        W40847   4.378   6.854  18.907  0.2074  0.2124  0.0028
34398W        W40848   7.109   3.818  10.655 -0.0133 -0.0814 -0.3956
34399W        W40849  14.452   1.734  18.503 -0.0429  0.0147  0.2591
34400W        W40850  25.932   6.400   9.098  0.0369 -0.2486  0.1039
34401W        W40851  27.416   7.500  21.967  0.1116 -0.0610 -0.1545
34402W        W40852  18.359   5.281   5.406  0.1705 -0.3265 -0.0108
34403W        W40853  29.417   1.973   9.676 -0.1240 -0.1901  0.1960
34404W        W40854  18.747   3.669  22.247  0.1921  0.2185  0.3311
34405W        W40855  23.344   6.532  17.425  0.1046  0.1527  0.2220
34406W        W40856  14.895   2.515   2.163  0.2567 -0.0329 -0.1217
34407W        W40857   7.739   1.998   6.979 -0.2247 -0.0549 -0.0565
34408W        W40858  28.981   1.076  19.606 -0.1154 -0.0632 -0.0053
34409W        W40859  16.764   0.567   7.944  0.1254  0.2330  0.0969
34410W        W40860   5.569   1.657   7.171 -0.0204  0.1227 -0.1965
34411W        W40861  22.476   3.357  16.832  0.1334 -0.0307  0.0463
34412W        W40862  20.859   1.591  20.053  0.4124  0.0249 -0.0707
34413W        W40863   7.639   4.363  24.467 -0.1062  0.0026  0.3696
34414W        W40864   4.011   3.087  21.677 -0.1635  0.0950 -0.0116
34415W        W40865   0.043   1.026  19.761  0.1790  0.0454  0.1968
34416W        W40866  10.504   0.365  24.154  0.5320 -0.0986 -0.0456
34417W        W40867  27.064   3.152  22.538 -0.0314  0.0182  0.0833
34418W        W40868  10.609   3.084   8.632  0.2259  0.0788 -0.1553
34419W        W40869  30.684   3.225  24.936 -0.1571 -0.0509 -0.1108
34420W        W40870  29.399   4.237   8.178 -0.3172  0.0514  0.5210
34421W        W40871  23.122   4.210   4.357  0.0371 -0.2469  0.0051
34422W        W40872  27.842   5.070  26.151 -0.0368 -0.1670  0.0176
34423W        W40873  18.753   5.578   3.726  0.0346  0.3023 -0.1245
34424W        W40874   3.579   1.305  10.314  0.0512 -0.1961  0.2807
34425W        W40875  23.925   2.091  22.403 -0.0512  0.0455  0.1401
34426W        W40876  16.091   1.241  16.907  0.3134  0.1609 -0.0150
34427W        W40877  22.955   2.685  23.313  0.0861 -0.0716 -0.0010
34428W        W40878   7.321   5.369  19.415  0.0678  0.1666  0.0874
34429W        W40879   1.514   2.279  20.780  0.2677  0.0583 -0.3196
34430W        W40880  14.968   7.177   5.501 -0.1009  0.1337 -0.1097
34431W        W40881  14.852   0.176  16.915  0.0159 -0.1206  0.0898
34432W        W40882  27.597   6.238  22.841  0.0437  0.3733  0.2067
34433W        W40883  11.737   5.077   2.463 -0.1617 -0.0300  0.1718
34434W        W40884  20.748   4.819  17.762 -0.1101  0.0849 -0.2581
34435W        W40885  22.524   5.202  16.821  0.1044  0.1188 -0.0489
34436W        W40886  24.193   3.497  17.076  0.0056  0.0752  0.0350
34437W        W40887  12.166   7.668  22.085  0.0568 -0.1549  0.3715
34438W        W40888  28.885   7.513   4.666  0.0095  0.1509  0.0714
34439W        W40889  20.739   6.727  16.251 -0.3222  0.1354 -0.2065
34440W        W40890  13.665   3.633   2.319  0.0387  0.0756  0.4070
34441W        W40891  20.752   4.744  10.427  0.0057 -0.0408 -0.0297
34442W        W40892  17.186   6.700   1.709 -0.0513  0.5054  0.2165
34443W        W40893  14.286   1.757   9.446 -0.0449  0.0344  0.0477
34444W        W40894   9.905   6.419  10.423 -0.0244  0.0900 -0.1743
34445W        W40895  27.289   4.428  21.026 -0.1272 -0.1657  0.4270
34446W        W40896   7.336   2.494  10.955 -0.3176  0.3386  0.4133
34447W        W40897  14.218   0.769  22.143 -0.1136 -0.0546 -0.2550
34448W        W40898  14.733   1.133  19.605  0.0629 -0.0285  0.0378
34449W        W40899  26.442   7.222   9.151  0.1725 -0.3099 -0.4291
34450W        W40900  10.735   4.447   2.486  0.1971 -0.0119  0.3112
34451W        W40901   7.791   6.421   7.397 -0.1225  0.0351 -0.1006
34452W        W40902   8.102   1.974   5.186  0.0086 -0.0294  0.0392
34453W        W40903  13.182   0.275   2.682 -0.0010  0.0940  0.1493
34454W        W40904   2.643   3.111   2.177 -0.0636 -0.0076 -0.0414
34455W        W40905   6.079   0.417  10.178 -0.0358 -0.1602 -0.3262
34456W        W40906  20.598   0.288   8.611  0.0321  0.2690  0.2517
34457W        W40907  21.141   2.931  19.731  0.2164 -0.0495 -0.1784
34458W        W40908  19.972   7.435  16.694  0.0162  0.2705 -0.1757
34459W        W40909  25.789   5.497   1.080  0.2278  0.1299  0.1599
34460W        W40910  15.088   2.747   7.629 -0.0873  0.1062 -0.0517
34461W        W40911   6.157   6.687  22.199 -0.2551 -0.0339 -0.0105
34462W        W40912  29.853   5.325   5.961  0.0617 -0.3399 -0.0205
34463W        W40913   6.613   6.545  21.919  0.1274 -0.0080 -0.0452
34464W        W40914   1.128   4.174  10.401 -0.2165 -0.0815 -0.3309
34465W        W40915  24.703   5.608   1.016 -0.1266  0.1212  0.3114
34466W        W40916  25.297   0.682   8.037 -0.1891 -0.1489 -0.1410
34467W        W40917   7.412   6.717   1.929  0.1300 -0.1488  0.3038
34468W        W40918  21.873   3.030   0.599  0.3761  0.0075  0.1364
34469W        W40919   2.824   7.512  10.070 -0.1243  0.0931 -0.1151
34470W        W40920  17.642   6.476   5.717  0.1688 -0.0657 -0.0797
34471W        W40921   3.277   4.164  16.764 -0.0098  0.1331 -0.0183
34472W        W40922  19.661   6.506  21.203 -0.2792 -0.0947 -0.0004
34473W        W40923  18.982   2.272   8.262 -0.0609 -0.1304 -0.0319
34474W        W40924  31.177   2.064   7.830 -0.0156  0.3061  0.0960
34475W        W40925   3.280   6.671  16.015 -0.0116 -0.0110  0.0058
34476W        W40926   1.022   2.965   9.819  0.2018  0.2265  0.1151
34477W        W40927  16.088   0.091   7.981  0.2935  0.1000  0.0367
34478W        W40928  29.028   3.178   5.861 -0.2257 -0.0460 -0.0098
34479W        W40929  17.792   3.591  23.675  0.1365  0.1846  0.2227
34480W        W40930  14.318   6.344   5.416  0.0603 -0.0302  0.1709
34481W        W40931   7.962   2.796   9.238  0.0432 -0.2679  0.4857
34482W        W40932  20.107   5.823   2.670  0.0947 -0.0246 -0.2297
34483W        W40933  11.145   3.966   7.870  0.1977 -0.2006  0.1522
34484W        W40934  25.153   0.820  16.484 -0.1826 -0.1059 -0.4075
34485W        W40935  22.443   5.292  18.890 -0.1579  0.1135 -0.2053
34486W        W40936  14.048   1.269   9.286 -0.3193  0.0268  0.1424
34487W        W40937   9.734   2.306  19.250  0.0316 -0.0435  0.2603
34488W        W40938   6.617   4.417   4.646  0.0048  0.0104 -0.1489
34489W        W40939  27.718   6.132  18.409  0.1405 -0.1845 -0.0570
34490W        W40940  19.883   2.114  19.366 -0.0325 -0.0434  0.0531
34491W        W40941   0.637   4.622  22.432  0.0337 -0.0673  0.0981
34492W        W40942   7.521   6.278   1.597  0.0339 -0.0786  0.2546
34493W        W40943  14.152   1.689   7.039  0.0601 -0.3078  0.2312
34494W        W40944  16.484   3.924  15.421  0.1759  0.1711 -0.3137
34495W        W40945  20.108   2.120   5.688  0.2039 -0.1502  0.2317
34496W        W40946   6.308   1.723  16.834  0.0418 -0.1172 -0.2751
34497W        W40947  26.043   6.096   5.849  0.0900 -0.2437  0.3989
34498W        W40948   3.266   0.675  17.595 -0.3845  0.0298 -0.2292
34499W        W40949  29.004   2.712  15.687 -0.1128  0.0289  0.1545
34500W        W40950  11.265   5.500   9.492  0.1686  0.0484  0.1062
34501W        W40951  20.366   4.971  22.106  0.4739  0.1050 -0.1147
34502W        W40952  27.550   2.515  18.401 -0.0846 -0.3331 -0.1874
34503W        W40953  23.145   0.864  16.065 -0.2779 -0.0563 -0.1794
34504W        W40954  11.990   6.939   5.236  0.0381  0.0529  0.0607
34505W        W40955  22.838   1.748  25.154 -0.0074  0.2808 -0.0336
34506W        W40956  17.447   2.514  24.175  0.0328 -0.2234  0.0804
34507W        W40957   0.923   2.405  22.927  0.0711 -0.1965  0.0713
34508W        W40958   2.710   1.764  16.701  0.4627  0.1721  0.1503
34509W        W40959  19.599   4.501   0.198 -0.0526 -0.1268 -0.1048
34510W        W40960  29.967   2.997   9.717 -0.1138  0.0623  0.1550
34511W        W40961  28.553   1.553  25.209  0.0313  0.1219  0.4403
34512W        W40962  30.966   3.057  24.483  0.0418  0.2573  0.1065
34513W        W40963   0.383   2.970   9.945  0.0140 -0.0459 -0.4185
34514W        W40964  18.581   2.827  24.467  0.2047  0.0796  0.3756
34515W        W40965   8.191   2.350   3.308  0.0921 -0.0654  0.0772
34516W        W40966  10.709   5.137   3.831  0.1629  0.1646  0.2547
34517W        W40967   0.666   0.584   4.253 -0.1057 -0.2111 -0.1219
34518W        W40968  22.108   4.369   0.265  0.2632 -0.0177 -0.2657
34519W        W40969   9.313   3.723  26.232  0.1433 -0.1711  0.1816
34520W        W40970  13.991   0.659  19.716  0.2251  0.0389 -0.2394
34521W        W40971  23.275   3.906   1.248 -0.1468 -0.1613 -0.1934
34522W        W40972   6.063   4.979  26.112 -0.2422 -0.3330  0.2558
34523W        W40973  11.146   6.829  19.092 -0.0552 -0.0102  0.1223
34524W        W40974  10.401   0.311   3.635  0.1936  0.0992  0.1650
34525W        W40975  29.705   2.995  17.519  0.0007  0.0115  0.5434
34526W        W40976  29.215   3.225  22.645 -0.3730 -0.0148  0.0211
34527W        W40977   3.778   3.657   9.852  0.0760  0.2239 -0.2579
34528W        W40978  29.661   5.660  18.108 -0.0578  0.0616  0.0984
34529W        W40979   7.225   0.608  19.190 -0.0026  0.0812 -0.2314
34530W        W40980  23.897   6.241  15.792  0.0111  0.1949 -0.0539
34531W        W40981  30.621   0.880  16.738 -0.2114 -0.0083 -0.0584
34532W        W40982  19.870   1.539   6.300 -0.3545 -0.0733 -0.2758
34533W        W40983   1.361   5.051  25.894  0.1551 -0.0536 -0.2235
34534W        W40984   0.136   2.083   8.524 -0.2771  0.0862  0.4808
34535W        W40985  22.110   2.336   9.868  0.0543  0.1409 -0.3670
34536W        W40986  19.391   0.903  17.410 -0.0555 -0.2062  0.1673
34537W        W40987   8.881   3.923  25.903  0.0022  0.3022 -0.0445
34538W        W40988  15.685   5.074   4.448 -0.3326  0.0131  0.0185
34539W        W40989  18.742   5.032  15.224  0.1124 -0.1434 -0.0103
34540W        W40990  20.684   2.889   5.621  0.0399 -0.2192  0.0414
34541W        W40991   9.577   4.581   9.771  0.1037  0.1433  0.1639
34542W        W40992  13.004   3.594  22.060 -0.1122 -0.2800  0.0027
34543W        W40993   8.318   1.855  17.896 -0.3124 -0.1193 -0.0450
34544W        W40994  16.827   2.011   5.914 -0.0563  0.0404 -0.0485
34545W        W40995  19.132   2.987   8.356 -0.1158  0.2576  0.0910
34546W        W40996  29.744   2.050   5.186  0.0494  0.0989  0.3968
34547W        W40997  26.231   1.598  23.947  0.1505  0.2919 -0.0853
34548W        W40998  14.471   1.588   5.393 -0.0976 -0.3505 -0.0417
34549W        W40999   9.046   6.264  24.660 -0.0731  0.0844 -0.2096
34550W        W41000  21.921   1.277  19.433 -0.1872  0.5777 -0.1130
34551W        W41001  18.258   1.198  16.664  0.0929 -0.1028  0.2727
34552W        W41002  18.567   2.326   4.462  0.1857  0.0038 -0.1437
34553W        W41003  25.423   2.518  22.206 -0.4187 -0.0136 -0.0329
34554W        W41004  21.575   6.868  23.508  0.0200 -0.0244 -0.2979
34555W        W41005  24.080   5.312   2.217  0.2093  0.1950 -0.0544
34556W        W41006   2.189   6.461  10.391  0.2544 -0.2202 -0.0176
34557W        W41007  19.287   5.184   7.230 -0.1630  0.4633 -0.0113
34558W        W41008   4.583   4.867  18.416  0.1191 -0.1600 -0.3569
34559W        W41009  23.906   4.898  22.123 -0.0567  0.4097  0.0826
34560W        W41010  20.039   4.715  19.666  0.1519  0.3394 -0.1979
34561W        W41011  15.455   3.558  26.217  0.1590 -0.0933 -0.3656
34562W        W41012  15.761   6.263   4.352  0.3400  0.2024  0.1708
34563W        W41013  16.736   4.851  20.816 -0.2278  0.0440 -0.2472
34564W        W41014  30.847   4.613  22.426  0.1082  0.2309  0.0393
34565W        W41015  18.338   6.359  24.150  0.0299 -0.1987  0.0251
34566W        W41016  11.323   4.289  18.328 -0.2782 -0.0595 -0.2367
34567W        W41017   0.067   6.906  19.297  0.0181 -0.1611  0.1627
34568W        W41018  16.225   7.424  10.153  0.1142  0.1116  0.3199
34569W        W41019  23.308   7.146  18.916  0.0105 -0.1769  0.0122
34570W        W41020  15.253   7.216  17.172 -0.2234 -0.1368 -0.0100
34571W        W41021  26.263   5.509  15.697  0.0900  0.0127  0.1797
34572W        W41022  16.045   2.591   2.023  0.1016 -0.0449 -0.0474
34573W        W41023   3.530   1.991  15.351  0.0496 -0.0708 -0.0664
34574W        W41024   3.480   7.604   9.442  0.2105 -0.5333  0.0808
34575W        W41025   4.693   5.433  25.156  0.0398 -0.1260 -0.0851
34576W        W41026  13.568   6.102   0.017 -0.1001  0.1186 -0.0460
34577W        W41027  11.266   2.020  24.500  0.3374  0.2609 -0.1121
34578W        W41028  26.822   4.784   7.402  0.0399 -0.0139 -0.1344
34579W        W41029   8.795   3.763   2.874  0.2072 -0.1083  0.1088
34580W        W41030  15.771   2.427  17.662  0.0436 -0.1454  0.0813
34581W        W41031  27.736   0.803   0.629 -0.0952 -0.0769 -0.2865
34582W        W41032  21.133   6.584  16.622 -0.0876 -0.0605  0.1255
34583W        W41033  22.392   3.608  11.372  0.0081  0.3146  0.0292
34584W        W41034  14.754   0.822   0.234  0.0005 -0.2391 -0.0414
34585W        W41035  14.219   3.356  24.104 -0.0952 -0.5024 -0.1383
34586W        W41036   3.565   5.501  21.655  0.0654 -0.2281  0.1004
34587W        W41037  16.504   2.597  24.365 -0.0454 -0.1586  0.0560
34588W        W41038  17.953   2.860  15.444 -0.1800  0.0602  0.2959
34589W        W41039  28.122   7.014   5.134 -0.3142 -0.0365 -0.3036
34590W        W41040  15.060   5.227   6.389 -0.0694 -0.0574  0.1969
34591W        W41041   9.103   4.170   7.706  0.2278  0.1250 -0.0071
34592W        W41042  13.616   0.857   4.957 -0.2704 -0.1166  0.0844
34593W        W41043  26.665   2.809  18.917  0.0679  0.0627  0.1879
34594W        W41044  17.415   7.770  22.065 -0.0074 -0.2023 -0.0599
34595W        W41045  15.287   4.820   4.573 -0.2536 -0.1576  0.0570
34596W        W41046  11.306   0.900   2.986 -0.0179  0.1243 -0.1293
34597W        W41047   5.511   7.405  20.785 -0.2739  0.0436  0.4500
34598W        W41048   2.473   0.573  24.085  0.2995  0.0737 -0.2986
34599W        W41049  19.333   4.845  10.864 -0.3059 -0.1199  0.0021
34600W        W41050  31.106   6.442  22.799  0.1799 -0.2525 -0.3686
34601W        W41051  11.494   2.889  17.908  0.1217 -0.2352  0.0778
34602W        W41052  17.805   1.301  18.456  0.0435  0.0671 -0.2981
34603W        W41053  10.016   7.188  15.425 -0.0383  0.2308 -0.0204
34604W        W41054  28.314   3.991  19.039 -0.1351 -0.3467 -0.0792
34605W        W41055  20.281   1.239  22.213 -0.0245  0.0467  0.1264
34606W        W41056  29.113   1.854  17.562 -0.0672 -0.0289  0.2120
34607W        W41057  17.678   5.984  16.611 -0.1717  0.2453 -0.2430
34608W        W41058  30.979   5.288   0.219 -0.1564  0.0647 -0.1833
34609W        W41059   2.635   1.892  18.434  0.2469 -0.4921 -0.0240
34610W        W41060   1.234   1.226  24.916 -0.2056 -0.2562 -0.2103
34611W        W41061  12.213   5.795  17.533  0.0594  0.1006  0.2071
34612W        W41062  30.397   3.413  25.333  0.0679 -0.2878  0.2429
34613W        W41063  11.203   1.779  16.679 -0.3576  0.0515  0.1879
34614W        W41064   2.918   0.859   6.809 -0.4344 -0.2008  0.1722
34615W        W41065   9.945   1.612   5.012 -0.0725  0.1597 -0.2477
34616W        W41066  23.860   6.452   5.242 -0.2330 -0.2136  0.0779
34617W        W41067  16.090   4.753   4.515  0.1544  0.0356 -0.2706
34618W        W41068   8.929   1.725   8.904 -0.2933 -0.1694  0.3268
34619W        W41069   3.855   1.226  26.060  0.0677  0.0106  0.1179
34620W        W41070  22.790   1.351   4.092  0.2560 -0.0587  0.2150
34621W        W41071   9.013   7.263  16.869 -0.2941  0.3005  0.0397
34622W        W41072  17.581   5.878  23.257  0.0999 -0.0113  0.2163
34623W        W41073   0.975   7.192   7.443  0.1405  0.1309 -0.2307
34624W        W41074  27.662   2.911  10.448 -0.0617  0.0422  0.2700
34625W        W41075  16.312   1.756   6.629 -0.0279  0.0054  0.2650
34626W        W41076  28.493   4.595   3.774 -0.0342 -0.1914  0.1246
34627W        W41077  21.929   3.758  23.273 -0.1845  0.0290 -0.1535
34628W        W41078  29.911   5.218   8.875 -0.2881 -0.0524 -0.0420
34629W        W41079  19.938   5.465  17.842  0.0803 -0.1766 -0.0855
34630W        W41080  13.107   3.554  20.485 -0.0636 -0.1793  0.0092
34631W        W41081  22.253   3.353  23.287 -0.4043  0.3261  0.1517
34632W        W41082   0.580   5.848  16.510  0.5337  0.0225 -0.2437
34633W        W41083   1.668   4.361  15.995  0.0959 -0.0604 -0.0675
34634W        W41084   7.299   6.435  17.902 -0.2366  0.2429 -0.0230
34635W        W41085  22.292   5.633  15.610  0.2806 -0.4099 -0.1434
34636W        W41086  28.465   3.026  16.466 -0.1590  0.0594 -0.0303
34637W        W41087  10.432   1.684  17.420 -0.0298 -0.0570  0.1921
34638W        W41088  24.437   1.156  16.104  0.0999 -0.2130 -0.0652
34639W        W41089   7.012   6.980  22.996  0.0001  0.0237  0.2937
34640W        W41090   6.037   2.882  23.656  0.0340 -0.3355  0.1470
34641W        W41091   1.750   1.899  21.038  0.1706 -0.0999 -0.0470
34642W        W41092   9.986   6.092   4.520 -0.2962  0.0065  0.1202
34643W        W41093  20.695   6.244   0.620 -0.3740 -0.2441 -0.0859
34644W        W41094  26.458   5.369   1.973 -0.2720  0.3837 -0.0072
34645W        W41095  21.243   1.246   2.612  0.0322 -0.4924  0.0192
34646W        W41096   7.015   5.953  15.455  0.0505  0.1864  0.1021
34647W        W41097  26.654   3.166  22.247 -0.2245  0.3298  0.3759
34648W        W41098  10.872   1.846   3.438  0.0817 -0.0642  0.0450
34649W        W41099  27.659   4.895  21.728  0.0322  0.0947 -0.1298
34650W        W41100   7.119   6.058  23.235 -0.1891  0.0629  0.1243
34651W        W41101  25.929   5.052  23.784  0.1103  0.3132 -0.2364
34652W        W41102  13.732   4.555  18.010 -0.0765 -0.0028  0.1269
34653W        W41103  16.148   6.083   7.346 -0.0625 -0.2432  0.0049
34654W        W41104  24.433   6.023  19.941  0.1196  0.0746 -0.1011
34655W        W41105   4.779   6.950   0.540 -0.0023  0.1919  0.0742
34656W        W41106  12.616   0.848  15.185  0.0292  0.2251 -0.3454
34657W        W41107  25.140   2.567  23.690  0.1889 -0.0283 -0.0463
34658W        W41108  23.960   4.535  19.035 -0.0680  0.0856 -0.1200
34659W        W41109  18.124   3.054   2.092 -0.0478  0.0685 -0.1206
34660W        W41110  30.029   3.209   6.774 -0.4385  0.0608 -0.0054
34661W        W41111  25.461   1.317   7.500  0.3613  0.0404  0.0944
34662W        W41112  14.769   1.387  25.844 -0.1235 -0.1554 -0.4013
34663W        W41113  13.456   6.328   9.831 -0.2484 -0.0417  0.2539
34664W        W41114  21.150   4.254  24.621  0.3920  0.2109 -0.2030
34665W        W41115  29.780   5.069  19.388 -0.2106 -0.2129 -0.0659
34666W        W41116   9.054   0.338  17.013 -0.1609  0.2703 -0.2653
34667W        W41117  14.916   4.149  18.445 -0.1868  0.4286  0.0031
34668W        W41118   7.091   2.957  26.338  0.0462 -0.0036 -0.0018
34669W        W41119   9.663   5.751  19.985 -0.0568 -0.1443  0.3738
34670W        W41120  28.533   2.943  15.717 -0.4175 -0.2998  0.0365
34671W        W41121  20.822   1.108   2.174  0.1919 -0.2583 -0.0997
34672W        W41122  23.978   3.310   2.188 -0.1699  0.1461  0.1779
34673W        W41123  22.484   2.519   9.579  0.0154 -0.1871 -0.0809
34674W        W41124  12.640   1.141   9.205  0.1185 -0.1905 -0.0188
34675W        W41125  18.532   4.566  18.096  0.1590 -0.3275  0.1923
34676W        W41126  27.350   0.570  25.435 -0.0930  0.0144  0.0747
34677W        W41127  26.330   6.643  21.749  0.5889 -0.0620  0.2185
34678W        W41128   9.838   7.121   6.207 -0.1603 -0.0840 -0.0892
34679W        W41129  27.253   6.461   6.334  0.0514 -0.2450 -0.0103
34680W        W41130   6.786   1.181  22.985 -0.2410  0.1239  0.1299
34681W        W41131  20.652   0.268  15.487 -0.1489  0.0360  0.2839
34682W        W41132   8.931   2.919  10.209  0.2172  0.1602 -0.1172
34683W        W41133  30.837   5.778   1.139 -0.0022  0.1514 -0.0155
34684W        W41134  23.750   6.960   2.663  0.1269 -0.1612  0.0373
34685W        W41135  22.477   3.634  24.055  0.1398 -0.1630  0.0303
34686W        W41136  23.241   6.990  25.673 -0.2334  0.0462  0.2269
34687W        W41137   5.156   1.707   3.024  0.1827 -0.0130 -0.4615
34688W        W41138  11.796   1.508  17.971 -0.2439  0.1714  0.1623
34689W        W41139  13.084   1.061   5.069 -0.1566 -0.1179 -0.0219
34690W        W41140  10.719   5.952   9.971  0.1603  0.2238  0.1957
34691W        W41141  29.223   4.830  17.681 -0.1520  0.1416  0.0160
34692W        W41142  10.213   0.450   4.452 -0.2518 -0.0067  0.1905
34693W        W41143  12.189   5.276  24.927  0.1662 -0.0409 -0.1640
34694W        W41144  14.828   1.211   6.367  0.1092 -0.2319 -0.0395
34695W        W41145  25.416   6.084  19.660 -0.1714  0.0484  0.3530
34696W        W41146  30.026   4.996  26.047  0.2642  0.1626 -0.0794
34697W        W41147   9.715   6.749   1.043  0.0106  0.1918  0.3141
34698W        W41148   8.192   4.293   3.545  0.1145 -0.0126  0.0211
34699W        W41149  27.789   3.822  16.589  0.1930 -0.1259  0.0289
34700W        W41150  23.339   4.148  16.544 -0.0473  0.0134  0.2641
34701W        W41151  28.624   7.476  21.732 -0.1149 -0.0516  0.3498
34702W        W41152   6.596   5.288   7.058 -0.0792  0.0085 -0.1450
34703W        W41153  16.300   1.370  24.401  0.3575 -0.2869  0.0724
34704W        W41154   3.013   1.536   9.733  0.0742 -0.1349 -0.2011
34705W        W41155  18.804   6.458   9.802 -0.0117  0.2218 -0.1781
34706W        W41156  27.143   3.173  16.486 -0.2250 -0.0391 -0.0974
34707W        W41157  15.161   0.265  19.487  0.3420  0.0492 -0.0858
34708W        W41158   6.884   6.989  24.302 -0.0065 -0.1581 -0.1070
34709W        W41159  15.465   2.983  19.000  0.3035  0.0174  0.4118
34710W        W41160   7.691   7.281   5.207 -0.2041 -0.3599  0.3344
34711W        W41161   6.906   3.226  15.237 -0.1519  0.1455  0.1555
34712W        W41162   7.052   6.923  22.158 -0.2763 -0.2260 -0.1392
34713W        W41163  27.347   6.484  18.416 -0.1417 -0.1292  0.0020
34714W        W41164  25.343   7.109  18.900  0.1842  0.1905  0.2285
34715W        W41165  10.715   2.012  15.759  0.0267 -0.1000  0.3282
34716W        W41166   1.118   3.608   4.256  0.3060  0.1402  0.2557
34717W        W41167  28.240   0.607   0.518  0.0338  0.0157  0.0552
34718W        W41168   0.722   2.568  20.621 -0.1394  0.1347 -0.2501
34719W        W41169  15.027   4.757  16.106 -0.0297  0.1944  0.1418
34720W        W41170   1.589   7.015  11.134  0.0330  0.0478 -0.2746
34721W        W41171  13.530   0.104   1.404 -0.1781 -0.0093 -0.1442
34722W        W41172   7.812   7.454  17.159  0.0373  0.3262 -0.0497
34723W        W41173  26.279   3.116  18.921  0.2324 -0.0523  0.1562
34724W        W41174   8.958   1.644  20.476  0.1646 -0.2149 -0.0325
34725W        W41175   0.018   2.287  18.337  0.0587  0.1377 -0.0596
34726W        W41176  14.606   5.437  19.008  0.0026 -0.0108  0.0865
34727W        W41177  23.103   1.396   8.728  0.0280 -0.1905  0.2627
34728W        W41178  31.040   0.544  24.914 -0.0439 -0.2193 -0.1824
34729W        W41179  16.164   0.355  19.425  0.0727  0.0381  0.0896
34730W        W41180  20.171   4.901  18.788  0.0733 -0.1376  0.2086
34731W        W41181  11.290   2.810  10.930 -0.3190 -0.2449  0.2581
34732W        W41182   5.423   7.327  22.003 -0.0308 -0.0231  0.0124
34733W        W41183   1.307   4.129   1.191  0.3383  0.2181 -0.1219
34734W        W41184   5.004   5.415  22.652 -0.0274  0.3891 -0.1513
34735W        W41185  26.734   4.433  19.789  0.2018 -0.4206 -0.1053
34736W        W41186  30.810   2.362  21.826  0.0368 -0.2555  0.0700
34737W        W41187  15.484   3.943  15.303 -0.2690  0.1377  0.1265
34738W        W41188  27.038   3.573   5.925  0.0226  0.0100 -0.0675
34739W        W41189  14.536   3.715  22.923  0.0628  0.2496  0.2038
34740W        W41190   4.090   5.569  23.831  0.2067 -0.0837 -0.1276
34741W        W41191   6.708   1.410  26.226  0.2080 -0.1141  0.1162
34742W        W41192   3.097   5.778   0.845  0.4247  0.1681 -0.0563
34743W        W41193  28.629   1.186   2.421  0.0137  0.0653  0.1421
34744W        W41194   2.732   6.036   7.088  0.1506 -0.2452  0.0401
34745W        W41195  29.411   2.677  19.661 -0.0119 -0.3926  0.1596
34746W        W41196  23.390   1.279  24.684 -0.2231  0.3439  0.0451
34747W        W41197   9.368   7.077   8.992  0.0674 -0.0855 -0.4678
34748W        W41198  14.948   6.457  15.611 -0.0143  0.1240 -0.1004
34749W        W41199  18.734   0.671   0.078  0.1919 -0.1526 -0.1453
34750W        W41200  14.477   5.929  23.195  0.1862 -0.1236 -0.0315
34751W        W41201  11.067   3.298  22.522  0.2595 -0.0011 -0.4470
34752W        W41202  23.902   4.601   0.810  0.0863 -0.0306  0.0894
34753W        W41203   6.381   5.333  11.271  0.1126 -0.1118 -0.1650
34754W        W41204  10.922   4.606  17.078  0.3081 -0.0962 -0.3904
34755W        W41205  11.691   4.149   3.872  0.1309 -0.0127  0.1008
34756W        W41206  24.600   4.360  22.761 -0.1328 -0.2677  0.0001
34757W        W41207   0.711   1.171  17.308 -0.1648  0.0740  0.0796
34758W        W41208   5.312   6.914  17.451 -0.3995  0.0485 -0.1838
34759W        W41209  23.505   3.767  20.575  0.1476  0.1028  0.0511
34760W        W41210   8.663   4.622  22.760 -0.2922 -0.0373  0.2858
34761W        W41211   0.193   4.862  16.480 -0.0114  0.0296 -0.3907
34762W        W41212  23.703   2.164  10.408  0.2130 -0.0127 -0.1639
34763W        W41213   1.825   3.823  22.821 -0.0390 -0.1743 -0.4488
34764W        W41214   6.855   1.138   3.007 -0.0924  0.2348  0.1101
34765W        W41215  21.767   6.823   5.553  0.0532 -0.1164  0.2715
34766W        W41216  22.998   4.250  18.792 -0.1091  0.2664  0.0272
34767W        W41217   2.619   1.232   6.807  0.0110  0.1581  0.0117
34768W        W41218  10.810   1.262   3.709  0.3560  0.0628 -0.0470
34769W        W41219  22.131   2.264  16.999  0.1167  0.1605  0.1734
34770W        W41220   0.888   6.312   2.477  0.0770 -0.1376  0.3407
34771W        W41221   4.509   3.861  15.020  0.1674  0.4016 -0.2305
34772W        W41222   6.257   5.681  10.001  0.1127 -0.1346 -0.2604
34773W        W41223  20.797   6.804   3.022  0.0658 -0.0742  0.1500
34774W        W41224  15.473   4.618   7.067 -0.0867 -0.0963 -0.2360
34775W        W41225  14.654   2.178  23.074 -0.2702 -0.0383 -0.5122
34776W        W41226  22.288   1.332  20.395  0.1348  0.2620 -0.1125
34777W        W41227  14.660   0.763  22.801 -0.2106  0.1481 -0.4418
34778W        W41228  17.431   1.129   5.785 -0.1541 -0.0919 -0.1455
34779W        W41229  20.433   0.763  25.674 -0.1383 -0.1062 -0.0663
34780W        W41230  31.130   0.923  17.922  0.1013  0.0977 -0.0995
34781W        W41231  13.318   4.350  19.738  0.0704  0.0081  0.0739
34782W        W41232  24.631   7.297   9.220  0.2363 -0.2760 -0.3145
34783W        W41233  30.410   2.883  10.634 -0.2309 -0.0431  0.0268
34784W        W41234  26.962   0.263   9.335  0.1702 -0.1316  0.2727
34785W        W41235  22.194   0.640   5.541  0.0079  0.2564 -0.1630
34786W        W41236   9.332   5.505  22.259 -0.1947 -0.0389 -0.1970
34787W        W41237  16.083   4.721   0.462  0.1003  0.0286  0.0530
34788W        W41238  27.187   5.479  10.084  0.3996  0.0819 -0.1045
34789W        W41239  24.546   0.759  24.314  0.2678 -0.0326  0.0062
34790W        W41240  12.982   4.463   8.324 -0.1074  0.1725 -0.0410
34791W        W41241  22.868   5.554   6.309 -0.0268 -0.2139 -0.0190
34792W        W41242  16.563   7.468  10.546  0.4155  0.0157  0.1597
34793W        W41243   7.618   4.866   9.039  0.0554  0.0710  0.2158
34794W        W41244  28.318   7.786   9.674  0.1974 -0.0839  0.0990
34795W        W41245  13.086   6.226  25.058 -0.2400 -0.0591  0.1475
34796W        W41246  20.742   7.505  10.155 -0.0552 -0.1968 -0.2561
34797W        W41247  12.200   1.122   9.051  0.0367 -0.0358 -0.0236
34798W        W41248   6.972   3.640   7.999  0.0534 -0.0500 -0.0432
34799W        W41249  11.698   3.457   8.471 -0.2064  0.0626 -0.1195
34800W        W41250   4.514   1.999  15.837  0.1157  0.1579  0.1448
34801W        W41251  21.481   2.805   4.319 -0.0056 -0.1437  0.3262
34802W        W41252  28.096   3.790   8.687  0.0538  0.2729  0.0987
34803W        W41253   2.770   6.969   7.194 -0.1642 -0.0610 -0.0476
34804W        W41254  21.510   6.118   0.778  0.3699 -0.0596  0.1372
34805W        W41255  28.265   6.110  19.806  0.0045 -0.0822  0.0723
34806W        W41256  21.315   4.069  21.060 -0.0398 -0.2344 -0.2236
34807W        W41257  25.026   1.070   8.928  0.2834  0.0229  0.1218
34808W        W41258   4.397   0.011   8.034  0.1254 -0.0959  0.1200
34809W        W41259  21.003   6.386   8.849 -0.2731  0.2774 -0.1046
34810W        W41260  20.251   6.638   4.902 -0.2214  0.0087 -0.0281
34811W        W41261   6.753   1.547  11.554 -0.2677  0.0288  0.3657
34812W        W41262  11.245   1.316   1.681  0.0405 -0.0876  0.0063
34813W        W41263  27.032   3.156  10.022 -0.0294 -0.2329  0.0856
34814W        W41264  27.100   0.939   5.488  0.0824  0.0172  0.1632
34815W        W41265  13.004   2.467  21.122  0.1282 -0.0740  0.1446
34816W        W41266  24.426   2.994   4.809 -0.1162 -0.1083  0.0766
34817W        W41267  25.427   3.163  16.767  0.3135 -0.1071 -0.1398
34818W        W41268   3.497   5.334   0.326  0.2724 -0.2878 -0.0504
34819W        W41269   5.717   2.977  19.777  0.3353  0.2562  0.0725
34820W        W41270   8.331   5.248   4.416  0.3814 -0.0330 -0.0442
34821W        W41271  14.373   3.925   7.928 -0.0470  0.3214  0.1796
34822W        W41272   8.128   3.774   6.249  0.3086  0.0373  0.0772
34823W        W41273   5.679   7.759   7.111 -0.0887 -0.1477  0.1415
34824W        W41274   3.371   0.734  15.501 -0.2282 -0.0902 -0.3457
34825W        W41275   8.233   0.685  24.464 -0.0401 -0.2163  0.0925
34826W        W41276   8.205   4.893  19.058  0.0838  0.0765  0.1431
34827W        W41277   0.754   4.602   3.988  0.3542  0.1157 -0.1517
34828W        W41278  25.185   5.733   4.814  0.1535  0.0839  0.4331
34829W        W41279   9.849   3.541   5.849 -0.2390  0.0219  0.0650
34830W        W41280  25.776   2.883   2.441  0.0805 -0.4223 -0.1078
34831W        W41281  13.052   2.181  19.895 -0.2742 -0.1168  0.0189
34832W        W41282  12.229   6.275  17.951 -0.0177  0.0049  0.0276
34833W        W41283  18.295   7.386   4.676 -0.1103 -0.2611  0.0767
34834W        W41284  17.774   4.489  25.236 -0.0385 -0.0967 -0.0044
34835W        W41285   2.183   0.981  16.533  0.1204  0.0245  0.2310
34836W        W41286  24.880   0.914  25.950 -0.1016 -0.0301 -0.0322
34837W        W41287   3.047   4.941   1.616  0.3202 -0.0378 -0.2218
34838W        W41288   8.547   0.917   4.077  0.1158  0.1267 -0.0773
34839W        W41289   1.456   2.458  19.954 -0.0985  0.0420 -0.0113
34840W        W41290   4.795   5.376  24.692 -0.1851 -0.0874  0.0960
34841W        W41291   0.020   4.195  23.161 -0.1746  0.1732 -0.1754
34842W        W41292  26.566   7.347   9.616 -0.0292  0.0928 -0.2414
34843W        W41293  11.213   6.152  21.454 -0.1134 -0.1427 -0.0157
34844W        W41294   6.248   1.421  26.302 -0.3323 -0.0115  0.0459
34845W        W41295   3.904   1.457  20.559  0.0091  0.0944 -0.1674
34846W        W41296  28.606   2.854  17.708  0.2266 -0.0350  0.0793
34847W        W41297  14.952   4.490   9.794  0.2126 -0.0264 -0.3467
34848W        W41298   4.815   1.426  20.758 -0.0904  0.2061 -0.4341
34849W        W41299  28.584   2.891  23.441 -0.0193  0.0937  0.2840
34850W        W41300   8.185   0.621  23.367  0.2716  0.0090  0.2746
34851W        W41301  11.970   6.566  24.264 -0.0151  0.0693  0.0396
34852W        W41302  30.266   3.263  11.042 -0.0166  0.2893 -0.0094
34853W        W41303   1.617   7.704   4.584  0.1542 -0.0732 -0.1267
34854W        W41304  10.375   6.703  15.196 -0.2768  0.0602 -0.2029
34855W        W41305  10.688   4.690  24.001 -0.0301  0.1837  0.1164
34856W        W41306  30.989   5.935   7.132 -0.0336 -0.2723 -0.1081
34857W        W41307  14.585   3.754   5.106 -0.1405  0.0300 -0.4265
34858W        W41308   2.841   1.193  21.385  0.3463  0.2511 -0.0723
34859W        W41309   8.839   1.928   1.664 -0.1645 -0.1961 -0.0026
34860W        W41310  10.638   0.140  17.163 -0.0211  0.3193 -0.0642
34861W        W41311  13.270   7.481   8.115 -0.1976  0.1139  0.0050
34862W        W41312   7.185   0.733   9.273 -0.0653  0.0348 -0.1374
34863W        W41313  10.179   1.486   9.064  0.1216  0.0138 -0.1955
34864W        W41314   5.867   4.855  22.925  0.0420 -0.3000 -0.0451
34865W        W41315  15.595   1.805  18.471  0.0037 -0.2036 -0.0582
34866W        W41316   5.829   4.321   3.236 -0.1498 -0.0101 -0.0223
34867W        W41317  10.236   5.387   6.765 -0.0282  0.1904  0.1756
34868W        W41318  27.764   6.505  18.779 -0.0108  0.1555 -0.2060
34869W        W41319   6.794   1.754   6.140  0.3859  0.2426  0.0504
34870W        W41320   5.924   6.532  19.114 -0.3139  0.0365 -0.0094
34871W        W41321  29.114   7.078  23.688  0.0558 -0.1204 -0.1110
34872W        W41322  15.433   0.259   9.931  0.0696  0.0130 -0.1746
34873W        W41323   4.913   0.750   4.407  0.2920 -0.0553  0.1699
34874W        W41324  21.711   6.370  10.553  0.0220  0.3869  0.1260
34875W        W41325  17.142   2.729  10.370 -0.2668 -0.2966 -0.1411
34876W        W41326  20.011   2.030   8.521 -0.3319 -0.0144  0.3325
34877W        W41327  24.840   3.226  16.457 -0.1504 -0.3573  0.2568
34878W        W41328  20.979   4.743  25.544  0.2350  0.0193  0.3523
34879W        W41329  10.835   0.705   2.839  0.0286 -0.1343  0.2350
34880W        W41330  13.320   1.661   7.121 -0.1386  0.1170 -0.1766
34881W        W41331  22.914   7.695  25.490 -0.2766  0.1341 -0.0377
34882W        W41332  19.953   6.202   2.922 -0.0750 -0.2533  0.0894
34883W        W41333  17.065   5.145  20.642  0.0651 -0.4370  0.0080
34884W        W41334  12.206   5.653  18.171 -0.1830 -0.2394 -0.1976
34885W        W41335  28.008   1.612  15.820  0.0438  0.2020 -0.1019
34886W        W41336   3.999   4.302  20.599  0.1563 -0.2160  0.0167
34887W        W41337  30.073   1.039   8.087 -0.1976 -0.1288  0.0326
34888W        W41338  24.450   4.854   4.845  0.0609  0.1294  0.2452
34889W        W41339   9.686   5.536  22.940  0.0596  0.0711 -0.0815
34890W        W41340  30.913   1.533  17.194 -0.1166  0.0076 -0.0058
34891W        W41341  26.438   6.407   7.186 -0.0043  0.3784 -0.1830
34892W        W41342  17.311   3.107   0.332 -0.0257 -0.0513 -0.1336
34893W        W41343  20.439   5.439  21.941  0.1382 -0.0503 -0.3241
34894W        W41344  19.255   4.837   2.175 -0.0881  0.0570  0.1480
34895W        W41345  22.864   1.038  24.653  0.0054  0.2292  0.0577
34896W        W41346   9.257   5.783  21.381 -0.1445  0.0656 -0.2919
34897W        W41347  27.591   1.589  10.929  0.0574 -0.2175 -0.0340
34898W        W41348   0.433   0.268   8.666 -0.2701 -0.0811  0.4778
34899W        W41349   3.351   2.906  21.200 -0.0057  0.1154 -0.1695
34900W        W41350   3.042   5.512  17.517  0.0859  0.1971 -0.1060
34901W        W41351   3.299   6.471   7.538  0.1469 -0.2141  0.3966
34902W        W41352  30.444   0.678   7.980 -0.5077  0.3880 -0.0574
34903W        W41353  11.029   1.848  22.543 -0.0024 -0.1087 -0.0430
34904W        W41354   8.929   7.244   5.833 -0.3213  0.0165  0.2401
34905W        W41355   6.677   5.517  25.767  0.1645 -0.0018  0.2255
34906W        W41356  30.380   1.795  21.277 -0.1287 -0.0841 -0.0923
34907W        W41357  21.167   0.618   8.154 -0.0092  0.1622  0.0302
34908W        W41358  27.801   0.612   1.510 -0.2997  0.1472 -0.1948
34909W        W41359  28.674   4.490   9.372  0.0556  0.0851  0.0758
34910W        W41360  19.898   2.090   0.861 -0.0291  0.1058  0.2306
34911W        W41361  14.944   3.659  21.910  0.3186 -0.3101  0.1441
34912W        W41362  28.591   1.313  21.798 -0.0063  0.1296 -0.0657
34913W        W41363  24.700   4.489  25.896  0.1098  0.1154 -0.2508
34914W        W41364  26.865   1.315   5.699 -0.0290  0.1301 -0.0918
34915W        W41365  19.691   5.197   3.057  0.0273 -0.0911  0.0495
34916W        W41366   5.616   0.996   4.861  0.2183  0.0429 -0.0395
34917W        W41367   2.562   6.535   8.912 -0.0474 -0.0399  0.1126
34918W        W41368  19.967   7.784  11.251 -0.3288  0.0815 -0.2089
34919W        W41369   5.663   0.875  10.480 -0.1167  0.1891  0.0609
34920W        W41370  21.936   6.267   6.935  0.2384 -0.1646 -0.4598
34921W        W41371   8.450   6.747  18.029  0.1756 -0.1937 -0.0860
34922W        W41372  22.432   3.983  11.777  0.1259 -0.1485  0.2995
34923W        W41373  17.935   7.207   9.413 -0.0188 -0.1509 -0.0559
34924W        W41374   3.959   3.460   5.151 -0.1029 -0.1439  0.2560
34925W        W41375  16.100   6.996  21.011 -0.0116  0.1827 -0.0729
34926W        W41376   9.327   4.511   7.374  0.0688 -0.0087 -0.0624
34927W        W41377  18.958   2.509   3.124  0.0510  0.0042 -0.2110
34928W        W41378  11.841   0.996  16.877 -0.0048  0.2775 -0.1716
34929W        W41379  29.832   1.483   2.828  0.1174  0.2803  0.0009
34930W        W41380  19.379   3.436  22.830 -0.1102  0.2438  0.0605
34931W        W41381  29.242   0.935  18.775  0.0952  0.1412 -0.0442
34932W        W41382  23.072   4.121  16.954 -0.3588  0.3358  0.1961
34933W        W41383   4.561   2.128   0.658  0.1653 -0.1170 -0.2193
34934W        W41384  25.221   3.482  23.174 -0.0603 -0.1526  0.0215
34935W        W41385  27.083   6.810  10.431 -0.2381  0.0314  0.0953
34936W        W41386  16.720   4.234  10.983  0.3090 -0.0031 -0.0158
34937W        W41387  25.999   7.405  10.445  0.2859  0.3207  0.1589
34938W        W41388  23.411   6.444   0.688 -0.0649  0.0368 -0.1414
34939W        W41389  16.605   5.227  16.124 -0.0270 -0.1304 -0.3196
34940W        W41390   6.043   0.840   7.111 -0.0977 -0.1203 -0.0321
34941W        W41391   0.433   5.107  18.150  0.0537  0.2468  0.2061
34942W        W41392   5.183   5.947   7.816 -0.0544 -0.2262  0.1494
34943W        W41393   6.297   4.913  16.980  0.0282 -0.2031  0.0510
34944W        W41394  11.393   0.226  19.757  0.1199 -0.0010 -0.1344
34945W        W41395  30.443   0.300  18.370 -0.0076  0.2862  0.2537
34946W        W41396  20.369   4.999   9.372  0.0968  0.1250  0.0435
34947W        W41397   4.502   2.457   0.243 -0.0698  0.0051 -0.2923
34948W        W41398  24.416   4.252  18.542 -0.0354 -0.0541  0.2317
34949W        W41399  23.770   3.309   4.342  0.1047 -0.0453  0.1926
34950W        W41400  28.304   2.308  19.680  0.0191  0.1105  0.1567
34951W        W41401   2.071   5.665   7.726 -0.5082 -0.1077  0.1475
34952W        W41402   9.477   2.257   9.312  0.2215 -0.1088  0.1123
34953W        W41403  26.536   5.118   8.102  0.3827  0.0490  0.0645
34954W        W41404  11.449   6.379   8.494  0.1971  0.3494 -0.0033
34955W        W41405  14.297   2.340  23.466 -0.0308 -0.1276  0.0181
34956W        W41406  18.239   7.698  21.052 -0.0516  0.0484 -0.0513
34957W        W41407  16.142   1.704   0.200 -0.0673 -0.2237 -0.0065
34958W        W41408  15.306   1.833   3.384  0.0568  0.0424  0.0968
34959W        W41409  11.355   4.183   4.688 -0.0898 -0.2631  0.0756
34960W        W41410   9.821   4.504  21.492  0.0983 -0.2851  0.0445
34961W        W41411  23.746   6.062  22.793  0.0511 -0.2161 -0.0998
34962W        W41412  29.387   4.477   0.880  0.0273 -0.1375  0.3418
34963W        W41413  28.441   0.132   2.113  0.3144 -0.1082  0.0637
34964W        W41414   2.719   0.544   5.377  0.4751  0.0232 -0.0932
34965W        W41415  11.596   0.194   5.261  0.1546  0.1530  0.0738
34966W        W41416  28.478   6.303   9.922 -0.3025 -0.1062 -0.0480
34967W        W41417   0.978   0.325  22.162  0.0784 -0.0914  0.1834
34968W        W41418   7.400   5.706  16.235 -0.2937 -0.2446 -0.1097
34969W        W41419   8.880   5.129  11.308 -0.0981 -0.0579 -0.0819
34970W        W41420  13.602   1.937  20.013 -0.1412  0.0462  0.1785
34971W        W41421  11.193   1.343   5.208 -0.0630  0.1180 -0.0392
34972W        W41422  14.255   5.781  19.260 -0.0244 -0.1250  0.0884
34973W        W41423  25.339   7.714  19.811  0.0033  0.1375  0.0951
34974W        W41424   2.371   0.117  16.344  0.1186  0.0525 -0.0607
34975W        W41425  14.263   3.802  17.775  0.0387 -0.3741 -0.4115
34976W        W41426   7.675   5.272   2.734 -0.0822 -0.1610 -0.0709
34977W        W41427  20.198   7.175   1.761 -0.1701 -0.0256 -0.2952
34978W        W41428  31.003   2.616  23.213  0.3472 -0.0873  0.0981
34979W        W41429   8.659   2.309   3.060 -0.0513 -0.0354 -0.1062
34980W        W41430   5.236   3.472   2.575 -0.0968 -0.0382 -0.2609
34981W        W41431   5.026   3.845   0.243 -0.0518 -0.0983 -0.1701
34982W        W41432  20.240   4.468   4.058  0.1214 -0.0309 -0.1315
34983W        W41433   5.037   7.486  21.578  0.2058 -0.1627 -0.2867
34984W        W41434  17.596   6.104   9.130 -0.1780  0.0120 -0.1183
34985W        W41435   3.456   5.825   0.146  0.2148 -0.0137 -0.0137
34986W        W41436  25.796   2.169   1.504 -0.2800 -0.1623 -0.0146
34987W        W41437  25.888   6.812  20.572 -0.1208 -0.0488 -0.0592
34988W        W41438  30.418   1.518   6.269 -0.0038 -0.1709 -0.2389
34989W        W41439   3.132   7.656  23.194 -0.2459 -0.0569  0.1287
34990W        W41440   8.592   5.458   5.512 -0.1565 -0.0990 -0.0934
34991W        W41441   7.010   0.278   1.186 -0.3161 -0.1692 -0.2198
34992W        W41442   2.227   5.091  17.483  0.0194  0.0162  0.2065
34993W        W41443   2.070   4.664  23.752  0.0753  0.3073  0.0463
34994W        W41444  12.798   4.230  16.307  0.0196 -0.0090  0.0020
34995W        W41445  26.598   3.050   3.650 -0.1523  0.1527  0.6317
34996W        W41446  24.815   2.641   4.734  0.0399 -0.0608 -0.3008
34997W        W41447  14.464   5.622  22.524 -0.1536 -0.1051 -0.2204
34998W        W41448  28.108   1.505  21.812 -0.1294 -0.2270  0.1362
34999W        W41449  20.734   1.264   7.929 -0.1661  0.2090 -0.0365
35000W        W41450  13.179   5.092  25.240  0.2993  0.0861 -0.0652
35001W        W41451  10.950   7.509   9.263 -0.2749  0.2245 -0.0655
35002W        W41452  15.996   0.889  14.745 -0.0858  0.0966 -0.2201
35003W        W41453  26.641   2.364   2.616 -0.0257 -0.0322 -0.1708
35004W        W41454   1.845   1.254  24.337 -0.0845 -0.0980 -0.0324
35005W        W41455  30.842   2.069  24.840 -0.2661 -0.0079 -0.1559
35006W        W41456   9.314   7.371  26.170  0.0240  0.0167  0.0665
35007W        W41457  16.216   4.930  20.238 -0.0091 -0.1449 -0.1552
35008W        W41458   4.971   4.761  17.215  0.1204 -0.1533 -0.0324
35009W        W41459  29.180   1.181   5.746 -0.1852  0.1125 -0.1738
35010W        W41460  17.933   5.169  19.202 -0.5355 -0.3852  0.0537
35011W        W41461  15.109   0.782  22.218 -0.1240  0.1411 -0.1441
35012W        W41462  12.287   3.751  15.233 -0.0597  0.0537 -0.2406
35013W        W41463  24.278   7.674  21.836  0.1962  0.0408  0.1466
35014W        W41464   9.455   3.678  23.619  0.1115  0.1263  0.0488
35015W        W41465   9.856   1.678   8.600 -0.1776  0.1587 -0.3081
35016W        W41466   6.234   7.266  17.103  0.0611  0.2471 -0.0350
35017W        W41467  25.330   7.661   5.192  0.1524 -0.0098  0.2014
35018W        W41468  27.424   5.908  22.511 -0.0595  0.0690 -0.1332
35019W        W41469   9.800   0.856  17.844 -0.0354  0.2225  0.1660
35020W        W41470   6.094   0.038   0.658 -0.1751 -0.0500 -0.1236
35021W        W41471  21.572   4.549   9.791  0.1129 -0.0383 -0.2394
35022W        W41472  24.160   3.250  25.237 -0.0067 -0.0983  0.0014
35023W        W41473  30.140   6.617  22.999 -0.0820  0.0027  0.0275
35024W        W41474  10.209   6.065  16.912  0.3062  0.0349  0.0122
35025W        W41475  19.528   0.650   6.552 -0.0639 -0.3450  0.0532
35026W        W41476  27.941   1.258   0.612  0.0535  0.1779  0.0292
35027W        W41477  29.557   3.791  23.086 -0.0438 -0.0173 -0.1903
35028W        W41478  26.835   3.476   4.386 -0.0325  0.2338  0.1301
35029W        W41479  14.610   2.430   3.220  0.2759  0.0215 -0.0224
35030W        W41480  21.541   3.707  17.208 -0.1759  0.1489  0.2159
35031W        W41481  13.451   2.167   2.583 -0.1040 -0.0033  0.4607
35032W        W41482  18.131   3.862   1.990 -0.2630  0.2643  0.1223
35033W        W41483  10.232   0.020  23.119  0.0312 -0.0161  0.0666
35034W        W41484  24.959   2.319  19.626  0.0020 -0.0052  0.1402
35035W        W41485   4.494   5.922   1.196  0.2540  0.0095  0.4671
35036W        W41486  12.285   2.091   2.944 -0.0244  0.1109 -0.2707
35037W        W41487  26.141   3.869  22.730  0.0472  0.0253 -0.0972
35038W        W41488  22.265   3.940   8.131 -0.3491 -0.2667 -0.2061
35039W        W41489   0.331   4.696  20.284  0.1844  0.1581 -0.0808
35040W        W41490  10.355   0.559   2.111  0.2221 -0.1316  0.1571
35041W        W41491   3.601   1.781  22.510 -0.2591  0.1636  0.2477
35042W        W41492   0.961   2.104  18.687 -0.0226  0.2157  0.2740
35043W        W41493  14.963   1.813  15.699  0.0566 -0.1214 -0.2983
35044W        W41494   6.811   5.525  23.215  0.2347 -0.0761 -0.2740
35045W        W41495   1.081   3.417   0.623 -0.0063 -0.1380 -0.1347
35046W        W41496   8.799   4.732   0.422 -0.0667 -0.2542 -0.2013
35047W        W41497  19.306   5.197  24.010  0.2543 -0.1100  0.3294
35048W        W41498  22.347   6.036  20.424  0.1841 -0.1890  0.0072
35049W        W41499  26.133   4.932   3.194 -0.0497  0.2690 -0.1100
35050W        W41500  24.854   3.374  19.731  0.1550  0.3267  0.3561
35051W        W41501   6.964   6.557   6.940  0.1868 -0.3625  0.0051
35052W        W41502   4.578   0.822   7.336 -0.2393 -0.0877 -0.0321
35053W        W41503  13.645   2.401   5.948  0.0080 -0.3389  0.1944
35054W        W41504  23.178   0.361  11.710 -0.1768  0.0148 -0.1700
35055W        W41505   5.672   2.500  20.055  0.1982  0.3437 -0.0548
35056W        W41506  20.189   7.475   0.177  0.2659  0.2496  0.0733
35057W        W41507  18.325   4.746  15.444  0.0379  0.1904 -0.1617
35058W        W41508  27.335   6.558  16.018 -0.1862 -0.2796  0.2843
35059W        W41509  30.833   5.365   2.771  0.0713  0.1994  0.4998
35060W        W41510  11.067   2.790  22.386 -0.4324 -0.0204  0.0208
35061W        W41511  10.256   2.182   1.024 -0.1600  0.0309  0.1722
35062W        W41512  21.507   5.021  24.485 -0.0584 -0.0619 -0.0545
35063W        W41513   9.311   1.573   6.316 -0.2346  0.0850 -0.2135
35064W        W41514   5.921   7.354  21.663  0.2900  0.0558  0.2192
35065W        W41515  18.818   5.879  25.353  0.1640  0.0355  0.3174
35066W        W41516   2.576   2.332  10.780  0.0195 -0.1458 -0.0026
35067W        W41517   0.400   2.374   0.198 -0.0271  0.0820  0.1522
35068W        W41518  18.547   2.639   3.500  0.0940 -0.2130  0.5108
35069W        W41519  19.861   2.674   4.008 -0.2120 -0.1042  0.1013
35070W        W41520   4.498   7.758   2.747  0.1967 -0.1514 -0.1060
35071W        W41521  30.981   2.985   1.104 -0.0437 -0.2611 -0.2676
35072W        W41522  23.004   7.495   6.476 -0.2087  0.2006 -0.0610
35073W        W41523  16.615   6.945  15.285 -0.1922 -0.2154  0.0069
35074W        W41524  27.468   5.588   0.855  0.0717  0.1675 -0.2092
35075W        W41525  13.767   1.034  16.515  0.1529 -0.2098  0.0726
35076W        W41526  29.202   2.939   2.715  0.0407  0.0603  0.1776
35077W        W41527  25.415   7.650  26.389 -0.0534  0.2200  0.0770
35078W        W41528  25.920   0.420   7.177 -0.0020 -0.0981  0.2176
35079W        W41529  13.948   3.415   4.081 -0.0711 -0.1681  0.1135
35080W        W41530  30.904   5.964   7.632  0.0447 -0.1315 -0.0346
35081W        W41531  19.853   5.432   8.731  0.0099 -0.3037 -0.3245
35082W        W41532  17.822   2.574   0.685  0.1742  0.0794  0.1771
35083W        W41533  12.454   2.577  17.194 -0.0669  0.0495 -0.0110
35084W        W41534  27.233   7.781  19.214  0.1457  0.1298 -0.1312
35085W        W41535  16.185   3.093   0.634  0.2620 -0.1196 -0.2420
35086W        W41536  30.080   5.743  17.452 -0.5095 -0.0667  0.0569
35087W        W41537   8.005   7.662  21.315  0.0554  0.1089  0.0016
35088W        W41538   6.805   1.959  18.150  0.0373 -0.1619  0.2368
35089W        W41539  11.163   7.118  17.096 -0.3613 -0.0258 -0.1762
35090W        W41540   9.382   1.493  21.837 -0.0205 -0.0883 -0.2174
35091W        W41541  17.874   0.650  21.725 -0.0835  0.0472 -0.0467
35092W        W41542  24.066   2.162   1.432  0.1311 -0.1090 -0.2563
35093W        W41543  18.695   0.875   8.020 -0.1121 -0.2658 -0.0662
35094W        W41544  17.629   4.856  15.861  0.2925  0.0167  0.0746
35095W        W41545  17.015   4.708   1.995  0.2199  0.0032  0.2326
35096W        W41546   9.868   3.217  18.843  0.2563  0.0191  0.0601
35097W        W41547  18.716   0.928  11.605 -0.1662 -0.0962 -0.0176
35098W        W41548   1.346   4.567  16.839 -0.0708  0.3007  0.4893
35099W        W41549  25.520   4.667   9.755  0.1955  0.0527  0.0854
35100W        W41550   0.136   7.702  21.814 -0.3746  0.0515  0.0548
35101W        W41551   5.038   2.878   5.685  0.3015 -0.0094  0.2595
35102W        W41552   7.292   3.384  24.471 -0.3998 -0.2097  0.1291
35103W        W41553  26.920   2.140  10.869  0.0333 -0.3516  0.1553
35104W        W41554   9.763   5.408   6.595 -0.2325 -0.1645 -0.1212
35105W        W41555  29.195   6.521   2.540 -0.1960 -0.1863 -0.1721
35106W        W41556  11.146   3.497   1.742  0.0163 -0.2662 -0.2609
35107W        W41557  15.752   3.109  19.434 -0.1191  0.3251  0.0104
35108W        W41558  30.731   5.916  19.502 -0.1327 -0.2012  0.1102
35109W        W41559  24.288   1.162  24.092 -0.0257 -0.2300 -0.0078
35110W        W41560   5.063   2.826   1.933  0.0411 -0.1107  0.0771
35111W        W41561  17.700   6.838  23.752 -0.0466 -0.0454  0.0117
35112W        W41562  21.776   6.409   2.484  0.1668  0.0822 -0.0297
35113W        W41563  20.073   7.775  16.308  0.0073  0.1323  0.1426
35114W        W41564   4.958   1.637  18.005 -0.0048  0.1156 -0.0013
35115W        W41565  11.934   7.602  15.875 -0.1418 -0.3648  0.1322
35116W        W41566  16.122   4.791  22.222  0.0081 -0.0479 -0.2385
35117W        W41567  10.554   6.699   0.445 -0.0086 -0.0978  0.0505
35118W        W41568  16.193   1.031  21.620 -0.0622  0.0412 -0.1434
35119W        W41569   8.649   4.613   6.132  0.0153  0.0422  0.2198
35120W        W41570  11.398   6.696  22.710 -0.0792  0.0173 -0.0056
35121W        W41571  11.584   5.881  11.224 -0.0576  0.0545  0.1629
35122W        W41572  21.154   5.767  20.452 -0.0240  0.0194 -0.0685
35123W        W41573   3.376   7.592  26.343 -0.0997  0.0735 -0.1381
35124W        W41574  20.432   7.063   6.449  0.0342 -0.0243 -0.4334
35125W        W41575  21.768   6.976   1.521 -0.0548  0.0552  0.1172
35126W        W41576   4.636   7.024   9.989  0.0699 -0.1958  0.0727
35127W        W41577  13.662   2.903   9.083 -0.2509  0.0690 -0.0048
35128W        W41578  28.302   1.652   6.872  0.1844  0.2393  0.0615
35129W        W41579   7.763   7.493   1.986 -0.1883 -0.1821 -0.0361
35130W        W41580  18.939   4.340   2.201 -0.3213 -0.0917  0.0828
35131W        W41581  10.359   6.238   4.858  0.3542 -0.0190  0.0368
35132W        W41582   6.844   6.551   5.119 -0.0640  0.1062  0.1809
35133W        W41583  31.012   6.246  25.807 -0.1654 -0.0732  0.2272
35134W        W41584  28.315   6.807   3.765  0.1394  0.1237 -0.0846
35135W        W41585  21.407   7.063   1.925 -0.0717 -0.1681 -0.0289
35136W        W41586  30.634   2.854  10.197 -0.1000  0.3087  0.2630
35137W        W41587  17.510   2.722   9.211  0.0674  0.2086 -0.1593
35138W        W41588   0.679   6.108  23.714 -0.1181 -0.0916 -0.0998
35139W        W41589  18.289   4.627   0.525 -0.3160 -0.0730  0.2014
35140W        W41590   0.294   1.756  23.005  0.0685  0.0200  0.1143
35141W        W41591  14.444   4.986   3.634 -0.1988 -0.0760 -0.0251
35142W        W41592   3.106   3.089   1.973 -0.0549  0.0578  0.0174
35143W        W41593  29.479   2.713  20.522  0.0981  0.2979 -0.1340
35144W        W41594   3.217   5.651  20.293  0.0342  0.1694 -0.0983
35145W        W41595   3.039   4.787  18.265 -0.2560  0.0114 -0.1680
35146W        W41596   9.440   6.263   0.982  0.2381 -0.2132 -0.2616
35147W        W41597  26.216   3.666   2.140 -0.0742  0.1695  0.2609
35148W        W41598   7.244   3.146   7.368 -0.1252 -0.0451  0.2788
35149W        W41599  21.781   2.064   5.856  0.0914 -0.2346  0.0513
35150W        W41600  15.510   2.619  18.149 -0.2540  0.2360  0.1336
35151W        W41601  22.785   4.803   8.769  0.4566  0.1023 -0.0545
35152W        W41602  27.072   1.532   8.834 -0.1148 -0.0912  0.1069
35153W        W41603   3.751   7.520   9.058 -0.0726  0.1275 -0.1653
35154W        W41604   4.112   6.510  19.302 -0.0856  0.0181 -0.1509
35155W        W41605  22.534   7.450  18.600 -0.0088  0.2109 -0.0728
35156W        W41606   8.428   2.473  23.960  0.4464 -0.2395 -0.0192
35157W        W41607  21.311   6.667  10.767 -0.0457  0.0940 -0.1282
35158W        W41608   0.314   1.880   2.341  0.0035  0.0847 -0.0914
35159W        W41609  12.313   5.854   7.983 -0.1841  0.2219  0.2434
35160W        W41610   7.685   0.332   3.948 -0.1410 -0.0202  0.2963
35161W        W41611  15.901   1.030  25.791  0.1168 -0.3428 -0.0453
35162W        W41612   0.434   6.301  21.897 -0.0711 -0.3126 -0.2090
35163W        W41613  18.104   2.347  11.024  0.1200  0.1155 -0.0817
35164W        W41614   9.304   2.046  25.200  0.0648 -0.2069 -0.0254
35165W        W41615  22.831   5.673   5.044 -0.0429 -0.1735  0.4033
35166W        W41616  15.781   3.929  16.568  0.1064  0.0315 -0.2570
35167W        W41617  15.000   3.165   2.635  0.3342 -0.2702  0.2989
35168W        W41618   4.187   2.643  21.332 -0.2095  0.0884 -0.0615
35169W        W41619  26.991   4.319   7.326 -0.1167 -0.0961 -0.3263
35170W        W41620   5.211   3.572  23.444 -0.0244  0.1503 -0.0077
35171W        W41621   0.766   5.502   2.151 -0.0838 -0.0669 -0.1927
35172W        W41622   6.782   5.121  18.232  0.2921 -0.1081 -0.1090
35173W        W41623   4.652   3.891  24.318 -0.1957 -0.3206 -0.0771
35174W        W41624   5.316   5.526   8.133  0.0553 -0.2640  0.4320
35175W        W41625   6.034   0.373  20.538 -0.1617 -0.1956 -0.2008
35176W        W41626  25.695   0.471   6.694 -0.2448 -0.2237  0.1598
35177W        W41627  14.792   0.296   2.164 -0.0215 -0.1658 -0.0838
35178W        W41628  11.090   7.620  16.455 -0.3683 -0.1656 -0.0816
35179W        W41629   9.049   5.673   3.470 -0.0205 -0.0404  0.0304
35180W        W41630  22.901   4.682  24.620 -0.0201 -0.1200 -0.0201
35181W        W41631   0.473   2.941  20.491  0.1865  0.2021 -0.0223
35182W        W41632   0.945   4.950  20.367 -0.3305  0.0109 -0.1572
35183W        W41633  27.365   6.683  19.044  0.1841  0.2413  0.1495
35184W        W41634  18.093   1.614   9.770 -0.0214 -0.1345 -0.1527
35185W        W41635  21.677   7.700  25.414  0.0546 -0.2767  0.1141
35186W        W41636  23.767   4.891  21.088  0.0818  0.0572 -0.0223
35187W        W41637   9.430   1.568   7.550  0.2674  0.2774  0.2714
35188W        W41638  29.904   0.756  17.204 -0.1791  0.0671  0.2734
35189W        W41639   0.723   5.007   6.230 -0.0232  0.0677  0.1599
35190W        W41640  23.151   5.521  22.331  0.1830  0.1625  0.0971
35191W        W41641  19.093   5.955   2.464 -0.2296  0.0167  0.1762
35192W        W41642  25.623   6.059   5.492 -0.1217 -0.0753  0.1547
35193W        W41643  13.074   1.805   9.883 -0.0600  0.1913  0.1810
35194W        W41644   5.747   5.914  18.474  0.0471 -0.2626 -0.1560
35195W        W41645   9.896   3.398  24.986  0.0446  0.1039  0.2674
35196W        W41646  31.128   4.856   9.998 -0.1955 -0.0825  0.4786
35197W        W41647  13.216   2.253   0.945  0.1037  0.1168 -0.1853
35198W        W41648  15.307   0.366  20.092 -0.0864 -0.1426 -0.2174
35199W        W41649  20.352   2.235  19.394 -0.0503 -0.1975  0.1036
35200W        W41650   6.572   5.537  10.284 -0.0570  0.2022  0.1206
35201W        W41651  12.204   7.364  22.663 -0.0097  0.0920 -0.0219
35202W        W41652  12.581   3.338  20.379 -0.1133 -0.1623  0.1994
35203W        W41653  21.074   3.486   6.984 -0.1429 -0.0020 -0.0462
35204W        W41654  26.411   0.917   5.305  0.4287 -0.2123 -0.0809
35205W        W41655  16.616   1.390   1.896 -0.3873  0.1155 -0.1834
35206W        W41656  24.648   0.266  26.237 -0.4711  0.0577 -0.1140
35207W        W41657  29.227   7.314  16.120 -0.1421  0.2107  0.0158
35208W        W41658  29.175   1.775  10.036  0.1627 -0.0159 -0.1598
35209W        W41659  27.676   3.522   7.918 -0.2886  0.0772 -0.0384
35210W        W41660  16.748   4.863   1.542 -0.0759 -0.0074  0.0285
35211W        W41661   1.421   0.057   7.090 -0.1618  0.1237  0.0988
35212W        W41662  13.767   2.008   7.119  0.3945 -0.0157  0.0052
35213W        W41663  26.378   6.232  21.415 -0.1103 -0.0930  0.0407
35214W        W41664   2.255   6.033  10.146  0.2042  0.1610  0.0031
35215W        W41665  21.498   6.688  20.721 -0.0204 -0.2092 -0.0669
35216W        W41666   9.443   3.104  21.866 -0.1175 -0.3228  0.0536
35217W        W41667  18.495   3.062  18.415  0.2364 -0.1159 -0.0846
35218W        W41668   7.307   4.061   4.585 -0.2111 -0.1360 -0.0701
35219W        W41669   6.086   3.510  22.468 -0.1787 -0.2009 -0.1042
35220W        W41670  30.635   3.162  21.297 -0.0167 -0.1226  0.2181
35221W        W41671  27.611   4.970  15.626 -0.2031  0.1202 -0.0257
35222W        W41672  17.315   6.942  10.609 -0.3550  0.1199  0.0503
35223W        W41673  13.499   5.742   8.654  0.0602 -0.1310 -0.0422
35224W        W41674   3.956   2.804  16.921  0.1347 -0.3466 -0.0247
35225W        W41675   9.400   5.284  10.192 -0.2084  0.0747  0.1273
35226W        W41676  10.696   5.223   8.761  0.1719  0.0707  0.0244
35227W        W41677  20.821   4.427  21.832  0.1681  0.0627 -0.0021
35228W        W41678   9.923   2.362   9.615  0.2948  0.4619  0.0229
35229W        W41679  21.278   3.636  21.398  0.3605  0.4115 -0.2062
35230W        W41680  17.579   3.204  26.394  0.2261 -0.0128  0.2225
35231W        W41681   6.040   0.575  24.134  0.1179 -0.2131  0.1578
35232W        W41682  13.310   5.996   2.974  0.0492 -0.2163 -0.0223
35233W        W41683  12.924   2.587  22.449 -0.1807  0.0872 -0.0127
35234W        W41684  25.841   6.534  24.321 -0.0401  0.0226  0.1880
35235W        W41685  18.081   4.027  25.483  0.0223  0.1651  0.3645
35236W        W41686  26.773   5.595  25.429  0.0855  0.2798 -0.2579
35237W        W41687  20.558   6.080  19.826  0.0315 -0.3682  0.0809
35238W        W41688  29.070   2.515   5.205 -0.2417 -0.4397 -0.0078
35239W        W41689  30.835   6.855  18.474 -0.0479 -0.2632  0.0457
35240W        W41690   6.509   1.182  10.253 -0.1489  0.1190 -0.0658
35241W        W41691   5.363   7.719  19.109 -0.1865  0.1764 -0.0054
35242W        W41692  17.058   4.986  26.183 -0.2160  0.1157  0.5114
35243W        W41693  15.693   3.122  10.725  0.1102  0.2781  0.2767
35244W        W41694   0.286   0.416  23.629 -0.0691 -0.0015 -0.1394
35245W        W41695  18.174   6.211   6.773  0.2504  0.2396 -0.1480
35246W        W41696  22.360   0.109   0.016 -0.0742  0.0100 -0.3637
35247W        W41697   3.828   6.250  19.708 -0.2458 -0.0326  0.0278
35248W        W41698   4.766   7.475   5.814  0.1012 -0.1692  0.3065
35249W        W41699  18.783   7.452   4.775 -0.1164  0.0775  0.1191
35250W        W41700  18.339   3.060   9.625  0.3761  0.2431  0.0185
35251W        W41701  18.664   2.416  22.092 -0.1360  0.2640  0.1955
35252W        W41702   8.855   4.101   5.066 -0.1366 -0.2557 -0.2075
35253W        W41703  28.174   0.451   7.482 -0.0515 -0.2078 -0.0532
35254W        W41704  28.671   0.838  18.836 -0.0581  0.1332 -0.0105
35255W        W41705  16.925   5.285  21.643  0.0233  0.0848 -0.0900
35256W        W41706  13.735   7.568  23.033 -0.2776  0.1049  0.0828
35257W        W41707   5.984   3.366  10.106 -0.1844  0.1883  0.0671
35258W        W41708  27.663   3.842  25.241  0.1022 -0.1192  0.0294
35259W        W41709  27.421   2.721  23.005 -0.1003 -0.0744 -0.0239
35260W        W41710   1.132   1.946  23.081  0.2523  0.2140 -0.1610
35261W        W41711  20.547   5.717   2.453 -0.0004 -0.4596  0.2740
35262W        W41712  22.319   5.937   4.333 -0.0359  0.1317 -0.1229
35263W        W41713  10.814   5.990   4.840 -0.2518 -0.2684  0.3400
35264W        W41714  11.195   2.753   6.057 -0.1466  0.1297 -0.0857
35265W        W41715  25.956   1.809   8.149  0.0627  0.1968  0.0702
35266W        W41716   9.821   6.529  18.770  0.0732 -0.1179  0.0310
35267W        W41717  26.022   3.995  19.833  0.0855 -0.0224 -0.0864
35268W        W41718  21.711   2.846  18.090 -0.1858  0.1832  0.2668
35269W        W41719   6.023   7.713  19.614 -0.1599 -0.1017  0.2586
35270W        W41720  27.708   1.515   3.014  0.0634  0.1298 -0.1699
35271W        W41721  30.064   6.844  18.858  0.2736  0.1128 -0.0704
35272W        W41722   1.071   4.738   5.870  0.0044  0.0888 -0.2537
35273W        W41723   5.714   1.107  16.325 -0.0061 -0.2950 -0.0407
35274W        W41724  23.784   4.469  24.394 -0.0484  0.2761  0.2544
35275W        W41725  12.538   3.803  22.276  0.3993  0.0857 -0.0335
35276W        W41726   8.425   6.751   5.091 -0.0838  0.0461  0.0066
35277W        W41727  21.001   7.432  15.993  0.1460 -0.1835  0.1996
35278W        W41728   3.016   4.664   2.029  0.0639  0.1660 -0.0247
35279W        W41729  23.287   2.127   3.158  0.0294 -0.0491 -0.1062
35280W        W41730  13.306   1.780  10.337 -0.3453  0.2506  0.2300
35281W        W41731  15.681   0.156  24.674 -0.0796  0.0420  0.0977
35282W        W41732   7.087   0.636  17.120 -0.0884  0.1115 -0.2335
35283W        W41733  18.980   2.275  17.709 -0.0879  0.0244 -0.0358
35284W        W41734   1.263   0.489   8.580 -0.2217  0.0479  0.2369
35285W        W41735   2.871   7.111  10.786  0.1744 -0.1004  0.0282
35286W        W41736  27.948   3.307   9.432  0.0267 -0.0624 -0.2661
35287W        W41737   3.209   7.368   6.402  0.0598 -0.5374 -0.0116
35288W        W41738  27.621   5.566   1.321 -0.0538 -0.2704  0.0997
35289W        W41739  19.334   3.103  10.659 -0.1337  0.1434  0.0923
35290W        W41740  19.889   4.901  20.332  0.0618 -0.1036  0.1085
35291W        W41741   1.782   6.112  20.168  0.0335 -0.0649  0.1884
35292W        W41742  26.699   6.304   0.664 -0.0656 -0.4180 -0.2009
35293W        W41743  25.702   6.475   2.480  0.3282 -0.1351  0.4949
35294W        W41744   6.529   3.417   1.430  0.1111 -0.0504 -0.1631
35295W        W41745   1.496   5.961  17.507 -0.6004 -0.0155 -0.0398
35296W        W41746  23.310   7.569   2.423 -0.1265 -0.1680  0.0748
35297W        W41747  23.107   3.684   7.701  0.1520 -0.1219  0.2209
35298W        W41748   7.026   4.815   2.360  0.1600  0.0374  0.0072
35299W        W41749  20.247   5.765  21.097  0.0972 -0.3143 -0.5379
35300W        W41750  18.931   0.705  24.766  0.1061  0.0660 -0.2627
35301W        W41751  26.515   4.033  19.993  0.2571  0.1453 -0.0431
35302W        W41752  16.289   2.853  24.750 -0.1301 -0.2454 -0.0645
35303W        W41753  21.602   5.314  21.009  0.3955 -0.1077  0.1869
35304W        W41754  15.572   3.091   2.867 -0.0388 -0.0409  0.4611
35305W        W41755  19.542   1.278   4.191 -0.1194  0.0028 -0.1425
35306W        W41756  25.111   3.653   8.228  0.0711  0.1226  0.1173
35307W        W41757   8.402   6.460   8.822  0.0880  0.0456  0.1797
35308W        W41758   3.168   0.717  24.141 -0.1208 -0.0723 -0.1172
35309W        W41759   7.834   2.228   6.217  0.1466 -0.0223  0.0527
35310W        W41760  27.688   3.372  17.689  0.0102 -0.1317  0.1944
35311W        W41761  28.412   0.214  26.146  0.2129  0.0505  0.0335
35312W        W41762   2.240   1.695   7.731  0.2367  0.0410 -0.0471
35313W        W41763   2.260   2.733   4.544 -0.0941 -0.2675 -0.0403
35314W        W41764  28.666   6.069   7.708 -0.0065 -0.0671  0.0234
35315W        W41765  15.540   3.975   6.025 -0.0846 -0.0726  0.0770
35316W        W41766  21.286   2.185  11.473  0.0830  0.4290 -0.0394
35317W        W41767  26.121   7.567  22.805  0.0842 -0.2805  0.1413
35318W        W41768   4.038   6.641   9.447  0.1629  0.3688 -0.1040
35319W        W41769  10.669   1.939  16.946 -0.2246 -0.0301  0.0269
35320W        W41770  26.626   2.618  18.447  0.2846 -0.0075  0.0938
35321W        W41771  12.230   7.253   6.993  0.2510 -0.0733  0.2199
35322W        W41772  17.825   5.834   7.919  0.0208 -0.1998  0.0598
35323W        W41773  19.878   4.383  24.030 -0.2054  0.1555  0.1460
35324W        W41774  27.185   6.595  15.524 -0.1249 -0.1326  0.3686
35325W        W41775   1.253   4.924   2.480  0.1019 -0.2577  0.0667
35326W        W41776  30.265   1.319  23.658  0.0924  0.0500  0.0046
35327W        W41777  19.420   1.647  17.494 -0.0464  0.0395 -0.1422
35328W        W41778   1.311   6.633   9.858 -0.2698  0.1602  0.3503
35329W        W41779  28.555   3.726  16.042  0.1320 -0.1198 -0.3048
35330W        W41780  24.882   4.066   5.258  0.0093  0.2308 -0.1612
35331W        W41781   1.388   3.085  23.677 -0.1535 -0.2607 -0.1560
35332W        W41782  24.280   1.980   6.370  0.0106 -0.1461 -0.3619
35333W        W41783  17.771   3.392  20.731 -0.1230 -0.1181 -0.0036
35334W        W41784  25.366   2.242   1.225 -0.2367  0.1647  0.4048
35335W        W41785  20.236   0.865  18.357  0.0612 -0.1030  0.1018
35336W        W41786  21.246   4.408  19.751  0.1048 -0.0660 -0.3335
35337W        W41787   6.518   4.361   6.056 -0.0530 -0.1582 -0.0424
35338W        W41788   3.769   7.272  16.344  0.0510  0.2242 -0.3231
35339W        W41789  25.176   2.786   4.046  0.1834  0.1370 -0.0108
35340W        W41790   9.262   7.037   7.471  0.1821 -0.0185 -0.0021
35341W        W41791  15.276   5.122  21.752 -0.1031  0.1371 -0.0394
35342W        W41792   2.787   1.988   5.485  0.1669  0.2926 -0.0303
35343W        W41793  21.577   6.315  19.315  0.0230 -0.0438  0.1157
35344W        W41794  10.357   1.895  16.533 -0.0134  0.1289 -0.1606
35345W        W41795   4.436   1.118   1.238  0.2527 -0.3145 -0.3415
35346W        W41796  12.724   2.233   0.862 -0.0010 -0.0880  0.0447
35347W        W41797  24.823   5.663  19.194 -0.0462  0.1453 -0.0271
35348W        W41798  16.219   7.386  18.189  0.1894 -0.2948 -0.1062
35349W        W41799  10.002   0.517  22.591 -0.2163  0.3089 -0.2615
35350W        W41800  30.628   5.619   7.475  0.0760 -0.0234 -0.0259
35351W        W41801  25.374   6.330  26.187 -0.0173 -0.1573  0.0145
35352W        W41802  10.608   5.789   7.615  0.1052  0.1931  0.2644
35353W        W41803  30.271   4.433  19.039 -0.0824 -0.2220  0.1626
35354W        W41804  25.588   2.306  20.239  0.0607  0.0096 -0.1519
35355W        W41805  16.556   1.317  19.457 -0.3802  0.0156 -0.2743
35356W        W41806  10.395   1.501  16.893  0.0497 -0.1748  0.0588
35357W        W41807  21.622   1.841  16.295  0.1896 -0.3055 -0.2613
35358W        W41808   9.095   5.583   1.776  0.0151 -0.1421  0.3253
35359W        W41809  17.487   6.323  16.041  0.4679  0.1350 -0.4241
35360W        W41810  28.985   4.384  22.148 -0.1645 -0.2073  0.0110
35361W        W41811   7.959   7.416  17.645 -0.0717 -0.2078  0.3096
35362W        W41812  16.810   2.752  18.232 -0.0625 -0.2584 -0.0316
35363W        W41813  30.671   4.661   4.798  0.2312 -0.2551 -0.1486
35364W        W41814  19.319   3.994  17.455  0.1611  0.0515  0.1063
35365W        W41815  19.162   1.410  20.918  0.1443 -0.0400 -0.2413
35366W        W41816  30.143   2.082  23.386 -0.1813 -0.3097  0.0635
35367W        W41817  14.569   2.740  22.957  0.0701  0.1138  0.0189
35368W        W41818   1.605   5.598  20.343 -0.1621  0.4829  0.3403
35369W        W41819  28.958   4.621   3.997 -0.0962  0.0131  0.0300
35370W        W41820   2.547   4.043   7.750 -0.0364  0.0761 -0.0309
35371W        W41821  11.139   3.063  17.010 -0.5042 -0.0650  0.1403
35372W        W41822   0.286   7.292   1.033  0.1342 -0.0325  0.1831
35373W        W41823  25.285   1.046  21.900  0.2569 -0.0503 -0.1425
35374W        W41824   0.732   7.379  15.694 -0.0523 -0.0895  0.0438
35375W        W41825   9.941   5.092   4.302  0.1710  0.1748 -0.0968
35376W        W41826  15.275   0.197   1.680  0.0003 -0.0041 -0.0137
35377W        W41827   3.765   6.348  22.866 -0.1423 -0.2206  0.2539
35378W        W41828   9.217   4.480  21.721 -0.2785 -0.2644 -0.1689
35379W        W41829  19.653   7.468  18.503 -0.1677  0.0046  0.1441
35380W        W41830  13.857   1.696  10.316  0.5165 -0.0868  0.1622
35381W        W41831  27.443   1.168  15.170 -0.0487 -0.1926  0.0325
35382W        W41832   3.661   3.638   4.264 -0.1568 -0.0771 -0.1834
35383W        W41833   1.103   7.020  21.643 -0.0952 -0.1141 -0.3937
35384W        W41834  18.979   3.118  25.113  0.0995 -0.0480  0.1914
35385W        W41835  21.448   2.780  18.968  0.0289  0.2176 -0.0038
35386W        W41836  15.671   6.909  18.863 -0.0891  0.1691  0.1311
35387W        W41837  18.958   1.213  18.284 -0.2501  0.2770  0.0348
35388W        W41838  24.316   7.775   1.690 -0.2254  0.0162  0.3179
35389W        W41839   2.137   3.130  22.939 -0.0152  0.2932 -0.1167
35390W        W41840   3.832   1.219   6.883 -0.1575 -0.0751 -0.1076
35391W        W41841   7.503   7.497  23.753 -0.3134  0.2679 -0.0217
35392W        W41842  27.943   2.468  18.813  0.2354 -0.0617  0.1109
35393W        W41843   5.207   6.170   9.479 -0.1271  0.3028 -0.0079
35394W        W41844  14.853   6.230  20.810 -0.1449 -0.3674 -0.2040
35395W        W41845  27.210   7.332  15.404  0.1351  0.0315 -0.0630
35396W        W41846  24.391   1.085  21.103 -0.1912  0.0445 -0.0329
35397W        W41847  10.752   4.402  21.251 -0.0032  0.3855 -0.0008
35398W        W41848  13.235   5.513  16.808 -0.0868 -0.0994 -0.1110
35399W        W41849  23.718   1.956  15.518  0.2168  0.4009  0.1764
35400W        W41850  25.314   1.534  19.899 -0.0757  0.3594  0.0870
35401W        W41851   4.993   0.336   4.692  0.1434  0.2304  0.3602
35402W        W41852   0.998   3.984  23.033  0.2454  0.2283 -0.4319
35403W        W41853  29.417   5.803  16.659  0.0131 -0.0108  0.0082
35404W        W41854  23.271   1.146   0.950  0.1865  0.0529  0.0553
35405W        W41855  18.742   2.122  18.754 -0.2924  0.0563 -0.2292
35406W        W41856   7.913   4.278   1.706 -0.0966  0.1486  0.3793
35407W        W41857   0.852   1.544  25.039  0.0484 -0.2143 -0.2858
35408W        W41858  21.312   2.264  16.355 -0.1909 -0.0235  0.3381
35409W        W41859  24.101   2.792   0.125  0.1770 -0.2428  0.1365
35410W        W41860   2.858   5.910  22.663 -0.3063 -0.1456 -0.0416
35411W        W41861  12.239   1.012   0.773 -0.3107 -0.0219  0.3123
35412W        W41862   4.569   7.123  24.871 -0.2029 -0.0648 -0.0537
35413W        W41863  18.268   5.058  21.835  0.0582  0.1730  0.1286
35414W        W41864  23.445   0.432   8.407  0.2538 -0.0427 -0.0818
35415W        W41865  15.998   7.264  14.434  0.1019  0.2521  0.1249
35416W        W41866   6.016   4.039  21.408 -0.4591 -0.1194 -0.0726
35417W        W41867  11.870   4.043  16.143 -0.1206  0.0055  0.1944
35418W        W41868   2.100   4.358   8.480 -0.1109  0.0600  0.1872
35419W        W41869  27.844   0.036  10.371 -0.2242  0.2087  0.2676
35420W        W41870   9.910   6.302   4.007 -0.2201 -0.0807  0.1046
35421W        W41871  18.596   6.296  18.733 -0.1266  0.1750  0.1306
35422W        W41872  15.357   2.167   5.518 -0.0442  0.1493  0.2799
35423W        W41873  11.303   7.201   3.370 -0.0183  0.2163  0.1158
35424W        W41874   8.695   6.041   8.803  0.1788  0.0010  0.0477
35425W        W41875  17.756   0.767  15.409 -0.0191 -0.0666 -0.0017
35426W        W41876  20.594   3.605  21.995 -0.3703 -0.2375  0.0248
35427W        W41877  11.295   0.968  20.376  0.1104 -0.1012 -0.1168
35428W        W41878  24.811   1.021   4.214  0.0875 -0.1091 -0.1051
35429W        W41879   7.666   2.031   7.549 -0.0315 -0.4006  0.0156
35430W        W41880  20.656   6.061   6.363  0.0218  0.0589  0.0538
35431W        W41881  22.514   1.503   9.779  0.0871  0.0795  0.3357
35432W        W41882  10.898   3.702  22.322  0.3717 -0.1543 -0.2168
35433W        W41883  12.215   6.272  19.486 -0.2056 -0.1716  0.0712
35434W        W41884   8.854   3.506  18.620 -0.2825  0.1099  0.0307
35435W        W41885  26.343   3.956  24.605  0.1680  0.2037 -0.0490
35436W        W41886   7.649   3.815  10.512  0.1731  0.0375 -0.2259
35437W        W41887  15.784   6.792   8.900 -0.1315  0.1722 -0.1280
35438W        W41888  17.909   0.411   6.196 -0.1314  0.1685 -0.1719
35439W        W41889  25.543   4.224   0.547 -0.2476  0.0597  0.1780
35440W        W41890  21.525   0.344  23.150  0.2263  0.0957 -0.2509
35441W        W41891  17.428   5.707   1.811  0.1907 -0.1348 -0.2251
35442W        W41892  26.493   6.852  16.160  0.2047  0.2862  0.1384
35443W        W41893   0.939   5.811  23.065  0.0474  0.0620 -0.0512
35444W        W41894  18.978   0.981   9.389 -0.0945  0.4037  0.1610
35445W        W41895   9.978   4.514  16.712 -0.1928 -0.0434  0.1609
35446W        W41896  24.894   1.518   8.589 -0.0929  0.0576 -0.0187
35447W        W41897   1.923   5.670   1.080  0.1293  0.2714 -0.3035
35448W        W41898  22.499   6.679  24.988  0.0197  0.1947 -0.4448
35449W        W41899   7.270   7.767  23.336 -0.2017  0.2920  0.0140
35450W        W41900   0.768   3.038  26.173 -0.0736 -0.0008  0.0236
35451W        W41901  20.667   4.786  24.608  0.0123  0.1682  0.2746
35452W        W41902   2.412   3.686  19.974  0.3294  0.1367  0.2898
35453W        W41903  30.758   3.322   5.585 -0.0059  0.1695 -0.2651
35454W        W41904  13.025   6.140  15.522  0.1343 -0.2444  0.1061
35455W        W41905  28.400   4.775  18.396  0.1708  0.0277  0.1991
35456W        W41906   8.525   3.225   7.451  0.0473 -0.2560  0.0416
35457W        W41907   1.970   6.167  21.963  0.0800 -0.0037  0.1715
35458W        W41908  19.044   4.788  22.620  0.1868  0.0290 -0.1462
35459W        W41909  30.077   3.325  11.672  0.0652  0.1073  0.0767
35460W        W41910  17.562   6.799  19.847 -0.1144  0.2841  0.1789
35461W        W41911  21.528   6.864   8.630  0.4710 -0.1328 -0.1467
35462W        W41912  19.710   1.366  26.282  0.0604 -0.0048 -0.0062
35463W        W41913  23.388   1.332  17.070 -0.0216  0.0976  0.0982
35464W        W41914   6.204   1.456  21.341 -0.0519 -0.1226  0.0152
35465W        W41915  21.037   5.511  21.014 -0.0072 -0.2974  0.3518
35466W        W41916  30.362   2.707   2.530  0.0563 -0.0000 -0.0153
35467W        W41917  17.445   4.000  19.348  0.0059 -0.0479  0.3620
35468W        W41918   3.276   6.059   5.068  0.0390  0.1997 -0.1628
35469W        W41919   6.418   0.057   8.693  0.0384 -0.0618 -0.1578
35470W        W41920   7.538   4.713   0.686 -0.3136  0.1164  0.1470
35471W        W41921  12.975   3.196   6.972 -0.5774 -0.0970  0.1460
35472W        W41922  11.244   5.960   6.157 -0.0501 -0.0400 -0.0546
35473W        W41923   3.675   1.830  21.089 -0.0971  0.0343  0.0791
35474W        W41924  25.317   6.979   6.326 -0.1914  0.2410  0.2148
35475W        W41925  14.461   3.613  21.782 -0.2559 -0.1203 -0.2546
35476W        W41926   9.464   4.795   2.402 -0.2240 -0.0514 -0.2430
35477W        W41927  14.132   5.757   9.900 -0.3643 -0.2494 -0.2074
35478W        W41928  10.050   0.227  18.387  0.3241  0.1533  0.0375
35479W        W41929   5.049   1.122   2.392 -0.3889 -0.0938 -0.1993
35480W        W41930  19.693   6.346  18.422  0.1993 -0.1264 -0.1219
35481W        W41931   2.844   5.883   6.265  0.0766  0.2177 -0.0000
35482W        W41932   8.660   7.780  23.650  0.0369  0.1886  0.0268
35483W        W41933  15.206   4.964  22.802  0.1072 -0.1332 -0.0557
35484W        W41934  20.889   7.126  23.998  0.1411  0.1456  0.1206
35485W        W41935  30.467   2.796   0.707  0.0532 -0.0115  0.0097
35486W        W41936  28.236   1.496  17.088  0.0644 -0.0330 -0.0842
35487W        W41937  23.333   0.084  20.845 -0.1521  0.0652 -0.0010
35488W        W41938   9.804   0.631   0.462 -0.3169  0.2452  0.1145
35489W        W41939  15.089   6.307   9.533 -0.1811 -0.0877  0.3488
35490W        W41940  23.829   4.333  11.355 -0.1452 -0.4286  0.1226
35491W        W41941  13.471   1.461   0.682  0.0796  0.3930  0.0793
35492W        W41942   8.128   7.499  18.352 -0.3695  0.2536  0.2443
35493W        W41943   8.003   5.522  22.506  0.0203 -0.1631  0.1650
35494W        W41944  30.493   5.267  18.721 -0.1091 -0.0689  0.0631
35495W        W41945  26.714   4.495   2.502  0.0775 -0.2481 -0.0508
35496W        W41946  13.791   0.684   8.817 -0.1556 -0.0156 -0.3549
35497W        W41947   8.356   4.672  16.292 -0.1659 -0.0381  0.0701
35498W        W41948  20.380   1.504   4.015  0.0027  0.0592 -0.1125
35499W        W41949  13.917   1.213  19.825 -0.0041 -0.0160  0.2876
35500W        W41950   9.189   2.748   0.820 -0.1324 -0.0667 -0.1008
35501W        W41951  26.075   6.733   0.379  0.2115 -0.1026 -0.1702
35502W        W41952   7.172   6.672   1.463  0.2867  0.1330 -0.0635
35503W        W41953  21.877   0.750  19.085 -0.1536 -0.0219 -0.0872
35504W        W41954   8.977   2.216  15.766  0.0317 -0.0107  0.4191
35505W        W41955   4.863   1.080  24.633  0.1950  0.1299  0.4171
35506W        W41956   2.108   2.194   8.236 -0.1002  0.1761 -0.0848
35507W        W41957  14.154   0.619  23.018  0.0505 -0.1119 -0.0881
35508W        W41958  19.087   1.074   7.120 -0.5282  0.1029 -0.1784
35509W        W41959   7.803   4.979  25.067  0.0551 -0.0058 -0.1375
35510W        W41960   1.916   0.942  16.912 -0.2958  0.0904  0.0852
35511W        W41961   8.524   1.254  16.397  0.0449 -0.0575  0.4402
35512W        W41962  14.013   5.457   7.407 -0.1808  0.0458  0.0039
35513W        W41963  11.017   4.132  24.161 -0.1978 -0.0784 -0.1203
35514W        W41964  29.637   5.307  24.143 -0.0409 -0.0848  0.1876
35515W        W41965  24.740   4.427  22.076 -0.1941 -0.1266 -0.0845
35516W        W41966  10.435   3.524  10.293  0.0889  0.0858 -0.2482
35517W        W41967  26.993   6.988  17.662 -0.0753 -0.1687 -0.1281
35518W        W41968  20.899   0.487  19.100  0.1293 -0.1903  0.0595
35519W        W41969  18.211   1.741   5.345 -0.3452 -0.1913  0.0854
35520W        W41970  14.925   5.353  15.409 -0.1515 -0.3617  0.1058
35521W        W41971  29.050   6.906  19.149  0.1128 -0.1876  0.0825
35522W        W41972  30.137   6.331   7.420  0.1365 -0.3908  0.1798
35523W        W41973  17.955   4.204  10.311 -0.3085  0.0666  0.0254
35524W        W41974  26.771   4.462  23.126  0.1923 -0.1794 -0.2056
35525W        W41975  21.149   5.799  22.330  0.0159 -0.2757 -0.1975
35526W        W41976  17.802   5.968   7.060  0.1568  0.1849  0.1032
35527W        W41977  25.196   7.374   3.193  0.0123 -0.2172 -0.1066
35528W        W41978  22.089   6.901  17.451  0.0011 -0.3446  0.2097
35529W        W41979   9.437   0.607  21.245  0.1427  0.3107 -0.3669
35530W        W41980  25.340   7.378   9.353 -0.0907  0.1322 -0.0600
35531W        W41981  29.816   3.841   0.709  0.3082 -0.1807 -0.0155
35532W        W41982  18.380   3.092   4.755 -0.0981 -0.1231 -0.1094
35533W        W41983  28.952   4.315   6.718  0.3186  0.1156 -0.0590
35534W        W41984  15.591   7.561  23.346 -0.2247  0.0453  0.0417
35535W        W41985  20.742   0.738   8.019  0.3466 -0.0961  0.0053
35536W        W41986  20.547   2.602  23.356  0.1376 -0.0116  0.2821
35537W        W41987  27.321   3.554  19.696  0.1060 -0.1960  0.1677
35538W        W41988  27.575   7.715   8.631  0.0976 -0.1357 -0.0215
35539W        W41989  21.156   4.914   8.240  0.0431  0.0708  0.2925
35540W        W41990  23.951   3.404  19.867  0.0476 -0.0142 -0.2415
35541W        W41991  19.743   4.824  18.421 -0.1559  0.2519 -0.3090
35542W        W41992   5.694   4.711  25.969  0.1845  0.2404  0.1704
35543W        W41993  27.002   7.064   6.227  0.1690  0.1223 -0.0852
35544W        W41994  22.922   7.776  24.942  0.0209 -0.1030 -0.0735
35545W        W41995  22.733   1.490   2.341 -0.0086 -0.3390 -0.1620
35546W        W41996  12.415   0.230   1.793 -0.1504  0.0776  0.1523
35547W        W41997  22.874   5.311   1.502  0.0086 -0.1248  0.0602
35548W        W41998  28.740   7.137  24.930 -0.0472  0.1290  0.0923
35549W        W41999  28.657   1.729  17.142  0.0341  0.0593  0.1729
35550W        W42000   8.887   3.023   7.140 -0.2848  0.1932  0.0839
35551W        W42001  13.487   7.143   6.636 -0.2464 -0.0000  0.3411
35552W        W42002  11.749   3.466   3.483  0.0822  0.3455  0.0342
35553W        W42003  29.934   2.834  17.950 -0.0370 -0.0258  0.0315
35554W        W42004  15.519   2.195   6.398 -0.3751 -0.2497 -0.2850
35555W        W42005  10.497   0.737   4.815 -0.1317 -0.0258 -0.0435
35556W        W42006  30.177   2.660   2.998  0.0425 -0.1723  0.1856
35557W        W42007  19.745   6.363  19.230  0.1093 -0.1395  0.1634
35558W        W42008  20.051   3.074  18.857 -0.0766 -0.1468 -0.0345
35559W        W42009  20.869   1.631   5.503 -0.0867 -0.0019  0.1538
35560W        W42010  14.558   7.557  15.362 -0.1584  0.0168 -0.2204
35561W        W42011   0.896   1.216   4.915 -0.6855 -0.0715  0.0820
35562W        W42012  16.112   4.946  26.421  0.0626  0.0834 -0.0567
35563W        W42013   0.099   5.876  19.621 -0.1129  0.3006  0.1884
35564W        W42014   6.824   1.008   9.400  0.3449  0.1369  0.0039
35565W        W42015  29.727   6.323   3.713 -0.3303  0.3078 -0.0867
35566W        W42016  20.590   6.349   4.655  0.1005 -0.1677 -0.1751
35567W        W42017  12.788   4.925   1.516  0.1996 -0.1609  0.3283
35568W        W42018  12.783   1.602   9.127  0.1182 -0.3990  0.0835
35569W        W42019  18.246   7.164  19.574 -0.3813 -0.0883 -0.1265
35570W        W42020  30.827   6.914   7.140 -0.0954  0.2027 -0.1898
35571W        W42021  17.106   3.925  17.406  0.2260 -0.2115  0.3215
35572W        W42022  18.043   6.320  18.727 -0.0729  0.0844 -0.1624
35573W        W42023   0.059   4.055  22.260  0.1019 -0.1269  0.3889
35574W        W42024  10.781   2.402  23.866 -0.0524  0.2601  0.2434
35575W        W42025  19.441   1.915   3.712  0.2122  0.1165 -0.1314
35576W        W42026   8.822   5.447   5.051 -0.1823 -0.2468 -0.1225
35577W        W42027  27.241   3.753  22.579 -0.2009 -0.0725  0.1561
35578W        W42028  19.373   5.279   8.915  0.4195  0.2261  0.0123
35579W        W42029   9.448   5.980  23.110 -0.0645 -0.3532  0.0658
35580W        W42030  24.404   3.482   6.977  0.1876  0.0659 -0.1698
35581W        W42031  24.971   1.980  17.230  0.1653 -0.2796  0.0724
35582W        W42032   2.273   0.932  24.666 -0.0254 -0.1824  0.1876
35583W        W42033  30.450   6.966  10.253 -0.0403  0.0893 -0.1337
35584W        W42034  20.411   4.180  17.015  0.1469 -0.1872 -0.2208
35585W        W42035   3.127   4.534  15.651  0.0730  0.1723 -0.0392
35586W        W42036  23.865   5.681   1.960 -0.0456  0.1012  0.1894
35587W        W42037   0.941   7.045  24.821 -0.0738 -0.0508  0.1519
35588W        W42038  13.763   2.196  22.294  0.1725  0.0992  0.1056
35589W        W42039  12.217   1.915  23.765  0.0348  0.0678  0.3680
35590W        W42040  23.970   0.913   9.794  0.0128 -0.0249 -0.0833
35591W        W42041   6.190   7.769   6.932 -0.1596 -0.2499  0.2817
35592W        W42042   6.971   0.241  18.670  0.0475  0.0811  0.0163
35593W        W42043   6.417   3.975   1.368 -0.0817 -0.2770  0.1234
35594W        W42044  30.937   2.157  17.962 -0.1958 -0.1028  0.2669
35595W        W42045  10.365   5.713   3.548 -0.0762  0.0237 -0.0766
35596W        W42046  31.094   6.645  21.411  0.3573 -0.0256 -0.1948
35597W        W42047   3.461   5.126  22.588  0.0677 -0.0208  0.1607
35598W        W42048   7.573   2.642  21.705 -0.0127 -0.1620  0.0161
35599W        W42049  21.931   2.381  23.808 -0.3203  0.1824 -0.1535
35600W        W42050   6.995   5.863  21.966 -0.3013  0.0701 -0.0308
35601W        W42051   4.948   1.430   8.970 -0.0761  0.0886 -0.1385
35602W        W42052  15.199   5.871  21.659  0.3501 -0.3250  0.0478
35603W        W42053  21.495   2.511   1.644  0.2019 -0.2110  0.0410
35604W        W42054  17.255   3.170   4.874 -0.0187  0.4765 -0.0250
35605W        W42055   7.531   2.764  20.331  0.1292 -0.3421 -0.2417
35606W        W42056  29.993   3.559   2.692 -0.2532  0.0963  0.0727
35607W        W42057  11.929   0.804  10.696  0.0417  0.0259  0.0701
35608W        W42058   7.178   2.873  22.131  0.0259 -0.1719 -0.1117
35609W        W42059  21.862   6.435  16.015 -0.3019  0.2483 -0.0231
35610W        W42060  11.238   1.596   3.570  0.1242 -0.0505  0.2070
35611W        W42061  27.961   4.424  19.839 -0.2507  0.2367 -0.0745
35612W        W42062  27.848   2.432   5.722 -0.1031 -0.0441 -0.1197
35613W        W42063   2.076   2.853   5.917  0.0727  0.1011 -0.1827
35614W        W42064   0.460   5.585   9.931  0.1519  0.1167  0.3089
35615W        W42065  21.612   3.213   5.824  0.0030 -0.0328  0.0259
35616W        W42066  21.459   5.073   9.742 -0.0174 -0.2699  0.1977
35617W        W42067  17.058   1.367   2.225 -0.0233  0.1245  0.2056
35618W        W42068  21.195   7.108   3.942  0.1877  0.0488  0.3255
35619W        W42069   0.993   2.419  23.938 -0.0674  0.0061  0.2762
35620W        W42070   4.873   4.365  10.499  0.0584  0.1294  0.1858
35621W        W42071  15.908   6.431  15.603  0.2734 -0.0906 -0.1288
35622W        W42072  23.880   3.644  25.631  0.1138 -0.0857  0.0526
35623W        W42073  12.173   7.108  16.995  0.1355 -0.2231 -0.0460
35624W        W42074  22.008   0.599  10.637  0.0081 -0.0148  0.1195
35625W        W42075  24.615   6.476  19.795 -0.1848  0.1639 -0.1581
35626W        W42076  19.749   6.957  21.226 -0.1909  0.0330 -0.0456
35627W        W42077  10.424   2.830  19.488 -0.0298  0.4012 -0.1590
35628W        W42078   5.750   5.882   9.657  0.0643  0.2763 -0.3613
35629W        W42079   4.153   4.854  21.807 -0.1086  0.0278 -0.4932
35630W        W42080  12.293   7.123   2.278  0.0080 -0.0288 -0.0953
35631W        W42081  16.827   7.478   9.619  0.2613  0.1924 -0.1943
35632W        W42082  18.861   0.510  24.266  0.0275  0.2274 -0.1973
35633W        W42083  15.046   6.240   5.093  0.0048 -0.4634 -0.1933
35634W        W42084   9.398   1.059  22.096  0.0323  0.1651  0.0410
35635W        W42085  20.613   3.267  15.242  0.0768  0.2714 -0.4552
35636W        W42086  22.316   0.523   1.218 -0.0190  0.4799  0.0092
35637W        W42087  11.630   6.187   5.239 -0.3341  0.0694  0.1050
35638W        W42088  20.160   7.149  19.676 -0.3877  0.1391  0.2011
35639W        W42089  24.725   5.666   7.251 -0.0466  0.0251 -0.3338
35640W        W42090   9.113   1.822   3.438 -0.1649 -0.0389  0.5568
35641W        W42091  22.276   5.262  22.498  0.0627  0.0376  0.0845
35642W        W42092   5.685   7.587   2.108  0.1024 -0.0405 -0.0206
35643W        W42093  18.308   5.097   4.862  0.1231  0.1098  0.0103
35644W        W42094   5.061   5.320  15.666 -0.1863  0.0908 -0.1904
35645W        W42095   2.013   4.073  14.901  0.0782  0.1968  0.0207
35646W        W42096  28.369   5.326   8.897 -0.0017 -0.1352  0.0999
35647W        W42097  21.199   4.832   5.923 -0.0017  0.2859  0.1980
35648W        W42098  27.200   7.058   4.753  0.0519  0.1886 -0.0059
35649W        W42099  26.713   7.094  22.161 -0.1053 -0.0680  0.0370
35650W        W42100  29.070   6.598  21.910 -0.0351  0.2271 -0.1448
35651W        W42101   6.188   2.666  17.217 -0.1842  0.3815 -0.0005
35652W        W42102   8.871   7.509   2.717  0.0829  0.1942  0.3665
35653W        W42103  29.618   6.165   6.016 -0.1588  0.0585 -0.0697
35654W        W42104  28.090   1.802  24.377  0.0122  0.0684  0.0559
35655W        W42105   3.958   4.076  21.684 -0.0115 -0.1519  0.1383
35656W        W42106  18.776   3.046  19.226  0.0173 -0.0696 -0.0015
35657W        W42107  27.022   2.452   3.075  0.1058 -0.0492  0.0616
35658W        W42108   7.744   7.143   9.212  0.0005  0.2453  0.2021
35659W        W42109  22.688   5.291  17.836  0.0940  0.2103  0.0702
35660W        W42110  22.864   7.508  10.280 -0.1872  0.2229 -0.2585
35661W        W42111  13.598   1.800   4.860 -0.4231 -0.0906 -0.0958
35662W        W42112   7.222   4.694  26.080  0.1906  0.2001 -0.6032
35663W        W42113  16.299   2.782   6.415  0.1230 -0.0831 -0.0804
35664W        W42114  15.266   6.594  24.775  0.1788 -0.2190 -0.1268
35665W        W42115  18.924   0.427  23.234 -0.1056 -0.0382 -0.4075
35666W        W42116   1.721   2.040   3.001 -0.1777 -0.0749  0.3491
35667W        W42117  18.489   3.276   7.163 -0.1845 -0.1109  0.0830
35668W        W42118  11.850   1.755   6.683 -0.1537  0.1095  0.2172
35669W        W42119  26.482   4.569   8.222 -0.1650  0.1118 -0.1843
35670W        W42120  15.353   6.697  11.276  0.0462 -0.0119  0.0284
35671W        W42121  23.990   5.910  21.286  0.0758 -0.1246  0.0577
35672W        W42122   5.413   0.420  24.828 -0.0002 -0.1174  0.1791
35673W        W42123  20.091   5.823  17.315  0.1108  0.2035  0.2993
35674W        W42124  10.880   2.704  25.973  0.0249  0.1862  0.5323
35675W        W42125  24.717   6.418  17.748  0.1856  0.1342 -0.0099
35676W        W42126  16.594   6.032   9.285 -0.2877  0.1021 -0.2727
35677W        W42127   1.706   7.414   2.907  0.1072 -0.0188 -0.0381
35678W        W42128  27.092   0.457  23.824  0.3833 -0.0081  0.0763
35679W        W42129  19.275   2.200  25.363  0.0375  0.0793 -0.3801
35680W        W42130  24.775   5.521  15.779 -0.2378  0.1679 -0.1964
35681W        W42131  28.338   0.521  20.913  0.3590 -0.2361 -0.2055
35682W        W42132  20.808   5.404   9.343  0.0935  0.1625  0.1014
35683W        W42133  14.987   4.388  26.110  0.3152 -0.1385 -0.2445
35684W        W42134  30.930   0.895  18.839 -0.2306  0.2081 -0.4354
35685W        W42135  25.043   7.722   6.334 -0.1875 -0.0037  0.0396
35686W        W42136   6.947   0.976  21.208 -0.2500  0.0237  0.1046
35687W        W42137  10.568   4.765   5.892 -0.1906  0.0767  0.1300
35688W        W42138  28.532   3.159  17.315 -0.0072 -0.2094  0.1399
35689W        W42139  30.213   6.705  20.266  0.0652 -0.0742  0.1939
35690W        W42140   3.730   0.711   4.194  0.0834 -0.0841  0.2684
35691W        W42141   2.810   5.774   3.518 -0.2405  0.1496  0.0894
35692W        W42142  19.014   2.976   2.086  0.2229  0.0776 -0.2696
35693W        W42143  29.394   7.621   0.615 -0.1124  0.0773  0.1370
35694W        W42144  20.092   3.413  18.442 -0.0658  0.0444 -0.0631
35695W        W42145   0.272   3.707   1.041 -0.1279  0.2973 -0.1426
35696W        W42146  31.187   3.339  25.217 -0.0633  0.0207 -0.1786
35697W        W42147   0.286   6.739   6.124  0.0850 -0.0463 -0.0943
35698W        W42148   1.540   3.047  22.810 -0.0751  0.0314  0.0632
35699W        W42149  14.272   4.745   5.854 -0.2330  0.0875  0.2271
35700W        W42150   5.453   2.681   4.215  0.2674  0.2540 -0.1680
35701W        W42151   7.627   0.345  24.197  0.0516  0.1624 -0.0069
35702W        W42152  12.748   1.607  23.741 -0.0776  0.0883 -0.0714
35703W        W42153  13.454   3.893  10.796  0.1907  0.1845 -0.3074
35704W        W42154  30.708   3.768  17.976  0.0053  0.1235  0.0015
35705W        W42155   7.072   4.989   1.865  0.2793 -0.0069 -0.1312
35706W        W42156  27.533   5.744  19.548  0.3160 -0.1090  0.1995
35707W        W42157  22.148   5.371   0.513  0.0627  0.1039  0.2800
35708W        W42158   4.300   2.229  24.987 -0.0735  0.2397  0.3054
35709W        W42159  26.483   1.781  25.980  0.3190  0.2195 -0.3285
35710W        W42160  19.164   2.043   0.515 -0.1591  0.2687 -0.0865
35711W        W42161  18.841   0.886  17.202  0.0778 -0.5543 -0.1579
35712W        W42162   8.183   1.679   0.883 -0.0349  0.1594  0.4001
35713W        W42163  30.960   0.228   9.665 -0.0667 -0.0353 -0.2521
35714W        W42164  14.472   1.576  10.932  0.1378 -0.2363 -0.2395
35715W        W42165  15.383   6.630  19.733 -0.1781  0.1255 -0.4107
35716W        W42166  15.555   2.574   9.894 -0.1084 -0.2871  0.2470
35717W        W42167   3.571   0.976  15.149 -0.0338 -0.1149  0.1475
35718W        W42168   3.792   2.407   7.987 -0.1128 -0.1680 -0.3744
35719W        W42169  21.354   2.700  16.651  0.2377 -0.2143  0.0433
35720W        W42170  14.510   7.360  17.614 -0.1264 -0.2065  0.2907
35721W        W42171   6.434   2.454   8.039 -0.0376 -0.3079  0.1718
35722W        W42172  29.491   0.320   6.861 -0.2637  0.1770 -0.0736
35723W        W42173  17.845   1.931  18.309  0.1134  0.1010  0.0847
35724W        W42174  18.605   6.017  19.783  0.0320 -0.1177 -0.1536
35725W        W42175  21.073   2.791  21.564  0.0374  0.0287 -0.2323
35726W        W42176  22.211   1.512  21.863  0.2285 -0.0855  0.0015
35727W        W42177   5.166   6.359  15.261 -0.3400  0.2287 -0.0354
35728W        W42178  12.117   7.510  14.357 -0.1752 -0.3621  0.0519
35729W        W42179  31.177   4.587  23.861  0.1077  0.0429  0.0136
35730W        W42180  18.664   2.167   6.061 -0.2979  0.0563 -0.4075
35731W        W42181  15.055   2.836  17.174 -0.0890 -0.1681 -0.0845
35732W        W42182  16.931   3.535  18.740 -0.3111 -0.0354  0.0278
35733W        W42183  30.047   4.879   4.035 -0.0393  0.1768 -0.2127
35734W        W42184  20.475   2.739  16.172  0.2649  0.0452 -0.0927
35735W        W42185  28.868   0.305  17.126  0.2172  0.3576  0.0816
35736W        W42186  15.235   5.797  22.423 -0.0155  0.1203  0.1443
35737W        W42187  21.383   4.793   5.455 -0.4444  0.0728  0.4197
35738W        W42188  22.847   6.232  19.981  0.0297  0.0390 -0.0781
35739W        W42189  16.873   4.205   7.334  0.0556  0.5295  0.1043
35740W        W42190  11.818   6.919  15.450 -0.1120  0.2009 -0.0400
35741W        W42191  28.830   5.011  22.849  0.1061  0.2357  0.0802
35742W        W42192  26.910   3.498   7.399 -0.3814  0.1355  0.1970
35743W        W42193  19.080   2.340  15.631  0.1607  0.3093 -0.1358
35744W        W42194   3.836   3.090  26.141  0.0109 -0.2012  0.3413
35745W        W42195  28.685   6.464   8.063  0.3038 -0.1269 -0.0594
35746W        W42196  26.906   5.370  23.159  0.0541 -0.0314  0.2764
35747W        W42197  17.974   7.404   5.584  0.2730 -0.0226 -0.3118
35748W        W42198  26.932   2.343  25.288  0.0211  0.0316 -0.0450
35749W        W42199  25.581   0.783  24.291 -0.2441  0.1227  0.1451
35750W        W42200  19.667   7.054  19.881  0.1408  0.1928  0.2910
35751W        W42201  30.427   3.254   5.937  0.2172  0.0594  0.2963
35752W        W42202   3.177   4.369  24.386 -0.1876 -0.1878 -0.0986
35753W        W42203  15.805   6.727   3.294 -0.0493 -0.1617  0.1965
35754W        W42204   3.883   1.542  21.409 -0.1581  0.2790  0.3421
35755W        W42205  12.540   1.958   3.486 -0.0075  0.0357  0.1159
35756W        W42206   1.033   5.767   8.355 -0.1596  0.0870 -0.3380
35757W        W42207  17.141   2.530  14.996 -0.4029 -0.1937 -0.1656
35758W        W42208  30.535   5.000  25.768 -0.1917  0.1918 -0.1187
35759W        W42209  31.202   0.702  16.254  0.1154 -0.0986  0.0270
35760W        W42210  16.714   3.150  22.704  0.0378 -0.0513  0.1093
35761W        W42211   7.504   2.402  18.026  0.0570 -0.1443 -0.1025
35762W        W42212  30.599   2.805  24.226 -0.1650 -0.1865  0.1183
35763W        W42213   3.478   1.610  20.053 -0.1684  0.0992  0.2109
35764W        W42214  12.376   7.146   5.956 -0.1602  0.4874 -0.3072
35765W        W42215  21.508   0.504  21.577  0.0120  0.0643  0.0709
35766W        W42216  21.104   1.781   3.376 -0.1965 -0.2966 -0.0765
35767W        W42217  13.534   4.069   3.154  0.0547 -0.2263 -0.2054
35768W        W42218  24.736   0.303  18.189  0.0004  0.0061  0.1132
35769W        W42219   1.257   1.212  19.085 -0.0585 -0.2969 -0.0062
35770W        W42220  11.188   2.064  16.077 -0.3590 -0.0587 -0.1076
35771W        W42221   0.223   4.520  16.096 -0.2442 -0.0999  0.0967
35772W        W42222  30.024   0.445  17.664 -0.0542  0.0360 -0.1070
35773W        W42223  30.726   6.314   2.558 -0.0252  0.3708 -0.1804
35774W        W42224  18.101   1.108  19.323  0.1294  0.0907  0.1925
35775W        W42225  17.610   7.367  22.835 -0.0546 -0.3426  0.0491
35776W        W42226   5.234   4.921  23.824  0.4389  0.1282 -0.0085
35777W        W42227   7.995   3.613  25.014  0.3126  0.0777 -0.2542
35778W        W42228  26.102   4.023  18.834 -0.0492  0.1367 -0.0943
35779W        W42229  15.867   3.487  16.809  0.2648  0.2085  0.3066
35780W        W42230  27.600   7.737  26.217 -0.2098  0.0384  0.1577
35781W        W42231   2.765   5.232   2.563 -0.0588  0.0777  0.1656
35782W        W42232  15.525   1.418   1.478  0.1446 -0.1039  0.2819
35783W        W42233  28.282   2.936  10.735  0.1117 -0.0324 -0.1235
35784W        W42234  23.300   2.278  23.158 -0.3229  0.1523 -0.2624
35785W        W42235   3.038   2.702  25.971  0.1821 -0.3393 -0.1662
35786W        W42236  12.401   0.496   3.622  0.2047 -0.2283 -0.0542
35787W        W42237  10.014   3.395  24.470  0.0835  0.2221  0.0750
35788W        W42238  14.029   6.409  15.961 -0.2971 -0.1019  0.0830
35789W        W42239  19.085   5.622   1.879 -0.0264  0.0356 -0.0943
35790W        W42240  24.024   0.633  17.490 -0.0019  0.0094  0.3461
35791W        W42241   9.257   1.207   8.721  0.1168  0.0386 -0.0301
35792W        W42242   1.637   1.994   5.651 -0.1711 -0.2689 -0.0675
35793W        W42243  30.918   3.184  26.092 -0.0522 -0.0320 -0.0221
35794W        W42244  11.133   1.277   5.807  0.2797 -0.0639  0.0164
35795W        W42245  21.552   3.857   3.579  0.0477 -0.2479  0.0544
35796W        W42246  20.304   5.316   6.928 -0.0938  0.1245 -0.1291
35797W        W42247   2.349   2.926   6.403 -0.0423  0.0858  0.0211
35798W        W42248  17.814   0.287  16.572 -0.0349  0.0643  0.3950
35799W        W42249   2.517   5.290  22.744  0.0462  0.2924  0.1322
35800W        W42250  28.080   3.992  17.024  0.1902 -0.0117 -0.1817
35801W        W42251  27.168   3.414  15.722 -0.1206 -0.0256  0.3154
35802W        W42252  30.436   4.241   4.528 -0.0795  0.3622  0.2630
35803W        W42253  29.321   0.042  22.758  0.0876 -0.4124  0.1796
35804W        W42254  25.114   5.657   8.162  0.0334  0.0442  0.1838
35805W        W42255  28.568   6.870  21.870 -0.0786  0.2445 -0.1568
35806W        W42256   2.592   7.357   6.557  0.0497 -0.0964  0.1251
35807W        W42257  22.505   2.847  16.349 -0.0389  0.1052 -0.1996
35808W        W42258  30.776   7.070   1.698  0.0265  0.0851 -0.2562
35809W        W42259   3.313   1.974   7.190  0.2341  0.0653  0.2085
35810W        W42260  19.507   1.470   1.651 -0.0893 -0.1273  0.1489
35811W        W42261   6.963   2.000   3.932  0.1032 -0.0809 -0.0332
35812W        W42262  23.164   7.459  11.030 -0.0203  0.1394 -0.0935
35813W        W42263  30.853   0.469   6.133  0.2566  0.1761  0.3593
35814W        W42264  17.618   6.343   0.130  0.0793 -0.0364  0.3120
35815W        W42265   7.747   5.470  23.888 -0.1059  0.1961 -0.1608
35816W        W42266  18.214   0.452   2.047  0.0903 -0.0149 -0.2090
35817W        W42267  16.965   2.526  25.331  0.0819  0.2075 -0.0763
35818W        W42268  28.297   4.658   0.420 -0.0680  0.0120  0.0111
35819W        W42269  21.532   1.043  19.706 -0.3034  0.0420 -0.0314
35820W        W42270  15.110   2.759  15.700 -0.2053  0.0251 -0.2831
35821W        W42271  25.985   4.343   9.889  0.1948 -0.4031 -0.0314
35822W        W42272   6.752   6.514   0.018  0.1159  0.0449 -0.0445
35823W        W42273  27.081   6.416   9.950  0.0656 -0.0622 -0.0971
35824W        W42274   2.951   5.738   0.217 -0.1315 -0.0510 -0.2212
35825W        W42275  13.160   1.304   9.130  0.0184 -0.0276 -0.2275
35826W        W42276   2.810   1.003   2.643  0.3527  0.0978 -0.2278
35827W        W42277  21.951   2.693  17.140  0.1067 -0.1343  0.2044
35828W        W42278  20.017   0.546  23.847 -0.6806 -0.1482 -0.1971
35829W        W42279  21.975   7.444   6.586  0.1596 -0.1323 -0.1162
35830W        W42280  29.594   6.514   5.237  0.0226  0.2662 -0.3086
35831W        W42281   2.714   1.815   4.907  0.0707  0.1385 -0.2090
35832W        W42282   4.713   1.997  18.438  0.1620  0.0717 -0.0262
35833W        W42283  27.272   6.773  14.679  0.2197 -0.1475 -0.1020
35834W        W42284   9.576   1.337   6.997  0.0075  0.2133  0.0414
35835W        W42285  30.662   4.443   3.060 -0.1977 -0.0385 -0.3233
35836W        W42286  16.550   7.734   6.688  0.0211 -0.0043  0.0336
35837W        W42287  26.398   1.934   6.516  0.0673 -0.1924 -0.1698
35838W        W42288   3.876   1.619   4.558  0.0436  0.2306  0.2181
35839W        W42289   3.154   6.119  10.950 -0.2514  0.0036 -0.2741
35840W        W42290   1.676   6.612   1.079 -0.2176  0.1027  0.2180
35841W        W42291   8.897   2.415   5.558  0.1046  0.2303  0.0775
35842W        W42292   4.510   0.642  20.594  0.0296 -0.0572  0.0672
35843W        W42293  16.503   0.704   0.512  0.1836 -0.1385 -0.1343
35844W        W42294   4.576   2.915  23.424  0.0183 -0.0065  0.5263
35845W        W42295  20.019   0.270  17.783  0.2277 -0.1893  0.1930
35846W        W42296   8.216   3.202   4.685 -0.1142  0.2604 -0.1103
35847W        W42297   4.889   5.660  16.741 -0.0196  0.2403 -0.0742
35848W        W42298   8.857   1.639  22.704 -0.1800  0.0702 -0.0884
35849W        W42299  25.357   0.878  21.448 -0.2053  0.0782  0.0941
35850W        W42300  19.605   3.893  22.369  0.0342  0.1136  0.1797
35851W        W42301  31.047   4.093  24.149 -0.0824 -0.0866  0.0221
35852W        W42302  19.605   1.102  10.588  0.0029  0.0776 -0.0924
35853W        W42303  15.668   3.310  25.345  0.1511  0.1290 -0.0602
35854W        W42304  22.918   0.797   3.353 -0.1616  0.0140 -0.0773
35855W        W42305   4.655   1.880   8.235  0.3648 -0.3636 -0.1115
35856W        W42306   7.527   5.209  17.583  0.2688  0.0855  0.2545
35857W        W42307  30.747   0.960   2.851  0.0354  0.0708  0.1135
35858W        W42308  13.063   0.685  22.791  0.4039  0.2648  0.3662
35859W        W42309   8.419   5.405  19.042 -0.1194 -0.0239 -0.2463
35860W        W42310  30.321   4.303   0.817 -0.1949 -0.1707 -0.2493
35861W        W42311  16.735   1.623   1.421  0.1035  0.0879  0.0448
35862W        W42312  14.718   6.684   5.531 -0.1037 -0.2210  0.0647
35863W        W42313   1.989   1.201   2.963  0.1022 -0.0664  0.1524
35864W        W42314  30.683   1.884  17.570 -0.1702 -0.0462  0.0271
35865W        W42315   3.282   1.893  25.723  0.1460  0.2460 -0.2454
35866W        W42316  24.565   7.610  21.010 -0.3491 -0.1157  0.1563
35867W        W42317  28.092   5.026  22.079  0.0610 -0.0211 -0.2177
35868W        W42318  17.545   1.495   2.010 -0.2819  0.1125 -0.2697
35869W        W42319  13.043   6.583  23.025  0.2346  0.0359  0.3103
35870W        W42320  10.518   1.657  11.331 -0.1838 -0.0989  0.0228
35871W        W42321  23.376   2.195  17.503  0.0035 -0.1417 -0.0516
35872W        W42322   7.423   0.863  15.780 -0.3212  0.3477  0.3029
35873W        W42323   1.182   3.122   5.049 -0.3257 -0.0745  0.0844
35874W        W42324  12.453   6.509  22.973  0.2221  0.1930  0.0237
35875W        W42325  18.156   5.005  17.301 -0.2464  0.0701 -0.0855
35876W        W42326  21.824   2.771   3.412 -0.1308 -0.1668 -0.2298
35877W        W42327   2.443   0.084   5.402 -0.0324 -0.0763 -0.0888
35878W        W42328  29.770   3.994  21.608  0.0915 -0.2057  0.1846
35879W        W42329   5.984   6.123   8.833 -0.0439 -0.0148 -0.0928
35880W        W42330  14.451   5.901  23.716  0.0097 -0.1003 -0.0888
35881W        W42331  11.342   5.943  21.925 -0.4777  0.1524  0.1172
35882W        W42332  27.513   4.279  18.701  0.0653 -0.1894 -0.2370
35883W        W42333  28.255   5.170   1.960 -0.2600  0.2326 -0.1570
35884W        W42334  27.559   3.239   2.738  0.3587 -0.1117 -0.0881
35885W        W42335  25.497   0.725   5.411 -0.0030  0.2192 -0.1190
35886W        W42336  24.605   6.868  17.928  0.1871  0.3361 -0.1510
35887W        W42337   9.689   1.808   9.069  0.0658  0.0941  0.1530
35888W        W42338  11.836   5.618   2.566 -0.1240  0.4761 -0.0708
35889W        W42339  13.889   2.190   5.049  0.0266 -0.0748 -0.0442
35890W        W42340  20.793   0.651   3.830 -0.3945  0.1597  0.2336
35891W        W42341   6.561   5.120  25.363 -0.1440 -0.2138  0.1246
35892W        W42342  23.017   6.304   5.668  0.0875  0.0913 -0.1739
35893W        W42343   0.001   7.352  16.870  0.2462  0.2095  0.1436
35894W        W42344  24.521   0.453   8.820  0.1892 -0.0958  0.3008
35895W        W42345   0.907   7.499   0.298 -0.2375 -0.1152 -0.0385
35896W        W42346   1.410   0.487   2.549 -0.0964  0.1795 -0.0780
35897W        W42347   7.004   4.988  16.956  0.1017 -0.1132 -0.0624
35898W        W42348  19.871   4.767  14.739  0.2644 -0.1569  0.1905
35899W        W42349   2.886   4.388   6.930  0.2014 -0.1581 -0.0092
35900W        W42350  27.451   3.670  18.653 -0.2466 -0.2149  0.0336
35901W        W42351  13.670   5.308  22.771 -0.1953  0.3988 -0.0753
35902W        W42352   6.670   6.521  16.122 -0.1478  0.1324  0.0637
35903W        W42353  22.224   4.969   6.818 -0.0976  0.1627  0.4373
35904W        W42354  26.245   5.407  24.145 -0.2404  0.0580  0.0605
35905W        W42355   9.200   4.352   6.869  0.0138  0.4798  0.0790
35906W        W42356  20.066   3.717   2.035  0.0456 -0.0434 -0.0947
35907ION     NA42357  12.462   0.908  18.774  0.0405 -0.0972 -0.0923
35908ION     NA42358  30.100   6.831   4.201  0.2060  0.2991  0.1449
35909ION     NA42359  22.591   3.566  16.042  0.0206  0.3972 -0.1020
35910ION     NA42360   0.836   1.946   8.841 -0.2194 -0.5793 -0.1382
35911ION     NA42361  28.027   3.253  17.354  0.0598 -0.2595 -0.1195
35912ION     NA42362  14.065   6.352  18.363  0.0396  0.3322 -0.2960
35913ION     NA42363  21.258   7.646   6.215  0.2202 -0.0291  0.0883
35914ION     NA42364  17.654   3.384  24.902 -0.0124  0.3199 -0.5022
35915ION     NA42365  21.374   3.975  24.005 -0.0350  0.2412  0.1934
35916ION     NA42366   3.736   2.134   6.324  0.1747 -0.2649  0.2065
35917ION     NA42367   2.655   0.826  16.342  0.1033  0.1236 -0.0755
35918ION     NA42368  19.465   5.503   6.002  0.4089  0.0255  0.3404
35919ION     NA42369  30.700   2.201   9.153  0.0580  0.1257 -0.3576
35920ION     NA42370  27.938   6.358  18.099 -0.5046  0.3774  0.1971
35921ION     NA42371  30.133   1.969  26.189 -0.1606 -0.2856  0.2182
35922ION     NA42372  31.056   7.614  20.904  0.0393  0.1560 -0.4208
35923ION     NA42373  25.417   1.742  11.284  0.1515 -0.0071 -0.1074
35924ION     NA42374  19.200   7.128   6.550  0.0066 -0.0382  0.0610
35925ION     NA42375  15.420   2.223   3.190  0.0765 -0.0789 -0.0092
35926ION     NA42376  27.551   7.705   9.536  0.0441  0.0822  0.0548
35927ION     NA42377   9.521   3.599  10.466  0.0670  0.1659 -0.5307
35928ION     NA42378  16.795   2.930  23.785  0.4408 -0.2988 -0.1517
35929ION     NA42379   2.079   7.777  25.761 -0.3959  0.3049 -0.2416
35930ION     NA42380  25.877   1.409   5.609  0.0255  0.1847  0.2343
35931ION     NA42381  22.586   4.985  19.156 -0.1316  0.1092 -0.5808
35932ION     NA42382  20.385   1.007   8.009  0.4176  0.1837 -0.1574
35933ION     NA42383  30.435   4.036   6.557 -0.0972 -0.0328  0.3394
35934ION     NA42384  26.682   3.427  21.147  0.0066  0.2612 -0.0108
35935ION     NA42385  18.333   5.286   6.060  0.0118 -0.1807  0.0757
35936ION     NA42386  12.690   5.587   9.234 -0.1579 -0.0952  0.0221
35937ION     NA42387   1.907   2.529  20.667 -0.0545  0.0873  0.2480
35938ION     NA42388   4.774   0.684  23.949  0.0356  0.3122 -0.1397
35939ION     NA42389  27.416   1.812  10.579 -0.0747  0.0168 -0.1461
35940ION     NA42390  19.529   3.247   4.118  0.2176  0.0164  0.0804
35941ION     NA42391  27.562   1.773  18.876  0.3382 -0.3546 -0.1149
35942ION     NA42392   9.225   1.029   7.089 -0.1000 -0.1066 -0.4516
35943ION     NA42393  22.849   0.406   6.845 -0.0333  0.0893 -0.1071
35944ION     NA42394   2.862   6.504  18.059  0.2859  0.1064 -0.2440
35945ION     NA42395   0.189   0.480  22.696  0.0742  0.0627  0.1423
35946ION     NA42396  23.649   3.253  21.308 -0.4393 -0.2294  0.1119
35947ION     NA42397   7.232   2.556  15.711  0.3447 -0.4974  0.0338
35948ION     NA42398  16.194   7.784   9.942  0.1540 -0.1367 -0.0427
35949ION     NA42399  23.820   6.944  19.908  0.1212 -0.1247  0.1881
35950ION     NA42400   2.232   0.740   1.912 -0.4665  0.0429 -0.3785
35951ION     NA42401  10.802   3.038  24.990  0.3036 -0.0858 -0.3263
35952ION     NA42402  29.424   5.121   9.533  0.1691  0.2658 -0.2702
35953ION     NA42403  23.327   4.175  20.539  0.2551 -0.4417  0.3579
35954ION     NA42404  16.479   1.256   5.904  0.1237 -0.2139  0.0894
35955ION     NA42405  28.915   4.383  26.329  0.1910 -0.1975 -0.2949
35956ION     NA42406  28.239   0.385   0.167 -0.0006 -0.1806 -0.5212
35957ION     NA42407   7.352   0.990   1.253  0.1044  0.4330 -0.2510
35958ION     NA42408   6.887   4.822   0.812 -0.1465  0.2056 -0.0552
35959ION     NA42409   0.345   3.861  25.292  0.1093 -0.0507  0.4292
35960ION     NA42410  16.879   2.245  21.843 -0.6131 -0.5241 -0.0866
35961ION     NA42411  20.291   2.053  24.871 -0.1370 -0.3341  0.1501
35962ION     NA42412   6.479   4.904   4.166  0.0680 -0.1472 -0.5673
35963ION     NA42413  29.469   6.705   8.385  0.2100 -0.3428  0.0824
35964ION     NA42414   7.212   2.916  23.808 -0.0470  0.0564 -0.0814
35965ION     NA42415   8.258   6.651  16.480 -0.5375 -0.2007 -0.1035
35966ION     NA42416  29.648   0.242  25.699  0.0956 -0.0732  0.5588
35967ION     NA42417   7.091   3.222   6.017 -0.0339 -0.2336  0.0010
35968ION     NA42418  25.093   3.211   1.570  0.1060 -0.2015 -0.2774
35969ION     NA42419  15.516   0.398  21.292 -0.1149  0.3345 -0.0902
35970ION     NA42420  22.684   5.309   5.236  0.2829 -0.3928 -0.0504
35971ION     NA42421   3.724   5.301   1.315 -0.1597 -0.0149 -0.0941
35972ION     NA42422  27.491   4.681   0.802  0.2456  0.3771 -0.1683
35973ION     NA42423  18.567   5.202  10.992  0.2571 -0.2883 -0.0936
35974ION     NA42424   0.260   4.169   9.985 -0.0249 -0.0935  0.3246
35975ION     NA42425  21.529   7.233  25.511 -0.0281  0.4298  0.3119
35976ION     NA42426  10.183   6.739  17.333  0.0719  0.1999 -0.1175
35977ION     NA42427  24.398   2.329  10.656 -0.2054 -0.0639 -0.5213
35978ION     NA42428  12.388   5.730  10.671  0.3247 -0.3948  0.7781
35979ION     NA42429  15.611   7.796  15.846 -0.0064 -0.1604  0.2843
35980ION     NA42430   1.566   4.939  22.457 -0.3657 -0.0732  0.3517
35981ION     NA42431  10.480   5.017  18.181  0.0989  0.5423 -0.2066
35982ION     NA42432   7.403   6.480  15.893  0.0648 -0.0146  0.1412
35983ION     NA42433  22.948   3.607   2.352  0.1517  0.0813 -0.2187
35984ION     NA42434   7.932   1.055  25.478  0.4243 -0.1561  0.2352
35985ION     NA42435   2.106   0.411  23.954  0.0011  0.0320 -0.0273
35986ION     NA42436  16.187   7.270  19.548 -0.3415 -0.2678 -0.0131
35987ION     NA42437   4.735   6.130  15.796 -0.3653  0.1535  0.1324
35988ION     NA42438  23.928   3.070  10.906 -0.3424 -0.2224 -0.3781
35989ION     NA42439  24.050   5.587   3.983 -0.2810  0.1598  0.0269
35990ION     NA42440  24.680   0.192  16.956  0.3015 -0.2568  0.0575
35991ION     NA42441  18.692   1.899  17.098  0.2077 -0.2749  0.0688
35992ION     NA42442  19.432   1.092  16.309  0.3123 -0.2800  0.3204
35993ION     NA42443   5.270   6.309   5.469 -0.3667  0.0918  0.1616
35994ION     NA42444  24.399   0.169   0.957 -0.1564 -0.1774 -0.1267
35995ION     NA42445  17.176   0.922   1.091  0.4949  0.1631  0.3687
35996ION     NA42446  29.490   0.836   6.671 -0.2870  0.2878 -0.2282
35997ION     NA42447  25.567   5.074  24.050  0.2513 -0.3484  0.0531
35998ION     NA42448  22.899   3.054  24.579  0.2910  0.3870 -0.1013
35999ION     NA42449  11.610   4.610  15.650 -0.1654 -0.2064  0.1208
36000ION     NA42450   2.051   4.181  25.502  0.4622 -0.3630  0.2643
36001ION     NA42451  15.834   1.819   0.648  0.6330  0.1701  0.1966
36002ION     NA42452  19.129   4.596  25.226  0.1067 -0.0166  0.1173
36003ION     NA42453   1.943   2.755  21.426 -0.3890 -0.6090 -0.0097
36004ION     NA42454   4.106   1.982  16.017  0.0274  0.1635 -0.3317
36005ION     NA42455   3.489   5.864  16.383  0.0097  0.4677 -0.0665
36006ION     NA42456  19.280   2.536   5.065 -0.2365  0.0161 -0.2296
36007ION     NA42457  17.091   3.767   3.760 -0.4709 -0.1367  0.5647
36008ION     NA42458   4.124   1.202   8.599  0.0427 -0.4290  0.1305
36009ION     NA42459  10.252   0.339  20.903 -0.7906 -0.2387  0.0869
36010ION     NA42460  23.665   4.415  18.254 -0.3324 -0.3043 -0.1072
36011ION     NA42461   0.850   0.231  15.472  0.5820  0.3379  0.1653
36012ION     NA42462  13.329   5.405  23.037 -0.3006  0.0397  0.0658
36013ION     NA42463   9.532   4.747  18.380  0.1073 -0.4308  0.1482
36014ION     NA42464   8.816   0.553   9.231  0.2119  0.0965  0.3333
36015ION     NA42465   1.844   0.945   9.159 -0.4671 -0.1713 -0.1898
36016ION     NA42466   1.517   0.800  24.285 -0.0114 -0.2673 -0.2101
36017ION     NA42467   2.186   7.354   5.027  0.1875  0.0675  0.0334
36018ION     NA42468  10.688   2.225  22.579  0.1275  0.0111  0.0870
36019ION     NA42469   5.440   2.620  17.154 -0.0413 -0.3032 -0.3301
36020ION     NA42470  14.881   7.300  21.331  0.6760  0.1713  0.0035
36021ION     NA42471  14.902   0.349   9.397  0.0617 -0.2829 -0.1856
36022ION     NA42472  15.550   6.890   9.951  0.1238 -0.4832 -0.0495
36023ION     NA42473   1.988   3.616   6.767  0.3799 -0.0573  0.1079
36024ION     NA42474   5.716   3.115  10.326  0.0462  0.0590 -0.2663
36025ION     NA42475  19.502   7.505  25.984  0.3472 -0.2521  0.3845
36026ION     NA42476  22.023   5.712   0.260 -0.1722  0.3489 -0.0071
36027ION     NA42477   5.780   6.474  10.088 -0.1197 -0.1930  0.0091
36028ION     NA42478  23.557   3.599   7.466  0.0869 -0.3238 -0.5051
36029ION     NA42479  20.978   6.959  19.039 -0.2044  0.3371  0.2557
36030ION     NA42480   7.074   6.489  19.311  0.0881 -0.4670  0.2600
36031ION     NA42481  16.521   7.095  15.743  0.2792 -0.3438  0.0660
36032ION     NA42482   1.089   4.261  15.479 -0.6762 -0.2723 -0.4220
36033ION     NA42483   1.044   3.315  17.691 -0.0993 -0.2957 -0.0628
36034ION     NA42484  29.227   7.187   2.991 -0.3741 -0.0676  0.0245
36035ION     NA42485  12.908   2.696   9.722  0.0659 -0.1415 -0.4483
36036ION     NA42486   7.095   0.104  17.737 -0.1543  0.1253  0.2318
36037ION     NA42487   1.341   3.455  24.672  0.0173  0.2479 -0.3797
36038ION     NA42488  25.387   6.155  22.877 -0.0290 -0.3119  0.4782
36039ION     NA42489  27.904   5.391   5.905 -0.1499 -0.0423  0.1643
36040ION     NA42490  16.839   2.668  16.869  0.0163 -0.1755 -0.3801
36041ION     NA42491  21.390   1.352   6.815  0.0537  0.2578  0.0837
36042ION     NA42492  15.559   1.227  25.932  0.1796 -0.5365 -0.0066
36043ION     NA42493   1.796   4.219  24.793 -0.3918  0.1050  0.2286
36044ION     NA42494  20.749   7.778   4.944  0.1790 -0.3013 -0.0447
36045ION     NA42495  23.921   4.727  11.633 -0.4330  0.0381  0.1160
36046ION     NA42496   0.303   7.398  15.739 -0.2205 -0.6288  0.0082
36047ION     NA42497  26.801   3.208  10.380 -0.0562 -0.2825  0.3699
36048ION     NA42498   8.445   3.316  16.946  0.0331 -0.0280  0.1930
36049ION     NA42499  10.247   2.422   0.589  0.3867  0.1329 -0.2003
36050ION     NA42500   6.953   3.079  22.958  0.1997  0.6316  0.3942
36051ION     NA42501  12.176   6.669  20.726 -0.3041 -0.6840 -0.2960
36052ION     NA42502  24.828   6.423  23.800 -0.1080  0.0946 -0.0547
36053ION     NA42503  19.083   5.178  20.115 -0.5072  0.1804 -0.2924
36054ION     NA42504  19.219   4.851   3.938 -0.0276  0.1887  0.2554
36055ION     NA42505  30.839   3.575  10.807  0.1547  0.0840  0.0907
36056ION     NA42506  30.685   0.351  20.127  0.2048  0.3817  0.2239
36057ION     NA42507  18.482   1.686   8.347  0.0694  0.2376  0.1294
36058ION     NA42508   9.372   7.490   5.086 -0.2801  0.0769  0.0674
36059ION     NA42509   3.526   0.899  25.984 -0.4826 -0.2433  0.0233
36060ION     NA42510  28.619   0.433  21.632  0.1597 -0.0749 -0.2863
36061ION     NA42511   8.270   1.717  25.899  0.0004  0.1130  0.0790
36062ION     NA42512  26.840   7.488  18.675 -0.0916 -0.2417  0.2655
36063ION     NA42513  28.475   3.937  17.214 -0.0352  0.2768  0.0332
36064ION     NA42514   4.529   6.171  10.159 -0.1319  0.1319 -0.3941
36065ION     NA42515  15.935   6.922  22.782 -0.4350 -0.0097  0.0158
36066ION     NA42516  21.505   1.096   9.174  0.3452 -0.0764  0.1017
36067ION     NA42517   1.045   2.525  18.718 -0.4027 -0.2923  0.2883
36068ION     NA42518  18.148   6.342  18.244  0.4877  0.4066  0.0539
36069ION     NA42519  12.869   0.604   7.766  0.4051  0.1829  0.2926
36070ION     NA42520  26.387   0.247  16.927 -0.2497 -0.1900 -0.1460
36071ION     NA42521  29.200   5.386   0.434  0.0387  0.2772  0.3742
36072ION     NA42522  27.320   2.807  18.145  0.3844  0.0119 -0.1353
36073ION     NA42523  12.402   3.617  23.510  0.1337  0.2171  0.3324
36074ION     NA42524  22.147   3.202   9.139 -0.2658  0.0497  0.1880
36075ION     NA42525   6.404   5.014   8.245  0.0751  0.2203 -0.1621
36076ION     NA42526  30.688   6.320   9.535  0.7389 -0.0514 -0.2863
36077ION     NA42527  28.384   1.897   7.326  0.2615  0.0063 -0.1946
36078ION     NA42528  21.965   7.308  18.044  0.0870 -0.4769 -0.0553
36079ION     NA42529   9.163   2.483   9.567  0.1095 -0.2081 -0.0537
36080ION     NA42530  19.690   2.313   5.807 -0.0727  0.1788  0.4984
36081ION     NA42531   9.015   2.221   6.862  0.4132  0.1082  0.0392
36082ION     NA42532   4.472   3.469   2.409 -0.1809  0.2165 -0.0292
36083ION     NA42533  31.084   6.145  19.243 -0.1989  0.0725 -0.0476
36084ION     NA42534  19.726   7.039   8.066  0.4886  0.3866  0.1638
36085ION     NA42535  18.770   7.434   5.180 -0.0315 -0.1463 -0.1225
36086ION     NA42536  13.936   3.849   8.111  0.1065  0.1017  0.1732
36087ION     NA42537  13.172   4.268   6.878  0.0986 -0.4392  0.0396
36088ION     NA42538  20.221   0.565   5.579  0.1335 -0.2088  0.1050
36089ION     NA42539  22.650   4.271  15.680  0.2436  0.0726 -0.0922
36090ION     NA42540   3.283   6.280  18.940 -0.3581 -0.2097  0.0631
36091ION     NA42541  17.471   7.472  20.941  0.1860 -0.0422  0.0699
36092ION     NA42542  25.517   0.154   7.830 -0.0556  0.1762 -0.1760
36093ION     NA42543  26.843   5.959   5.695  0.4307  0.3276  0.2451
36094ION     NA42544  26.472   1.315  21.014 -0.2171  0.5510 -0.1932
36095ION     NA42545   6.311   5.699  26.022  0.0724  0.1778  0.2178
36096ION     NA42546  22.382   3.193   5.341  0.0832 -0.1973  0.1725
36097ION     NA42547  10.415   5.679   1.977  0.3503 -0.6229 -0.0445
36098ION     NA42548  12.467   5.339   4.593 -0.2308 -0.2192 -0.0414
36099ION     NA42549  18.530   7.069   7.989 -0.2513 -0.1756 -0.2387
36100ION     NA42550  19.904   4.261  21.467  0.0812  0.1500  0.0554
36101ION     NA42551  26.841   5.621  20.522  0.2380  0.2553  0.1485
36102ION     CL42552   2.098   1.256  18.796 -0.3019  0.0704  0.2195
36103ION     CL42553  28.725   5.789   4.445 -0.0930  0.1764 -0.2938
36104ION     CL42554  14.079   6.090  23.876 -0.1874 -0.0618 -0.0366
36105ION     CL42555   3.508   0.343  24.888 -1.1299  0.0503 -0.3262
36106ION     CL42556  30.449   1.832  19.111  0.2091 -0.0260 -0.1752
36107ION     CL42557  17.924   5.095   4.356  0.2792 -0.0512 -0.0110
36108ION     CL42558  10.960   0.875  10.329  0.1231 -0.0873 -0.0955
36109ION     CL42559   5.676   0.201  16.074 -0.1003  0.2909  0.0987
36110ION     CL42560  28.079   4.717  16.201  0.0659 -0.1817  0.1663
36111ION     CL42561  29.688   1.716  23.237 -0.0685  0.2697  0.2116
36112ION     CL42562  26.980   6.223  16.634  0.2388 -0.0945  0.1517
36113ION     CL42563   6.535   5.390  18.454 -0.0257  0.0497 -0.1209
36114ION     CL42564  20.961   0.581  18.686  0.0955  0.2227  0.1252
36115ION     CL42565   6.660   6.827  18.923  0.1334  0.2000 -0.1186
36116ION     CL42566  20.540   7.727   5.315  0.3708 -0.1551 -0.2541
36117ION     CL42567   3.592   5.998   5.405 -0.0397 -0.2220 -0.1131
36118ION     CL42568   2.075   6.362   8.716 -0.1954  0.5329 -0.1962
36119ION     CL42569   7.478   7.062   7.662 -0.0563 -0.2247 -0.3553
36120ION     CL42570  29.628   3.178   4.910 -0.0936  0.1436 -0.1645
36121ION     CL42571  19.644   5.742  18.771 -0.2043 -0.0416  0.1468
36122ION     CL42572  20.293   2.110  22.301  0.1016 -0.2697 -0.1389
36123ION     CL42573  26.578   1.074  20.674 -0.1140 -0.3160 -0.5398
36124ION     CL42574  22.614   7.639  25.175 -0.0827 -0.0019  0.0897
36125ION     CL42575  24.795   7.266   2.215 -0.0190  0.2555  0.1152
36126ION     CL42576  29.655   6.624   7.124  0.3532 -0.1216 -0.0321
36127ION     CL42577   3.503   4.548   7.703 -0.2018  0.6701 -0.1881
36128ION     CL42578  16.071   5.175   4.352 -0.4218  0.3788  0.3341
36129ION     CL42579   2.551   5.750   8.891  0.0355  0.0785  0.1651
36130ION     CL42580   7.108   3.988  23.437  0.0359 -0.5514  0.0395
36131ION     CL42581  20.934   7.338   8.736 -0.1280  0.0564  0.1596
36132ION     CL42582   7.239   5.996   8.632 -0.3148 -0.1005 -0.0458
36133ION     CL42583  15.368   7.107   1.595  0.3419 -0.0926  0.3063
36134ION     CL42584  23.811   0.381  22.255  0.3691  0.5484  0.0708
36135ION     CL42585  10.030   2.078   2.122 -0.3547 -0.2470  0.3444
36136ION     CL42586   2.375   5.590   6.844  0.0984  0.2661  0.0889
36137ION     CL42587  25.523   7.249   8.940  0.1723  0.3002  0.1444
36138ION     CL42588  19.969   2.543   5.660 -0.5156 -0.2163  0.3095
36139ION     CL42589  13.469   4.684   9.128 -0.4557  0.2517 -0.1266
36140ION     CL42590  23.648   1.979   4.296 -0.2538  0.2529  0.0887
36141ION     CL42591  24.843   4.866  22.039  0.2109  0.3699 -0.3167
36142ION     CL42592  15.192   0.437   0.598 -0.1536 -0.1535  0.4959
36143ION     CL42593  25.155   1.112  23.118  0.3536  0.2425 -0.1247
36144ION     CL42594  10.230   7.492  16.623  0.1452  0.1290  0.0314
36145ION     CL42595  19.755   3.526  21.276  0.1942 -0.0345  0.3057
36146ION     CL42596   9.220   4.794   0.395  0.0139 -0.4745 -0.2342
36147ION     CL42597  25.653   4.915  23.446 -0.5497 -0.0858 -0.3980
36148ION     CL42598  12.732   3.449  23.587  0.0538  0.0061 -0.0894
36149ION     CL42599  15.405   3.870   0.767  0.1878  0.3451 -0.0351
36150ION     CL42600  11.713   5.505   3.235 -0.3878 -0.2015 -0.4594
36151ION     CL42601  25.614   5.168  19.469 -0.0152  0.1636  0.4021
36152ION     CL42602  22.256   5.356  18.025 -0.0922  0.1677 -0.3902
36153ION     CL42603  10.917   7.402   3.532 -1.0430 -0.3337 -0.1929
36154ION     CL42604  14.148   5.650  15.960 -0.0597 -0.1844  0.0860
36155ION     CL42605   3.152   6.341  18.058  0.0387  0.6079  0.2109
36156ION     CL42606   6.226   0.004   3.368  0.1683  0.2518 -0.1764
36157ION     CL42607   2.018   7.747  23.552 -0.0450 -0.3855  0.1253
36158ION     CL42608   2.675   2.727   8.445  0.0637  0.2865  0.1610
36159ION     CL42609  22.662   1.009   4.913  0.3520  0.3163 -0.0705
36160ION     CL42610  19.775   5.996  25.396 -0.2448 -0.2960 -0.0646
36161ION     CL42611   0.655   1.098  22.504  0.4506  0.0718  0.2246
36162ION     CL42612   2.467   2.761   9.674 -0.2473 -0.0631 -0.0120
36163ION     CL42613   4.771   3.135   1.819 -0.0643 -0.2915 -0.3842
36164ION     CL42614  13.355   1.975  24.534  0.1301  0.4342  0.2972
36165ION     CL42615   8.922   2.329   7.315  0.3357 -0.1965 -0.0332
36166ION     CL42616   3.351   4.177  17.477 -0.2233  0.0535  0.1401
36167ION     CL42617   0.990   0.814   7.141  0.2564  0.2574  0.2951
36168ION     CL42618  30.544   2.551   1.576  0.0761 -0.1022  0.0929
36169ION     CL42619  26.031   6.664  22.597  0.1773 -0.1626 -0.0334
36170ION     CL42620  13.774   1.704  20.414 -0.1049  0.0146  0.1019
36171ION     CL42621   0.571   2.109   7.280 -0.0647 -0.3659 -0.2293
36172ION     CL42622  26.752   2.889  10.213  0.2185 -0.1599 -0.2463
36173ION     CL42623  25.001   4.923  16.339 -0.1268  0.0118  0.1643
36174ION     CL42624  13.879   1.043   3.089 -0.2026  0.0238  0.0191
36175ION     CL42625  17.929   7.284  17.386 -0.0861  0.1489  0.2447
36176ION     CL42626  21.858   1.731  19.523  0.3721 -0.0876 -0.2563
36177ION     CL42627   8.483   0.929   0.902 -0.2072 -0.2389 -0.1454
36178ION     CL42628  30.189   0.193  23.319 -0.6148 -0.3183 -0.1181
36179ION     CL42629  16.333   7.241   9.789  0.0991  0.3203 -0.0112
36180ION     CL42630  21.801   0.542   0.309 -0.1375  0.0330 -0.3128
36181ION     CL42631  10.673   6.996  22.710 -0.2768  0.3976  0.2691
36182ION     CL42632   2.191   7.015   4.475  0.2479  0.2989  0.0776
36183ION     CL42633  23.866   0.873  19.472  0.4751 -0.0088  0.0606
36184ION     CL42634   2.111   0.809  23.771 -0.1996 -0.1088 -0.3844
36185ION     CL42635  15.720   2.175   0.669  0.0920 -0.0413 -0.1371
36186ION     CL42636   3.843   2.365  16.112  0.0991 -0.1581  0.1571
36187ION     CL42637   6.827   3.909   7.272 -0.0425  0.4445  0.2370
36188ION     CL42638  22.670   0.544  19.050  0.1102  0.2109  0.3032
36189ION     CL42639  29.658   5.530   8.156 -0.0334  0.3849  0.2130
36190ION     CL42640   2.871   6.681  16.778  0.0392 -0.4064  0.0499
36191ION     CL42641   2.355   3.577   4.975 -0.1281  0.0213  0.4298
36192ION     CL42642  30.394   2.166   0.094  0.2397  0.1766  0.2582
36193ION     CL42643   1.243   4.369  26.312 -0.2304 -0.2125 -0.1701
36194ION     CL42644  18.740   7.146   7.003 -0.2783 -0.2389  0.1849
36195ION     CL42645  24.816   0.350   0.734  0.1866  0.3146  0.1768
36196ION     CL42646   9.945   7.254  25.202 -0.2947  0.4174  0.3242
36197ION     CL42647   1.566   5.871   3.397 -0.1080 -0.0520 -0.3808
36198ION     CL42648  29.201   0.057  19.666 -0.1206 -0.4866  0.1496
36199ION     CL42649  24.041   6.793  20.122 -0.3473 -0.2178 -0.2912
36200ION     CL42650  30.212   0.840   4.815 -0.0233  0.3870  0.3187
36201ION     CL42651  29.687   3.025  18.251  0.0738 -0.1077 -0.2711
36202ION     CL42652  17.973   6.327   9.279 -0.0933 -0.1243  0.0287
36203ION     CL42653  24.474   7.782  21.475  0.0509 -0.0524 -0.1612
36204ION     CL42654   2.237   1.890  23.733 -0.1270  0.0189  0.1502
36205ION     CL42655  13.104   3.365  25.738 -0.1808  0.4877  0.2824
36206ION     CL42656  21.304   5.435  20.684 -0.4406 -0.1643  0.1908
36207ION     CL42657   1.171   5.730   0.462 -0.5506  0.1690  0.0586
36208ION     CL42658   0.935   5.075   2.153 -0.4234 -0.4624 -0.0689
36209ION     CL42659   8.903   0.523   8.639  0.1606 -0.0286  0.5207
36210ION     CL42660  11.595   5.721   4.268 -0.2138 -0.1724 -0.2642
36211ION     CL42661  23.629   4.226   1.400 -0.0716  0.4436  0.1483
36212ION     CL42662  21.986   3.002   9.413  0.2397  0.0271  0.2298
36213ION     CL42663  11.826   7.010  25.633  0.2382 -0.0599 -0.0873
36214ION     CL42664   6.161   4.372   1.399 -0.2917 -0.1605 -0.0092
36215ION     CL42665   0.909   4.651  16.763 -0.2753 -0.0482  0.4566
36216ION     CL42666  22.997   6.142  25.324 -0.0776 -0.2739 -0.1803
36217ION     CL42667  22.193   3.036   8.356  0.0982  0.5489  0.1304
36218ION     CL42668  17.451   5.889   4.177  0.0365 -0.3697 -0.2405
36219ION     CL42669  24.079   2.735  21.828 -0.1249  0.0669  0.0518
36220ION     CL42670   1.864   2.451  21.635  0.3097  0.1686  0.4466
36221ION     CL42671  19.124   0.517   6.436  0.0267 -0.0929  0.1279
36222ION     CL42672  22.817   7.562  19.577  0.0357  0.0629  0.3630
36223ION     CL42673   0.456   0.076  18.366  0.1810  0.1824 -0.2427
36224ION     CL42674  17.059   1.016   2.514  0.4379 -0.0134  0.0251
36225ION     CL42675  23.864   2.103  19.404  0.0132  0.1005 -0.2524
36226ION     CL42676  15.857   1.018  26.220  0.0323 -0.1358 -0.1084
36227ION     CL42677  11.595   4.173   5.071  0.2930  0.0060 -0.0949
36228ION     CL42678   8.390   3.203  26.351 -0.3121 -0.1094 -0.3539
36229ION     CL42679  11.366   3.976   2.994 -0.0495  0.3255 -0.0876
36230ION     CL42680   9.453   7.664   4.809  0.2194 -0.0526 -0.1895
36231ION     CL42681  31.177   4.418   9.445 -0.2342  0.0252 -0.1684
36232ION     CL42682  13.127   0.131   1.389  0.5483  0.4279  0.0713
36233ION     CL42683  25.821   6.471  26.085 -0.0113 -0.1551  0.2619
36234ION     CL42684   6.509   0.335   0.497  0.3319  0.1681 -0.2371
36235ION     CL42685  23.120   3.374   8.051 -0.2666  0.1901 -0.0358
36236ION     CL42686  22.879   1.854   9.123  0.0822  0.0736  0.2178
36237ION     CL42687  21.456   4.095   6.373  0.1471 -0.0973 -0.0383
36238ION     CL42688   6.272   1.534   7.180  0.0865 -0.1521  0.0008
36239ION     CL42689  17.853   1.911   2.435  0.3325 -0.1103 -0.0645
36240ION     CL42690  10.435   3.766   1.185  0.5091 -0.4160  0.0399
36241ION     CL42691  27.136   3.921   3.056 -0.2653 -0.0379 -0.0551
36242ION     CL42692   1.786   4.348  20.473  0.3391 -0.0393 -0.2591
36243ION     CL42693  10.719   7.757   4.396  0.0570 -0.1705  0.1130
36244ION     CL42694  13.750   5.127   6.478  0.2673  0.4418 -0.1238
36245ION     CL42695  27.925   1.685   9.645 -0.2550  0.2841  0.0401
36246ION     CL42696  12.361   5.339   2.090  0.1254 -0.0834 -0.1431
36247DOPC   NC342697  11.678   6.941  14.901 -0.1073 -0.0552  0.0251
36247DOPC   PO442698  11.828   7.250  14.697  0.0617 -0.0151 -0.1525
36247DOPC   GL142699  11.503   7.500  14.518  0.0403  0.0962  0.1811
36247DOPC   GL242700  11.346   7.224  14.493  0.2754 -0.1458  0.2255
36247DOPC   C1A42701  11.674   7.661  14.099 -0.0095  0.1004  0.0317
36247DOPC   D2A42702  11.592   7.637  13.649  0.0257  0.2129  0.3439
36247DOPC   C3A42703  11.128   7.583  13.537 -0.5302  0.0272  0.1563
36247DOPC   C4A42704  10.761   7.711  13.141  0.0012 -0.0477 -0.0374
36247DOPC   C1B42705  11.427   7.008  14.187 -0.0943 -0.0135 -0.0140
36247DOPC   D2B42706  11.221   6.647  13.923 -0.2891  0.1428  0.2909
36247DOPC   C3B42707  11.128   6.533  13.481 -0.0023  0.0609 -0.2200
36247DOPC   C4B42708  11.061   6.743  13.030 -0.2059  0.2098 -0.0866
36248DOPC   NC342709  22.261   5.481  16.051  0.0533 -0.1091 -0.2082
36248DOPC   PO442710  21.896   5.535  15.931  0.1465  0.0967  0.2417
36248DOPC   GL142711  21.746   5.392  15.576 -0.0098 -0.1044 -0.2649
36248DOPC   GL242712  21.894   5.571  15.429 -0.0013 -0.0680 -0.2022
36248DOPC   C1A42713  21.518   5.295  15.188 -0.2236  0.1487 -0.0205
36248DOPC   D2A42714  21.489   5.423  14.746 -0.0180  0.0656  0.0257
36248DOPC   C3A42715  21.862   5.178  14.595  0.1399  0.0705  0.0333
36248DOPC   C4A42716  22.264   4.988  14.562 -0.2226  0.2554  0.0405
36248DOPC   C1B42717  21.946   5.532  15.015  0.1774  0.0669  0.1784
36248DOPC   D2B42718  21.878   5.621  14.484  0.0229 -0.1449 -0.0964
36248DOPC   C3B42719  21.523   5.393  14.217 -0.1385 -0.1835 -0.2479
36248DOPC   C4B42720  21.302   5.544  13.806  0.0258  0.1935 -0.3428
36249DOPC   NC342721  25.948   3.730  15.461  0.3641 -0.4360  0.1638
36249DOPC   PO442722  25.971   3.379  15.270 -0.0081 -0.0252  0.0395
36249DOPC   GL142723  25.696   3.588  15.068  0.1477  0.1466 -0.0556
36249DOPC   GL242724  25.781   3.824  14.983 -0.4022 -0.2498 -0.3590
36249DOPC   C1A42725  25.399   3.641  14.712 -0.2212  0.0837 -0.3599
36249DOPC   D2A42726  25.243   3.612  14.263 -0.1678  0.0608 -0.0816
36249DOPC   C3A42727  24.860   3.446  14.073  0.2219  0.0940 -0.2592
36249DOPC   C4A42728  24.619   3.387  13.693  0.3850 -0.1177 -0.0295
36249DOPC   C1B42729  25.827   3.941  14.609 -0.2277  0.0936  0.0509
36249DOPC   D2B42730  25.671   3.990  14.170 -0.0634 -0.0290  0.1243
36249DOPC   C3B42731  25.609   3.778  13.759 -0.0486 -0.2086 -0.1113
36249DOPC   C4B42732  25.612   3.660  13.266  0.2149  0.2114 -0.0540
36250DOPC   NC342733   6.509   4.003  15.564  0.3572  0.2280 -0.0823
36250DOPC   PO442734   6.519   4.411  15.486  0.0032 -0.1055 -0.0351
36250DOPC   GL142735   6.350   4.718  15.225  0.1651  0.0074  0.2457
36250DOPC   GL242736   6.589   4.600  15.069  0.2520  0.1123 -0.3054
36250DOPC   C1A42737   6.151   4.766  14.848  0.3066  0.0995 -0.0709
36250DOPC   D2A42738   5.843   4.782  14.429  0.0521  0.0210  0.1454
36250DOPC   C3A42739   6.103   4.691  14.120 -0.2049  0.0579 -0.0351
36250DOPC   C4A42740   6.609   4.822  14.088 -0.2172 -0.0406 -0.0513
36250DOPC   C1B42741   6.757   4.375  14.812 -0.0399  0.2789 -0.0855
36250DOPC   D2B42742   7.004   4.030  14.472 -0.2023  0.1730 -0.1661
36250DOPC   C3B42743   7.218   3.647  14.329 -0.0138 -0.3317  0.0153
36250DOPC   C4B42744   7.446   3.412  13.990 -0.0933 -0.1670 -0.0231
36251DOPC   NC342745   1.166   6.807  15.337 -0.0168  0.0956  0.2616
36251DOPC   PO442746   1.288   7.156  15.447 -0.1581 -0.0102 -0.1556
36251DOPC   GL142747   1.360   7.341  15.109 -0.3209 -0.0680  0.0046
36251DOPC   GL242748   1.336   7.614  15.025 -0.3062 -0.1990 -0.0574
36251DOPC   C1A42749   1.498   7.095  14.864 -0.2150  0.1941 -0.0990
36251DOPC   D2A42750   1.655   6.937  14.506 -0.2124  0.0065  0.2520
36251DOPC   C3A42751   1.884   7.069  14.085  0.0836 -0.0609 -0.0533
36251DOPC   C4A42752   2.208   7.196  13.719  0.3049  0.0010  0.0031
36251DOPC   C1B42753   1.260   7.878  14.702  0.3520  0.1931 -0.0254
36251DOPC   D2B42754   1.295   8.235  14.366 -0.1769 -0.2357  0.0735
36251DOPC   C3B42755   1.530   8.422  14.019 -0.4982  0.1722 -0.2586
36251DOPC   C4B42756   1.880   8.563  13.669  0.0061  0.1105 -0.2294
36252DOPC   NC342757  29.172   5.028  15.188  0.1707  0.0464  0.0495
36252DOPC   PO442758  29.520   5.189  15.075 -0.1565 -0.0268  0.1714
36252DOPC   GL142759  29.304   5.204  14.707  0.2391 -0.0813 -0.0921
36252DOPC   GL242760  29.534   5.409  14.687  0.1605 -0.0817 -0.0836
36252DOPC   C1A42761  29.297   5.141  14.282  0.0690  0.1223 -0.0752
36252DOPC   D2A42762  29.392   5.151  13.785 -0.0117 -0.3964 -0.2769
36252DOPC   C3A42763  29.316   5.139  13.333 -0.0997 -0.0277 -0.3951
36252DOPC   C4A42764  29.181   5.310  12.859  0.1796  0.0561  0.0435
36252DOPC   C1B42765  29.728   5.312  14.352  0.0215 -0.0513  0.1530
36252DOPC   D2B42766  29.835   5.482  13.935 -0.0033 -0.2592 -0.1151
36252DOPC   C3B42767  29.775   5.440  13.511  0.1767  0.2038 -0.2063
36252DOPC   C4B42768  29.682   5.317  13.003 -0.2237 -0.5281  0.2835
36253DOPC   NC342769  16.718   6.900  14.794  0.4162 -0.0870 -0.2830
36253DOPC   PO442770  17.116   6.879  14.812 -0.2571  0.1343 -0.3248
36253DOPC   GL142771  17.075   7.179  14.573 -0.1206 -0.1167  0.1583
36253DOPC   GL242772  17.283   7.352  14.543 -0.0152  0.0652  0.1551
36253DOPC   C1A42773  16.901   7.196  14.244 -0.0073 -0.2353 -0.0919
36253DOPC   D2A42774  16.569   7.226  13.931 -0.0168 -0.2544  0.1699
36253DOPC   C3A42775  16.480   7.124  13.477 -0.0419  0.0670 -0.0845
36253DOPC   C4A42776  16.299   6.752  13.212 -0.0512 -0.0554 -0.2636
36253DOPC   C1B42777  17.439   7.141  14.157 -0.1296  0.1465 -0.2040
36253DOPC   D2B42778  17.256   6.816  13.830  0.0362  0.2027  0.0148
36253DOPC   C3B42779  17.331   6.614  13.455 -0.0288 -0.2857  0.0674
36253DOPC   C4B42780  17.467   6.279  13.126 -0.0137  0.0968  0.0922
36254DOPC   NC342781   9.917   7.371  14.940 -0.1601  0.0815 -0.1623
36254DOPC   PO442782  10.226   7.106  14.949  0.1400 -0.0285 -0.2813
36254DOPC   GL142783  10.395   7.129  14.665  0.1072  0.3280  0.2790
36254DOPC   GL242784  10.141   7.018  14.513  0.1341 -0.0205  0.2613
36254DOPC   C1A42785  10.677   7.414  14.351  0.0681 -0.0783  0.1155
36254DOPC   D2A42786  10.763   7.697  13.978 -0.0727 -0.0230  0.4318
36254DOPC   C3A42787  10.803   8.023  13.677 -0.1259  0.1601  0.2232
36254DOPC   C4A42788  10.893   8.235  13.249 -0.1537  0.0866 -0.1778
36254DOPC   C1B42789  10.422   6.806  14.260  0.5126  0.0226  0.0755
36254DOPC   D2B42790  10.685   6.738  13.832  0.0764 -0.1775 -0.2424
36254DOPC   C3B42791  10.628   6.666  13.419 -0.1589 -0.2311  0.2272
36254DOPC   C4B42792  10.535   6.440  12.998 -0.3523 -0.1774  0.0952
36255DOPC   NC342793   8.500   1.484  15.436 -0.1332  0.0359 -0.0144
36255DOPC   PO442794   8.103   1.404  15.379 -0.0218  0.0777  0.0896
36255DOPC   GL142795   8.032   1.412  14.979 -0.0801 -0.2254 -0.4264
36255DOPC   GL242796   7.995   1.686  14.957  0.2041 -0.3190  0.0108
36255DOPC   C1A42797   8.085   1.072  14.652 -0.0008 -0.1701 -0.0930
36255DOPC   D2A42798   7.956   0.670  14.374  0.5169 -0.3138 -0.1766
36255DOPC   C3A42799   7.779   0.535  13.954 -0.2535  0.1253  0.2153
36255DOPC   C4A42800   7.660   0.163  13.642  0.0144 -0.1421 -0.3172
36255DOPC   C1B42801   8.085   1.674  14.495  0.1118 -0.1329 -0.0918
36255DOPC   D2B42802   8.118   1.578  14.062  0.1309  0.1419  0.0085
36255DOPC   C3B42803   8.455   1.318  13.806  0.2867  0.0329 -0.0018
36255DOPC   C4B42804   8.700   1.315  13.400  0.0682 -0.3612  0.0597
36256DOPC   NC342805  21.451   1.039  15.778 -0.1148  0.2061  0.0175
36256DOPC   PO442806  21.772   0.841  15.855  0.1980  0.0613  0.2506
36256DOPC   GL142807  21.874   0.723  15.413  0.3187  0.0754 -0.2343
36256DOPC   GL242808  21.814   0.451  15.536 -0.1561  0.3126  0.2364
36256DOPC   C1A42809  21.903   0.886  14.999  0.0368 -0.0549  0.3989
36256DOPC   D2A42810  21.721   0.943  14.602 -0.0114  0.0371 -0.2390
36256DOPC   C3A42811  21.588   1.162  14.207  0.2069  0.0849  0.1938
36256DOPC   C4A42812  21.588   0.993  13.765 -0.1570 -0.3406  0.1389
36256DOPC   C1B42813  21.881   0.342  15.062  0.1808 -0.0394 -0.0832
36256DOPC   D2B42814  21.933   0.097  14.558  0.0920  0.2076  0.1744
36256DOPC   C3B42815  21.944   0.094  14.088  0.2204  0.3540 -0.0150
36256DOPC   C4B42816  22.074   0.327  13.647  0.0293 -0.0841 -0.0359
36257DOPC   NC342817  18.610   2.563  14.925 -0.0706  0.1021 -0.0721
36257DOPC   PO442818  18.449   2.192  14.862  0.2446 -0.1274 -0.2101
36257DOPC   GL142819  18.515   2.100  14.410  0.0784 -0.2540 -0.1439
36257DOPC   GL242820  18.771   2.119  14.545  0.1084 -0.1844  0.1696
36257DOPC   C1A42821  18.536   2.196  13.996 -0.1885 -0.1727 -0.0064
36257DOPC   D2A42822  18.391   2.187  13.557  0.0726  0.2296  0.3151
36257DOPC   C3A42823  18.533   2.359  13.129  0.0957  0.0813  0.2634
36257DOPC   C4A42824  18.501   2.373  12.663  0.1484  0.0383  0.3510
36257DOPC   C1B42825  19.144   2.110  14.297  0.1434  0.0359 -0.1642
36257DOPC   D2B42826  19.367   2.150  13.870  0.0662  0.0838  0.0544
36257DOPC   C3B42827  19.339   2.543  13.585 -0.0840  0.1243 -0.2409
36257DOPC   C4B42828  19.235   2.992  13.515  0.2918  0.2095  0.0325
36258DOPC   NC342829   2.220   1.748  15.437  0.3778  0.3180 -0.4466
36258DOPC   PO442830   1.854   1.820  15.292  0.0142  0.1860  0.3056
36258DOPC   GL142831   1.709   2.030  14.971 -0.2360 -0.4485  0.2951
36258DOPC   GL242832   1.433   1.928  15.023  0.0101  0.2278 -0.1466
36258DOPC   C1A42833   1.729   2.078  14.466 -0.0744  0.5909  0.2554
36258DOPC   D2A42834   1.820   2.456  14.132 -0.2790 -0.0525  0.2681
36258DOPC   C3A42835   1.917   2.763  13.791 -0.3879 -0.1109 -0.1448
36258DOPC   C4A42836   2.320   2.748  13.446  0.0860 -0.0490 -0.1321
36258DOPC   C1B42837   1.185   1.643  14.771 -0.3557 -0.0939  0.3824
36258DOPC   D2B42838   0.944   1.296  14.537 -0.0077  0.1122 -0.1073
36258DOPC   C3B42839   0.679   1.187  14.184 -0.0552 -0.0674  0.2226
36258DOPC   C4B42840   0.670   1.099  13.673  0.1989  0.1549 -0.2134
36259DOPC   NC342841  12.607   2.737  15.297  0.2390  0.0234 -0.3052
36259DOPC   PO442842  12.269   2.543  15.304 -0.2658 -0.1455  0.3362
36259DOPC   GL142843  12.154   2.275  14.994  0.4367 -0.2124 -0.3053
36259DOPC   GL242844  12.235   2.054  14.950  0.0800  0.0872 -0.0122
36259DOPC   C1A42845  12.077   2.481  14.657 -0.4116 -0.2004 -0.0680
36259DOPC   D2A42846  12.169   2.957  14.499 -0.3021 -0.1314 -0.2101
36259DOPC   C3A42847  11.904   3.243  14.390  0.0542 -0.0578  0.1269
36259DOPC   C4A42848  11.519   3.515  14.437 -0.1004 -0.3946 -0.1519
36259DOPC   C1B42849  11.960   1.841  14.700  0.1645 -0.2780  0.1220
36259DOPC   D2B42850  11.733   1.476  14.347  0.0102  0.3719  0.0811
36259DOPC   C3B42851  11.562   1.306  13.988  0.2902  0.0458  0.0142
36259DOPC   C4B42852  11.143   1.317  13.767  0.1696  0.0870  0.1856
36260DOPC   NC342853  10.447   0.712  15.202 -0.1129 -0.2219 -0.1812
36260DOPC   PO442854  10.703   0.856  14.940 -0.0309 -0.3073  0.0477
36260DOPC   GL142855  10.399   0.742  14.589  0.0337  0.1614 -0.1341
36260DOPC   GL242856  10.250   0.834  14.706  0.4180 -0.3092 -0.0874
36260DOPC   C1A42857  10.368   0.926  14.148 -0.1263 -0.0273  0.1853
36260DOPC   D2A42858  10.218   1.188  13.733 -0.2863  0.0242 -0.3485
36260DOPC   C3A42859  10.508   1.538  13.534 -0.3396 -0.0800  0.0105
36260DOPC   C4A42860  10.901   1.784  13.602 -0.0469 -0.1263  0.0821
36260DOPC   C1B42861   9.997   1.061  14.432 -0.0436  0.3105  0.0090
36260DOPC   D2B42862   9.539   1.103  14.416 -0.0795 -0.0240 -0.0071
36260DOPC   C3B42863   9.306   1.501  14.291  0.2086  0.1503 -0.0443
36260DOPC   C4B42864   9.398   1.809  13.900  0.1505  0.4091 -0.0119
36261DOPC   NC342865  23.871   3.895  15.723  0.2576  0.0256  0.1393
36261DOPC   PO442866  24.039   3.917  15.350  0.0916 -0.2794 -0.0634
36261DOPC   GL142867  23.842   4.028  14.901 -0.0658 -0.2714 -0.3930
36261DOPC   GL242868  23.939   3.804  14.855  0.1601  0.1672 -0.1026
36261DOPC   C1A42869  24.015   4.193  14.562  0.1779 -0.0035  0.0805
36261DOPC   D2A42870  24.393   4.159  14.220 -0.0420 -0.2002  0.3113
36261DOPC   C3A42871  24.596   4.147  13.799 -0.2243 -0.2991  0.1305
36261DOPC   C4A42872  24.816   4.059  13.368 -0.0500 -0.1222 -0.0691
36261DOPC   C1B42873  23.997   3.618  14.449 -0.1454 -0.1867  0.0114
36261DOPC   D2B42874  23.952   3.330  14.062  0.0912  0.0344 -0.1944
36261DOPC   C3B42875  24.145   3.183  13.678  0.0676 -0.1639 -0.0885
36261DOPC   C4B42876  24.579   2.926  13.586 -0.0544  0.4039 -0.0981
36262DOPC   NC342877   3.348   1.175  15.647  0.0448  0.3202 -0.1852
36262DOPC   PO442878   3.109   1.150  15.330  0.0161  0.0830  0.0857
36262DOPC   GL142879   3.028   1.013  15.045  0.1478  0.0572 -0.0617
36262DOPC   GL242880   2.730   1.122  14.997  0.1050 -0.5161 -0.1257
36262DOPC   C1A42881   3.195   0.977  14.643 -0.3247 -0.0037  0.2249
36262DOPC   D2A42882   3.267   0.887  14.155 -0.1852  0.0608  0.1667
36262DOPC   C3A42883   3.581   1.056  13.873 -0.0505  0.1959  0.0756
36262DOPC   C4A42884   3.872   1.242  13.514 -0.1651  0.1746  0.1169
36262DOPC   C1B42885   2.707   0.907  14.559  0.2479 -0.0610  0.3303
36262DOPC   D2B42886   2.757   0.859  14.053  0.0376 -0.0165  0.0894
36262DOPC   C3B42887   2.412   0.857  13.755  0.3307  0.0236  0.0816
36262DOPC   C4B42888   2.240   0.749  13.294 -0.0948 -0.2154 -0.1900
36263DOPC   NC342889  19.563   7.071  15.614  0.3046  0.3075 -0.0958
36263DOPC   PO442890  19.895   6.852  15.614 -0.4350 -0.3178  0.0111
36263DOPC   GL142891  20.090   6.675  15.299  0.0792  0.1038 -0.2855
36263DOPC   GL242892  19.884   6.490  15.232  0.1283  0.2592  0.2048
36263DOPC   C1A42893  20.376   6.879  15.029  0.0794  0.2525  0.0522
36263DOPC   D2A42894  20.721   7.211  14.794 -0.0554 -0.1517  0.2120
36263DOPC   C3A42895  20.973   7.422  14.466  0.0832  0.1144 -0.0580
36263DOPC   C4A42896  21.215   7.304  14.092 -0.0896 -0.1654 -0.1953
36263DOPC   C1B42897  20.207   6.296  15.131 -0.1537  0.0769 -0.1822
36263DOPC   D2B42898  20.582   5.951  15.060  0.3456  0.0165 -0.2401
36263DOPC   C3B42899  20.574   5.802  14.608 -0.0047  0.0408  0.1546
36263DOPC   C4B42900  20.724   5.983  14.215 -0.0359  0.2954  0.2049
36264DOPC   NC342901  12.347   4.646  15.024 -0.2170  0.2112 -0.1639
36264DOPC   PO442902  12.193   4.978  14.921 -0.1841  0.0273  0.1325
36264DOPC   GL142903  12.304   5.191  14.590 -0.1249  0.0690  0.2360
36264DOPC   GL242904  12.048   5.254  14.556  0.0754  0.0251 -0.2325
36264DOPC   C1A42905  12.346   5.041  14.188  0.2793  0.0974 -0.1775
36264DOPC   D2A42906  12.441   4.854  13.740  0.2546 -0.0718 -0.0590
36264DOPC   C3A42907  12.213   5.242  13.608 -0.0193 -0.0004  0.2275
36264DOPC   C4A42908  11.944   5.542  13.313  0.2362 -0.0979  0.0720
36264DOPC   C1B42909  11.733   4.934  14.381  0.1496 -0.3177 -0.0344
36264DOPC   D2B42910  11.636   4.437  14.263 -0.0160  0.1033  0.0323
36264DOPC   C3B42911  11.411   4.333  13.925  0.0437 -0.3054  0.2037
36264DOPC   C4B42912  11.233   4.230  13.452  0.1726 -0.2963  0.0468
36265DOPC   NC342913  28.977   2.331  15.371  0.1759 -0.0424 -0.1893
36265DOPC   PO442914  28.675   2.579  15.329  0.3364  0.0160 -0.1834
36265DOPC   GL142915  28.415   2.748  15.031 -0.1313  0.0985 -0.4700
36265DOPC   GL242916  28.276   2.486  14.920 -0.0667 -0.0971 -0.0057
36265DOPC   C1A42917  28.261   3.028  14.727  0.2123 -0.1916 -0.3065
36265DOPC   D2A42918  28.041   3.221  14.356  0.0437  0.0619 -0.0204
36265DOPC   C3A42919  27.613   3.331  14.230 -0.1082  0.0271 -0.2217
36265DOPC   C4A42920  27.180   3.255  14.058  0.2483 -0.1650  0.3212
36265DOPC   C1B42921  28.209   2.502  14.487 -0.2508 -0.2351 -0.3253
36265DOPC   D2B42922  28.285   2.206  14.142  0.3058 -0.1495 -0.0781
36265DOPC   C3B42923  28.004   2.497  13.944 -0.1285  0.1564 -0.0174
36265DOPC   C4B42924  27.846   2.939  13.721  0.0924 -0.3247  0.0904
36266DOPC   NC342925  15.745   3.459  14.795  0.0239  0.1040  0.6582
36266DOPC   PO442926  15.749   3.825  14.897  0.3139  0.0475  0.0594
36266DOPC   GL142927  15.491   3.897  14.597 -0.0425 -0.1738  0.1619
36266DOPC   GL242928  15.504   4.174  14.548 -0.0184  0.2124 -0.3019
36266DOPC   C1A42929  15.047   3.848  14.488  0.3247  0.0013  0.0648
36266DOPC   D2A42930  14.574   4.061  14.387 -0.0311 -0.0372 -0.0538
36266DOPC   C3A42931  14.288   4.156  14.084  0.1534 -0.0370  0.2246
36266DOPC   C4A42932  14.168   4.212  13.542 -0.0098 -0.0421 -0.2134
36266DOPC   C1B42933  15.223   4.207  14.226  0.3051 -0.1457 -0.1927
36266DOPC   D2B42934  15.244   4.253  13.727  0.0350  0.0547  0.3603
36266DOPC   C3B42935  14.824   4.255  13.449 -0.2183 -0.1211 -0.2032
36266DOPC   C4B42936  14.568   4.340  13.045 -0.0680 -0.4240  0.2079
36267DOPC   NC342937   2.376   2.319  15.415 -0.0620  0.1177 -0.1779
36267DOPC   PO442938   2.399   2.670  15.263 -0.1202  0.0163  0.0413
36267DOPC   GL142939   2.274   2.687  14.798 -0.3308  0.1759  0.0196
36267DOPC   GL242940   2.513   2.614  14.785 -0.2328 -0.0193  0.2719
36267DOPC   C1A42941   1.941   2.823  14.585  0.0964 -0.0097 -0.3140
36267DOPC   D2A42942   1.739   3.094  14.232  0.0102 -0.0185  0.1361
36267DOPC   C3A42943   1.670   3.218  13.780 -0.1541 -0.0724 -0.0663
36267DOPC   C4A42944   1.605   3.337  13.312  0.1873 -0.2342 -0.2052
36267DOPC   C1B42945   2.799   2.529  14.417  0.1969 -0.2154 -0.1902
36267DOPC   D2B42946   2.861   2.675  13.963  0.1995 -0.0975 -0.0283
36267DOPC   C3B42947   2.848   2.508  13.534  0.0314  0.1560 -0.2049
36267DOPC   C4B42948   2.835   2.501  13.056 -0.1008 -0.0330  0.0838
36268DOPC   NC342949  17.171   1.680  15.282  0.1421  0.4127 -0.0348
36268DOPC   PO442950  17.012   2.047  15.230 -0.0201 -0.0746  0.0844
36268DOPC   GL142951  17.016   2.071  14.878 -0.0626 -0.1329  0.4484
36268DOPC   GL242952  16.818   1.837  14.860  0.0530  0.0725  0.1365
36268DOPC   C1A42953  17.088   2.311  14.527  0.0088 -0.3123 -0.0396
36268DOPC   D2A42954  16.927   2.651  14.213 -0.0511 -0.1623 -0.2118
36268DOPC   C3A42955  17.029   2.597  13.790  0.0020  0.0477  0.2561
36268DOPC   C4A42956  17.091   2.534  13.322 -0.1673 -0.0456 -0.0436
36268DOPC   C1B42957  16.855   1.833  14.432  0.2441 -0.1394  0.4583
36268DOPC   D2B42958  17.158   2.082  14.078 -0.1079  0.0559 -0.0998
36268DOPC   C3B42959  17.074   2.043  13.629  0.0687 -0.0478 -0.2071
36268DOPC   C4B42960  16.808   1.976  13.182  0.1872 -0.2051  0.1748
36269DOPC   NC342961  28.515   7.300  15.193  0.0534  0.0976 -0.0044
36269DOPC   PO442962  28.842   7.338  15.372  0.0661 -0.0702  0.3722
36269DOPC   GL142963  28.974   7.459  15.012  0.2234  0.1169 -0.1885
36269DOPC   GL242964  29.004   7.198  14.927 -0.1059 -0.2427 -0.3254
36269DOPC   C1A42965  28.967   7.718  14.655 -0.1482 -0.0920 -0.0460
36269DOPC   D2A42966  29.015   7.870  14.230 -0.1220  0.0151  0.1187
36269DOPC   C3A42967  28.986   7.559  13.850  0.0121  0.0052 -0.2050
36269DOPC   C4A42968  29.088   7.243  13.496  0.0725 -0.0443  0.2425
36269DOPC   C1B42969  28.877   6.877  14.596  0.2633  0.2161  0.0428
36269DOPC   D2B42970  28.582   6.924  14.196  0.0178 -0.1591 -0.1082
36269DOPC   C3B42971  28.616   7.091  13.758 -0.1544 -0.0074  0.1886
36269DOPC   C4B42972  28.545   7.241  13.279  0.2445 -0.2383  0.1058
36270DOPC   NC342973   6.244   5.719  15.543  0.2367  0.0642 -0.1071
36270DOPC   PO442974   5.930   5.856  15.363 -0.1045  0.0483 -0.0074
36270DOPC   GL142975   5.942   5.795  14.937  0.1098  0.1861 -0.0097
36270DOPC   GL242976   6.143   5.539  15.058 -0.0797 -0.3842 -0.0482
36270DOPC   C1A42977   5.807   5.857  14.493 -0.3355 -0.2990  0.2307
36270DOPC   D2A42978   5.591   5.778  14.102  0.0469  0.2411 -0.4586
36270DOPC   C3A42979   5.415   5.546  13.720 -0.2666 -0.0868 -0.0754
36270DOPC   C4A42980   5.469   5.375  13.274 -0.3730  0.0779 -0.0808
36270DOPC   C1B42981   6.335   5.243  14.875  0.1843  0.1081  0.0091
36270DOPC   D2B42982   6.671   4.972  14.684  0.1204 -0.0264 -0.2929
36270DOPC   C3B42983   7.050   5.031  14.360  0.1320  0.2287  0.0436
36270DOPC   C4B42984   7.105   5.037  13.864 -0.0822  0.0671 -0.0791
36271DOPC   NC342985   1.731   7.466  15.291  0.1180 -0.2912 -0.2987
36271DOPC   PO442986   1.632   7.837  15.350 -0.1440  0.0052 -0.2814
36271DOPC   GL142987   1.720   8.025  15.050  0.1816 -0.3683  0.3009
36271DOPC   GL242988   1.761   7.849  14.824 -0.0800  0.3548 -0.3384
36271DOPC   C1A42989   1.529   8.384  14.855  0.0815 -0.1741  0.0457
36271DOPC   D2A42990   1.302   8.709  14.504 -0.2860  0.0991 -0.4849
36271DOPC   C3A42991   1.148   8.827  14.075 -0.1787 -0.0003  0.1087
36271DOPC   C4A42992   1.019   9.232  13.783 -0.1648 -0.1388 -0.0147
36271DOPC   C1B42993   1.757   8.049  14.447  0.2995  0.2938 -0.2713
36271DOPC   D2B42994   1.627   7.906  14.004 -0.0652  0.1211 -0.0570
36271DOPC   C3B42995   1.665   8.114  13.631  0.0249 -0.0842  0.0076
36271DOPC   C4B42996   1.674   8.316  13.186  0.2287 -0.2265 -0.0045
36272DOPC   NC342997   3.641   0.224  15.713 -0.0074 -0.0135 -0.0831
36272DOPC   PO442998   3.766  -0.045  15.448 -0.0923 -0.0312  0.0162
36272DOPC   GL142999   3.810   0.006  14.982  0.4115  0.4298  0.2889
36272DOPC   GL243000   3.891   0.241  14.900  0.1002  0.2162 -0.0378
36272DOPC   C1A43001   3.687  -0.357  14.658 -0.4792 -0.1317 -0.1348
36272DOPC   D2A43002   3.437  -0.407  14.225  0.1347  0.2979 -0.2058
36272DOPC   C3A43003   3.551  -0.542  13.721  0.0344 -0.0582  0.0069
36272DOPC   C4A43004   3.562  -0.613  13.201 -0.1951 -0.0912 -0.2181
36272DOPC   C1B43005   4.051   0.354  14.467 -0.2533  0.3092  0.2431
36272DOPC   D2B43006   4.396   0.559  14.158 -0.2262  0.1611  0.2656
36272DOPC   C3B43007   4.504   0.449  13.689 -0.1032  0.0747  0.0630
36272DOPC   C4B43008   4.395   0.202  13.335  0.0748 -0.0018  0.0733
36273DOPC   NC343009  15.095   0.793  14.668 -0.1166  0.2707 -0.1196
36273DOPC   PO443010  15.288   1.093  14.760 -0.0712 -0.0194  0.1145
36273DOPC   GL143011  15.587   1.079  14.538 -0.1701 -0.2057  0.0683
36273DOPC   GL243012  15.752   1.319  14.589 -0.3135  0.0425  0.0790
36273DOPC   C1A43013  15.501   1.014  14.124 -0.0358  0.2795 -0.1187
36273DOPC   D2A43014  15.465   1.220  13.664  0.3159  0.2055  0.3171
36273DOPC   C3A43015  15.381   1.371  13.264  0.2898  0.2523  0.0828
36273DOPC   C4A43016  15.111   1.177  12.872  0.2174 -0.1133  0.0451
36273DOPC   C1B43017  16.187   1.237  14.452  0.0936  0.0306  0.1444
36273DOPC   D2B43018  16.668   1.356  14.434 -0.1573 -0.0757  0.0185
36273DOPC   C3B43019  16.811   1.525  13.983 -0.1120  0.0218 -0.2185
36273DOPC   C4B43020  16.983   1.527  13.580 -0.2690  0.0981  0.0936
36274DOPC   NC343021   8.405   4.684  15.583 -0.3352  0.1587  0.1709
36274DOPC   PO443022   8.236   4.380  15.439 -0.1186 -0.0250 -0.2890
36274DOPC   GL143023   8.416   4.278  15.092  0.3487  0.1690  0.2210
36274DOPC   GL243024   8.343   4.452  14.895 -0.1510 -0.2192 -0.3401
36274DOPC   C1A43025   8.548   3.892  14.859  0.1608  0.2403 -0.0792
36274DOPC   D2A43026   8.621   3.941  14.387 -0.1610  0.0524 -0.2480
36274DOPC   C3A43027   8.418   3.597  14.298  0.3779 -0.1368 -0.2404
36274DOPC   C4A43028   8.340   3.205  13.971  0.0392 -0.0659  0.0459
36274DOPC   C1B43029   8.136   4.261  14.599 -0.0640  0.2667  0.0228
36274DOPC   D2B43030   7.965   4.212  14.087  0.0232  0.2893 -0.3066
36274DOPC   C3B43031   8.173   3.907  13.950  0.0409 -0.0382 -0.3279
36274DOPC   C4B43032   8.090   3.500  13.677 -0.1359 -0.0734  0.0681
36275DOPC   NC343033   5.504   1.476  15.437  0.1739 -0.3899  0.1076
36275DOPC   PO443034   5.137   1.592  15.400  0.1007 -0.0590 -0.0818
36275DOPC   GL143035   5.189   1.629  15.056 -0.1234 -0.0866  0.1232
36275DOPC   GL243036   5.083   1.861  14.976 -0.1065  0.1291 -0.0299
36275DOPC   C1A43037   5.261   1.476  14.604  0.1391 -0.1929  0.1262
36275DOPC   D2A43038   5.505   1.391  14.184  0.0701  0.2001  0.0711
36275DOPC   C3A43039   5.682   1.410  13.769 -0.2203  0.0455  0.0074
36275DOPC   C4A43040   5.608   1.648  13.346 -0.0425  0.1249 -0.0107
36275DOPC   C1B43041   5.031   2.071  14.571  0.2622  0.0617  0.2159
36275DOPC   D2B43042   5.025   2.240  14.090  0.1006 -0.0505 -0.0568
36275DOPC   C3B43043   4.762   2.650  14.036  0.0822 -0.0073 -0.1751
36275DOPC   C4B43044   4.618   3.063  14.120  0.0581 -0.0008 -0.0931
36276DOPC   NC343045  13.873   5.833  15.219 -0.1723  0.2460 -0.0100
36276DOPC   PO443046  14.163   6.088  15.233 -0.2434 -0.1821  0.1174
36276DOPC   GL143047  14.346   6.172  14.806 -0.1698  0.1268  0.2095
36276DOPC   GL243048  14.203   6.441  14.834 -0.2981  0.2825 -0.2150
36276DOPC   C1A43049  14.242   6.118  14.402 -0.0089 -0.2085  0.2587
36276DOPC   D2A43050  14.082   6.002  13.936 -0.1534  0.2576  0.3559
36276DOPC   C3A43051  13.973   6.350  13.649  0.4123  0.0451 -0.2870
36276DOPC   C4A43052  13.601   6.700  13.698  0.2130  0.1361  0.0690
36276DOPC   C1B43053  13.898   6.533  14.534  0.1303  0.0013  0.0855
36276DOPC   D2B43054  13.945   6.684  14.065  0.1547  0.0876 -0.1795
36276DOPC   C3B43055  14.190   6.860  13.731  0.1842  0.0579 -0.1805
36276DOPC   C4B43056  14.522   7.058  13.507 -0.4129  0.2825  0.0606
36277DOPC   NC343057   0.724   3.724  15.159 -0.0679 -0.1275  0.0468
36277DOPC   PO443058   1.077   3.896  15.316 -0.1528  0.1652 -0.0402
36277DOPC   GL143059   1.232   3.925  14.906  0.0725 -0.2200 -0.0458
36277DOPC   GL243060   1.020   4.017  14.834 -0.0442  0.0168  0.0044
36277DOPC   C1A43061   1.598   4.098  14.641 -0.1234  0.0355  0.0834
36277DOPC   D2A43062   1.798   4.498  14.379 -0.1189  0.0269  0.0260
36277DOPC   C3A43063   1.877   4.672  14.012 -0.0766  0.2899 -0.0924
36277DOPC   C4A43064   1.877   4.663  13.530  0.2083 -0.0871  0.2049
36277DOPC   C1B43065   1.145   3.900  14.431 -0.1456 -0.0929 -0.2839
36277DOPC   D2B43066   1.270   3.921  13.962 -0.1504  0.0353  0.2682
36277DOPC   C3B43067   1.723   3.686  13.764 -0.1228 -0.0883  0.2516
36277DOPC   C4B43068   2.212   3.749  13.627  0.0719 -0.0187  0.0675
36278DOPC   NC343069  21.170   6.960  15.802 -0.3234  0.2118 -0.0625
36278DOPC   PO443070  20.923   6.643  15.783 -0.3519 -0.0484  0.0481
36278DOPC   GL143071  20.958   6.439  15.420  0.2622  0.1989 -0.2848
36278DOPC   GL243072  21.219   6.631  15.408 -0.1599  0.1995 -0.1896
36278DOPC   C1A43073  20.671   6.473  15.094 -0.0605  0.2529 -0.1084
36278DOPC   D2A43074  20.425   6.383  14.707 -0.3125  0.3323  0.1752
36278DOPC   C3A43075  20.574   6.471  14.248 -0.0786  0.3678  0.0605
36278DOPC   C4A43076  20.709   6.602  13.829 -0.1212  0.0837  0.0415
36278DOPC   C1B43077  21.191   6.538  15.005 -0.2594  0.1326 -0.2820
36278DOPC   D2B43078  21.372   6.640  14.546 -0.1666  0.0436  0.1511
36278DOPC   C3B43079  21.061   6.867  14.273 -0.0911  0.2870  0.0047
36278DOPC   C4B43080  20.828   7.135  13.866  0.1477 -0.1105 -0.2239
36279DOPC   NC343081  25.604   0.129  15.572 -0.1546 -0.4174 -0.1424
36279DOPC   PO443082  25.787   0.482  15.687  0.3089  0.0252  0.0011
36279DOPC   GL143083  26.062   0.554  15.303  0.3088 -0.1189 -0.1987
36279DOPC   GL243084  26.032   0.276  15.231 -0.0910 -0.2949 -0.2627
36279DOPC   C1A43085  26.174   0.835  15.008  0.0886 -0.3071  0.3894
36279DOPC   D2A43086  26.397   1.053  14.676  0.0982  0.4208 -0.1836
36279DOPC   C3A43087  26.168   1.307  14.323 -0.2392 -0.3647 -0.0989
36279DOPC   C4A43088  25.813   1.625  14.394  0.1213  0.0495  0.1473
36279DOPC   C1B43089  25.758  -0.046  15.046 -0.0500  0.0557 -0.0572
36279DOPC   D2B43090  25.558  -0.361  14.731 -0.1712  0.0574  0.1764
36279DOPC   C3B43091  25.900  -0.343  14.438  0.1400  0.0650 -0.2243
36279DOPC   C4B43092  26.008  -0.614  13.998  0.1365 -0.2636  0.0498
36280DOPC   NC343093  25.664   2.183  15.422 -0.1168 -0.1426 -0.1387
36280DOPC   PO443094  25.525   2.557  15.511  0.2304  0.1954 -0.1696
36280DOPC   GL143095  25.661   2.655  15.088 -0.1168 -0.1447 -0.0248
36280DOPC   GL243096  25.484   2.453  15.011  0.0143  0.3706  0.3613
36280DOPC   C1A43097  25.987   2.584  14.682  0.2753 -0.1875 -0.1934
36280DOPC   D2A43098  26.027   2.210  14.354 -0.2910  0.0975 -0.2470
36280DOPC   C3A43099  26.099   2.129  13.845 -0.4644  0.0689  0.0132
36280DOPC   C4A43100  25.981   1.884  13.409 -0.0973  0.0674 -0.0511
36280DOPC   C1B43101  25.479   2.568  14.544 -0.3361 -0.0362  0.2296
36280DOPC   D2B43102  25.844   2.547  14.092  0.2027  0.1397 -0.2983
36280DOPC   C3B43103  25.797   2.955  13.830 -0.4436  0.1433 -0.2802
36280DOPC   C4B43104  25.997   3.382  13.682  0.1976 -0.0197  0.1592
36281DOPC   NC343105  16.401   2.231  15.361  0.0500  0.2610  0.3946
36281DOPC   PO443106  16.380   1.939  15.088  0.0138 -0.2894 -0.0981
36281DOPC   GL143107  16.331   2.051  14.674 -0.0899 -0.1840  0.0591
36281DOPC   GL243108  16.104   2.108  14.636 -0.1107 -0.1324 -0.0217
36281DOPC   C1A43109  16.314   1.826  14.313 -0.4312 -0.0519  0.0482
36281DOPC   D2A43110  16.071   1.523  13.952  0.4222  0.0695  0.0332
36281DOPC   C3A43111  16.018   1.621  13.534 -0.0551  0.0881 -0.0537
36281DOPC   C4A43112  15.787   1.737  13.133 -0.2070 -0.0288  0.0457
36281DOPC   C1B43113  16.038   2.351  14.312  0.1863  0.1648 -0.1736
36281DOPC   D2B43114  15.965   2.675  13.961 -0.0543  0.0319 -0.1530
36281DOPC   C3B43115  16.094   2.579  13.510 -0.0287  0.3625 -0.2221
36281DOPC   C4B43116  16.115   2.488  13.049  0.3817 -0.4436  0.2153
36282DOPC   NC343117   0.287   5.436  14.937 -0.0641 -0.3221 -0.1810
36282DOPC   PO443118  -0.141   5.424  14.858 -0.0654 -0.0090  0.0042
36282DOPC   GL143119  -0.163   5.377  14.399  0.1665 -0.1001  0.1054
36282DOPC   GL243120   0.054   5.476  14.466 -0.0207 -0.1499  0.2008
36282DOPC   C1A43121  -0.015   5.359  14.061  0.0887 -0.0552  0.2749
36282DOPC   D2A43122   0.148   5.221  13.678 -0.1770 -0.0523  0.2082
36282DOPC   C3A43123   0.308   5.106  13.241  0.3832 -0.0086  0.0883
36282DOPC   C4A43124   0.648   5.171  12.897  0.2913 -0.1728 -0.2202
36282DOPC   C1B43125   0.357   5.656  14.136 -0.0000 -0.2221 -0.1705
36282DOPC   D2B43126   0.276   5.896  13.747 -0.0260  0.1586  0.0978
36282DOPC   C3B43127  -0.157   5.889  13.613 -0.0421  0.0488  0.1981
36282DOPC   C4B43128  -0.632   5.958  13.504  0.0415 -0.2429  0.1997
36283DOPC   NC343129   6.616   0.785  15.435 -0.0011  0.0295  0.1186
36283DOPC   PO443130   6.528   1.131  15.229 -0.0296  0.0711  0.0192
36283DOPC   GL143131   6.659   1.168  14.835  0.1794  0.1669  0.1530
36283DOPC   GL243132   6.313   1.158  14.685 -0.0747  0.3545 -0.0104
36283DOPC   C1A43133   6.901   1.345  14.497 -0.2188 -0.2510 -0.1616
36283DOPC   D2A43134   7.278   1.399  14.204  0.4874  0.2158 -0.1200
36283DOPC   C3A43135   7.224   1.217  13.783  0.1277  0.1609  0.1470
36283DOPC   C4A43136   7.172   1.157  13.281  0.4075  0.2317 -0.1189
36283DOPC   C1B43137   6.418   1.371  14.327 -0.1542  0.0051  0.1661
36283DOPC   D2B43138   6.785   1.523  13.931  0.0808  0.1439  0.0202
36283DOPC   C3B43139   6.844   1.621  13.458 -0.2816  0.1673  0.0972
36283DOPC   C4B43140   6.947   1.506  12.978 -0.1734  0.0775 -0.1680
36284DOPC   NC343141  12.521   5.586  15.197  0.0132 -0.1583 -0.0701
36284DOPC   PO443142  12.604   5.369  14.875 -0.1038  0.3012  0.1595
36284DOPC   GL143143  12.702   5.364  14.435  0.0369  0.3651  0.0729
36284DOPC   GL243144  12.990   5.430  14.411  0.5195 -0.2902  0.2262
36284DOPC   C1A43145  12.829   5.110  14.078 -0.0729  0.0765  0.0783
36284DOPC   D2A43146  13.122   5.004  13.775  0.0026  0.0584  0.0663
36284DOPC   C3A43147  12.790   5.210  13.536  0.3187 -0.0403 -0.0665
36284DOPC   C4A43148  12.566   5.350  13.153 -0.4366 -0.2224 -0.3114
36284DOPC   C1B43149  13.305   5.423  14.014  0.0392 -0.0025  0.1633
36284DOPC   D2B43150  13.499   5.430  13.587 -0.0426  0.2138  0.0588
36284DOPC   C3B43151  13.388   5.678  13.215 -0.1728 -0.1321  0.0307
36284DOPC   C4B43152  13.245   6.031  12.887 -0.3761  0.0516 -0.1560
36285DOPC   NC343153  11.636   5.116  15.186 -0.0488 -0.3686 -0.1046
36285DOPC   PO443154  11.546   4.724  15.125 -0.0281 -0.1981  0.1892
36285DOPC   GL143155  11.463   4.596  14.675 -0.2761  0.1094  0.1645
36285DOPC   GL243156  11.694   4.811  14.776 -0.1478  0.1358 -0.1568
36285DOPC   C1A43157  11.229   4.724  14.316 -0.1444  0.0307  0.2677
36285DOPC   D2A43158  11.018   4.696  13.880 -0.1007 -0.1552 -0.0205
36285DOPC   C3A43159  11.371   4.728  13.585 -0.2608 -0.1231 -0.1078
36285DOPC   C4A43160  11.676   4.963  13.324 -0.1841  0.1574  0.0533
36285DOPC   C1B43161  11.586   5.253  14.747  0.2189 -0.0451  0.1478
36285DOPC   D2B43162  11.547   5.755  14.552 -0.0157 -0.0935 -0.0555
36285DOPC   C3B43163  11.410   5.798  14.121  0.1210  0.2232 -0.1038
36285DOPC   C4B43164  11.382   5.488  13.706  0.2148  0.0140  0.2175
36286DOPC   NC343165   8.498   0.380  15.030  0.0500 -0.0445 -0.0778
36286DOPC   PO443166   8.327   0.066  15.123 -0.1032  0.0810  0.0799
36286DOPC   GL143167   8.280  -0.226  14.797  0.7537 -0.0159  0.3924
36286DOPC   GL243168   7.937  -0.147  14.916  0.1886  0.0315 -0.1844
36286DOPC   C1A43169   8.303  -0.276  14.355 -0.0862  0.0122  0.0465
36286DOPC   D2A43170   8.353  -0.296  13.839  0.0641  0.2810 -0.1570
36286DOPC   C3A43171   8.486  -0.310  13.372 -0.2004 -0.0575 -0.0633
36286DOPC   C4A43172   8.464  -0.247  12.880  0.1678 -0.0405  0.1037
36286DOPC   C1B43173   7.863   0.030  14.502 -0.2014  0.1202 -0.2650
36286DOPC   D2B43174   7.945   0.080  14.029 -0.0980  0.2205  0.0968
36286DOPC   C3B43175   8.223   0.140  13.681 -0.0577 -0.0548 -0.0964
36286DOPC   C4B43176   8.470   0.234  13.220  0.3969  0.1340 -0.1025
36287DOPC   NC343177  10.836   6.815  15.128 -0.1909  0.0377 -0.0320
36287DOPC   PO443178  11.008   6.468  15.209  0.0843  0.1020  0.1043
36287DOPC   GL143179  11.133   6.175  14.871  0.2595 -0.1556  0.0705
36287DOPC   GL243180  10.866   6.289  14.750  0.1867 -0.0189 -0.2735
36287DOPC   C1A43181  11.246   6.166  14.466  0.1217 -0.4970  0.0215
36287DOPC   D2A43182  11.521   6.250  14.027  0.1531 -0.0184 -0.1905
36287DOPC   C3A43183  11.625   6.344  13.559  0.1355  0.0993  0.3138
36287DOPC   C4A43184  11.689   6.339  13.082 -0.2241  0.1376  0.0146
36287DOPC   C1B43185  10.737   6.065  14.390  0.1987  0.1495 -0.1143
36287DOPC   D2B43186  10.490   5.887  13.998  0.1267  0.0666  0.3989
36287DOPC   C3B43187  10.155   5.798  13.644  0.1199 -0.1000 -0.1722
36287DOPC   C4B43188   9.909   5.597  13.369 -0.0706  0.1753  0.2212
36288DOPC   NC343189  25.624   5.109  15.874  0.0898 -0.0311 -0.3924
36288DOPC   PO443190  25.567   5.477  15.779 -0.2265  0.1605 -0.0237
36288DOPC   GL143191  25.879   5.667  15.541  0.2955 -0.2267 -0.4492
36288DOPC   GL243192  25.725   5.868  15.424 -0.2029 -0.1443 -0.0097
36288DOPC   C1A43193  26.111   5.496  15.189 -0.0768  0.2759 -0.2211
36288DOPC   D2A43194  26.508   5.328  14.939 -0.3056  0.0647  0.2707
36288DOPC   C3A43195  26.315   5.168  14.508 -0.2863  0.0675 -0.2214
36288DOPC   C4A43196  26.146   5.085  14.023  0.3370  0.2612 -0.4920
36288DOPC   C1B43197  25.708   5.952  14.990  0.1641  0.0162 -0.1756
36288DOPC   D2B43198  25.823   5.947  14.517 -0.2129  0.0646 -0.0245
36288DOPC   C3B43199  26.233   5.907  14.449 -0.0083  0.1423  0.0245
36288DOPC   C4B43200  26.744   6.030  14.288  0.2265  0.1377 -0.0678
36289DOPC   NC343201  21.435   3.675  15.490 -0.2133  0.1256 -0.3741
36289DOPC   PO443202  21.760   3.464  15.485  0.3427 -0.3682  0.1257
36289DOPC   GL143203  21.844   3.058  15.343  0.1619 -0.1133 -0.0629
36289DOPC   GL243204  21.635   3.020  15.224 -0.1609 -0.1055 -0.0604
36289DOPC   C1A43205  22.267   3.047  15.159  0.2345 -0.2246  0.1927
36289DOPC   D2A43206  22.727   3.103  14.913  0.1635  0.0165  0.0279
36289DOPC   C3A43207  22.888   2.783  14.668 -0.1073 -0.0604 -0.2571
36289DOPC   C4A43208  23.185   2.852  14.268 -0.2960  0.1037 -0.0589
36289DOPC   C1B43209  21.779   2.990  14.883 -0.0706  0.2981 -0.1522
36289DOPC   D2B43210  21.971   3.167  14.461 -0.1133 -0.1989 -0.2431
36289DOPC   C3B43211  22.009   3.426  14.053 -0.0122  0.1217 -0.0582
36289DOPC   C4B43212  21.966   3.361  13.629  0.1657  0.0273 -0.0528
36290DOPC   NC343213  24.270   2.381  15.447 -0.1891  0.0073 -0.0596
36290DOPC   PO443214  23.937   2.380  15.217 -0.2226  0.1513 -0.0861
36290DOPC   GL143215  23.939   2.299  14.845 -0.1468  0.1623 -0.1666
36290DOPC   GL243216  24.031   2.052  14.904  0.1767 -0.1400 -0.0730
36290DOPC   C1A43217  23.667   2.146  14.531  0.0067  0.0779 -0.1396
36290DOPC   D2A43218  23.218   2.016  14.347 -0.1941  0.0461  0.1265
36290DOPC   C3A43219  23.128   2.002  13.906  0.0657 -0.1647 -0.0269
36290DOPC   C4A43220  23.076   1.848  13.442 -0.1320 -0.4057  0.2235
36290DOPC   C1B43221  24.344   1.786  14.832 -0.0573  0.3803 -0.1716
36290DOPC   D2B43222  24.612   1.424  14.733 -0.3869  0.0373 -0.0115
36290DOPC   C3B43223  24.904   1.582  14.416 -0.1473  0.1936 -0.0552
36290DOPC   C4B43224  25.376   1.662  14.111  0.1888 -0.0949 -0.2048
36291DOPC   NC343225  11.016   3.002  15.592  0.3008 -0.1590  0.0408
36291DOPC   PO443226  10.697   3.239  15.453  0.0936 -0.0645 -0.0707
36291DOPC   GL143227  10.820   3.191  15.014 -0.0279  0.2052  0.1002
36291DOPC   GL243228  10.582   3.017  15.012  0.3113  0.2664  0.3613
36291DOPC   C1A43229  10.940   3.070  14.602  0.0320 -0.1365  0.0067
36291DOPC   D2A43230  10.940   2.668  14.316  0.0764 -0.2251 -0.0787
36291DOPC   C3A43231  10.573   2.472  14.332  0.0378  0.1898 -0.0669
36291DOPC   C4A43232  10.141   2.261  14.385  0.0973 -0.2953 -0.2326
36291DOPC   C1B43233  10.436   2.860  14.640 -0.1166 -0.2181  0.1346
36291DOPC   D2B43234  10.145   2.826  14.258 -0.2132  0.0772 -0.1609
36291DOPC   C3B43235  10.217   2.511  13.923 -0.0377  0.1727  0.0828
36291DOPC   C4B43236   9.797   2.549  13.581 -0.0776 -0.1958 -0.1860
36292DOPC   NC343237   4.991   3.203  15.632  0.0314  0.1335  0.0949
36292DOPC   PO443238   5.038   3.615  15.546 -0.0298 -0.3532 -0.0454
36292DOPC   GL143239   4.940   3.786  15.189  0.0900  0.0506 -0.0229
36292DOPC   GL243240   5.257   3.783  15.172 -0.3346  0.0041 -0.1029
36292DOPC   C1A43241   4.907   3.964  14.747 -0.1990  0.0226  0.1696
36292DOPC   D2A43242   4.852   4.153  14.291 -0.1462  0.1636 -0.0939
36292DOPC   C3A43243   5.031   4.113  13.851 -0.1703  0.4567 -0.2969
36292DOPC   C4A43244   5.230   3.923  13.432  0.0714  0.2096  0.0863
36292DOPC   C1B43245   5.413   3.871  14.788  0.0395  0.1493  0.1767
36292DOPC   D2B43246   5.720   3.785  14.379 -0.0707 -0.1494 -0.0655
36292DOPC   C3B43247   5.899   3.626  13.999 -0.4250  0.0536  0.0105
36292DOPC   C4B43248   6.109   3.369  13.623  0.1585 -0.1467 -0.1027
36293DOPC   NC343249  19.954   5.761  15.798  0.0126 -0.0890  0.2533
36293DOPC   PO443250  19.768   5.788  15.452 -0.2524  0.1758 -0.3102
36293DOPC   GL143251  19.813   6.023  15.180  0.1064 -0.3301  0.0314
36293DOPC   GL243252  19.519   5.933  15.043  0.0080 -0.1223  0.0842
36293DOPC   C1A43253  19.788   6.343  14.842 -0.3334 -0.1249 -0.1366
36293DOPC   D2A43254  19.978   6.574  14.499 -0.2445 -0.4394 -0.1610
36293DOPC   C3A43255  19.939   7.026  14.325  0.0874  0.3762  0.2665
36293DOPC   C4A43256  19.464   7.230  14.238  0.0015 -0.2717  0.1826
36293DOPC   C1B43257  19.634   5.707  14.628 -0.1761 -0.0786 -0.0514
36293DOPC   D2B43258  19.871   5.721  14.205 -0.2054  0.0442  0.2829
36293DOPC   C3B43259  19.706   5.983  13.864 -0.4171 -0.0644  0.2467
36293DOPC   C4B43260  19.978   6.169  13.503  0.2223  0.0206 -0.2338
36294DOPC   NC343261  29.470   6.637  15.393 -0.1670  0.0215  0.0379
36294DOPC   PO443262  29.668   6.554  15.070 -0.0690  0.2404 -0.0933
36294DOPC   GL143263  29.898   6.590  14.784  0.0292 -0.1317  0.3123
36294DOPC   GL243264  29.694   6.770  14.673 -0.1891 -0.4247 -0.0057
36294DOPC   C1A43265  30.165   6.516  14.412  0.1311 -0.1600 -0.0242
36294DOPC   D2A43266  30.612   6.498  14.189 -0.0502 -0.2921  0.1649
36294DOPC   C3A43267  30.858   6.511  13.812  0.0818  0.1947  0.0022
36294DOPC   C4A43268  31.218   6.359  13.544  0.2683 -0.0330  0.0506
36294DOPC   C1B43269  29.785   6.910  14.288 -0.0640  0.1389  0.0715
36294DOPC   D2B43270  29.962   7.008  13.778  0.0945 -0.2211  0.0994
36294DOPC   C3B43271  30.179   6.968  13.355 -0.1241  0.2653  0.1946
36294DOPC   C4B43272  30.538   7.217  13.126  0.0877  0.0683 -0.1338
36295DOPC   NC343273  24.567   0.906  15.652  0.0976  0.1531  0.2683
36295DOPC   PO443274  24.756   0.595  15.760 -0.0660 -0.0590 -0.1060
36295DOPC   GL143275  24.888   0.506  15.335  0.1596 -0.3307  0.1895
36295DOPC   GL243276  24.624   0.682  15.227 -0.0735 -0.3387 -0.0586
36295DOPC   C1A43277  25.165   0.330  15.107  0.0182  0.0643  0.2269
36295DOPC   D2A43278  25.305   0.177  14.695 -0.0905  0.0093 -0.0521
36295DOPC   C3A43279  25.017   0.145  14.306 -0.0774 -0.1141  0.0344
36295DOPC   C4A43280  24.772   0.001  13.932 -0.0056 -0.0312  0.1085
36295DOPC   C1B43281  24.410   0.514  14.849 -0.1670 -0.0489 -0.1958
36295DOPC   D2B43282  24.266   0.572  14.362  0.2000 -0.1303 -0.1785
36295DOPC   C3B43283  24.153   0.858  14.066  0.1642  0.0342 -0.2686
36295DOPC   C4B43284  24.209   1.354  13.948 -0.0911  0.0647 -0.0775
36296DOPC   NC343285   5.597   3.523  15.533  0.2995 -0.0574 -0.1717
36296DOPC   PO443286   5.609   3.911  15.447 -0.3207 -0.1338 -0.0770
36296DOPC   GL143287   5.872   4.114  15.202  0.0086 -0.0395  0.1336
36296DOPC   GL243288   6.016   3.806  15.305  0.0783 -0.0425 -0.2950
36296DOPC   C1A43289   6.002   4.102  14.726  0.0772 -0.1065 -0.3214
36296DOPC   D2A43290   6.123   4.048  14.227  0.1260 -0.0032  0.2386
36296DOPC   C3A43291   6.209   4.260  13.875  0.1574 -0.2710  0.0778
36296DOPC   C4A43292   6.184   4.661  13.569  0.3695 -0.0601 -0.2104
36296DOPC   C1B43293   5.859   3.631  14.953  0.2382 -0.2438  0.1154
36296DOPC   D2B43294   5.594   3.306  14.640  0.1053 -0.1129  0.0812
36296DOPC   C3B43295   5.414   3.427  14.293 -0.1025  0.0945  0.1547
36296DOPC   C4B43296   5.295   3.587  13.815 -0.2064  0.0248 -0.0751
36297DOPC   NC343297   7.911   5.889  15.037  0.1028 -0.1308 -0.0356
36297DOPC   PO443298   8.263   6.057  15.151  0.0602 -0.1987 -0.2347
36297DOPC   GL143299   8.632   6.039  15.034  0.0940  0.3998  0.3476
36297DOPC   GL243300   8.787   5.848  15.150  0.0746 -0.4752 -0.1871
36297DOPC   C1A43301   8.784   6.000  14.636  0.3754 -0.3397  0.1745
36297DOPC   D2A43302   8.765   6.044  14.120 -0.1389 -0.3384 -0.0456
36297DOPC   C3A43303   8.961   5.954  13.666  0.2518  0.1404  0.0520
36297DOPC   C4A43304   9.055   5.792  13.265 -0.0789  0.1957 -0.1578
36297DOPC   C1B43305   8.603   5.602  14.885 -0.1150 -0.0384  0.0610
36297DOPC   D2B43306   8.618   5.543  14.388 -0.0188 -0.1779 -0.0324
36297DOPC   C3B43307   8.823   5.595  13.972  0.1447 -0.0938  0.3801
36297DOPC   C4B43308   8.941   5.360  13.548 -0.0161  0.0621 -0.0871
36298DOPC   NC343309  19.342   2.211  15.231 -0.1408 -0.0113 -0.0069
36298DOPC   PO443310  18.914   2.254  15.159 -0.2287  0.1383 -0.1345
36298DOPC   GL143311  19.050   2.379  14.783  0.0257 -0.1149 -0.2597
36298DOPC   GL243312  19.249   2.153  14.743  0.0402  0.0416  0.0407
36298DOPC   C1A43313  18.857   2.580  14.394 -0.1344  0.2692  0.0235
36298DOPC   D2A43314  18.907   2.527  13.919  0.2788  0.0166  0.2813
36298DOPC   C3A43315  18.859   2.265  13.547 -0.1336  0.2367  0.1480
36298DOPC   C4A43316  18.727   1.918  13.269  0.1407  0.0240 -0.0058
36298DOPC   C1B43317  19.051   1.760  14.638 -0.1337 -0.2184  0.1722
36298DOPC   D2B43318  18.822   1.305  14.670  0.1166  0.0379 -0.2658
36298DOPC   C3B43319  18.663   1.164  14.233  0.0485  0.2450  0.0939
36298DOPC   C4B43320  18.352   0.996  13.869 -0.1855  0.0064  0.2132
36299DOPC   NC343321  23.527   0.535  15.412 -0.1167  0.1968 -0.1103
36299DOPC   PO443322  23.580   0.897  15.589 -0.1772  0.0799 -0.0036
36299DOPC   GL143323  23.513   1.264  15.354  0.4008 -0.1741 -0.1525
36299DOPC   GL243324  23.746   1.112  15.274  0.1195  0.2089  0.1113
36299DOPC   C1A43325  23.293   1.037  15.016  0.3120 -0.0365 -0.0880
36299DOPC   D2A43326  23.219   1.155  14.526  0.0914 -0.3656 -0.2616
36299DOPC   C3A43327  22.968   1.049  14.188 -0.2043  0.0837 -0.2097
36299DOPC   C4A43328  22.582   0.867  14.039 -0.0822 -0.0342  0.1765
36299DOPC   C1B43329  23.694   1.141  14.788 -0.3326 -0.1086  0.0221
36299DOPC   D2B43330  23.850   1.167  14.322  0.1943  0.0130 -0.0034
36299DOPC   C3B43331  23.726   1.077  13.934  0.0896  0.0671 -0.1148
36299DOPC   C4B43332  23.497   0.916  13.513  0.2107 -0.1351 -0.0395
36300DOPC   NC343333   9.216   7.732  14.740  0.1198  0.1511  0.0577
36300DOPC   PO443334   9.577   7.737  14.918 -0.1994 -0.1220  0.0502
36300DOPC   GL143335   9.702   7.560  14.531 -0.2048  0.0787 -0.0982
36300DOPC   GL243336   9.475   7.693  14.346 -0.2323  0.0626 -0.1744
36300DOPC   C1A43337  10.081   7.485  14.301  0.1138 -0.0851 -0.0165
36300DOPC   D2A43338  10.397   7.271  13.961 -0.0642  0.0804 -0.1020
36300DOPC   C3A43339  10.302   7.046  13.601  0.1702 -0.0734 -0.0552
36300DOPC   C4A43340  10.272   6.863  13.138  0.0758  0.1490 -0.0638
36300DOPC   C1B43341   9.525   7.572  14.000  0.0338 -0.1039  0.0923
36300DOPC   D2B43342   9.373   7.342  13.609 -0.2071  0.0165  0.0950
36300DOPC   C3B43343   9.537   7.417  13.109 -0.0288 -0.0464 -0.1527
36300DOPC   C4B43344   9.878   7.589  12.843 -0.1180 -0.0762  0.0250
36301DOPC   NC343345   7.079   5.649  15.046  0.2548  0.0473  0.2636
36301DOPC   PO443346   7.363   5.830  14.858  0.0900  0.1222  0.4250
36301DOPC   GL143347   7.419   6.071  14.517 -0.3150  0.0407 -0.2810
36301DOPC   GL243348   7.426   5.831  14.350  0.0752  0.1427 -0.1501
36301DOPC   C1A43349   7.617   6.359  14.298  0.3231 -0.0629  0.3546
36301DOPC   D2A43350   7.682   6.912  14.207 -0.1166 -0.0780  0.0098
36301DOPC   C3A43351   7.715   7.102  13.737 -0.0197  0.2000  0.2657
36301DOPC   C4A43352   7.676   7.127  13.223  0.1082  0.2067 -0.2206
36301DOPC   C1B43353   7.493   5.954  13.919  0.3824 -0.1938 -0.0689
36301DOPC   D2B43354   7.685   6.196  13.574 -0.2755 -0.1524  0.1286
36301DOPC   C3B43355   7.593   6.624  13.366  0.0849  0.0114  0.1518
36301DOPC   C4B43356   7.267   6.961  13.552  0.1694  0.0378 -0.0224
36302DOPC   NC343357   5.488   6.087  15.063 -0.0771 -0.0535  0.0710
36302DOPC   PO443358   5.289   5.753  15.162 -0.1212  0.2501 -0.0926
36302DOPC   GL143359   5.477   5.648  14.787 -0.6248 -0.2560  0.0145
36302DOPC   GL243360   5.368   5.837  14.649  0.0344 -0.1298  0.1049
36302DOPC   C1A43361   5.468   5.375  14.427 -0.2303  0.0849  0.1996
36302DOPC   D2A43362   5.683   5.237  13.969 -0.0531 -0.0715 -0.0199
36302DOPC   C3A43363   5.293   5.034  13.758  0.1991 -0.1473 -0.0151
36302DOPC   C4A43364   5.020   4.891  13.301  0.3165 -0.0767  0.0177
36302DOPC   C1B43365   4.903   5.758  14.496  0.3608 -0.1687  0.0289
36302DOPC   D2B43366   4.762   5.862  14.063  0.0638 -0.0226  0.0850
36302DOPC   C3B43367   4.776   6.040  13.637  0.1151 -0.0128  0.0496
36302DOPC   C4B43368   4.786   6.165  13.155  0.1312  0.2964 -0.3219
36303DOPC   NC343369   6.130   1.978  15.236  0.0187  0.0438  0.0030
36303DOPC   PO443370   5.762   1.865  15.197 -0.2058  0.0934 -0.0751
36303DOPC   GL143371   5.510   1.901  14.923 -0.1675  0.0095  0.0358
36303DOPC   GL243372   5.457   2.191  14.917  0.2487 -0.2482 -0.1326
36303DOPC   C1A43373   5.686   1.796  14.543  0.2295 -0.2179  0.0775
36303DOPC   D2A43374   5.509   1.937  14.108  0.0965 -0.1535 -0.2140
36303DOPC   C3A43375   5.383   2.191  13.725  0.1607 -0.1048 -0.3075
36303DOPC   C4A43376   5.660   2.559  13.569 -0.2334 -0.0962 -0.2055
36303DOPC   C1B43377   5.534   2.259  14.492  0.0141 -0.1620 -0.1011
36303DOPC   D2B43378   5.790   2.364  14.097  0.0670 -0.3689 -0.0392
36303DOPC   C3B43379   5.711   2.844  14.005  0.0725 -0.2035 -0.0344
36303DOPC   C4B43380   5.606   3.185  13.675  0.1782 -0.2725 -0.0174
36304DOPC   NC343381  19.252   5.035  15.312 -0.1288  0.0453 -0.0177
36304DOPC   PO443382  19.106   4.682  15.254 -0.0591 -0.1072 -0.2587
36304DOPC   GL143383  19.148   4.748  14.828 -0.1344  0.0282 -0.1502
36304DOPC   GL243384  18.983   4.472  14.750  0.5870 -0.1124  0.1951
36304DOPC   C1A43385  19.460   4.716  14.481 -0.1505 -0.6670 -0.1215
36304DOPC   D2A43386  19.638   4.682  14.051  0.1451 -0.1553 -0.0522
36304DOPC   C3A43387  20.121   4.690  14.147  0.1783  0.1250  0.1285
36304DOPC   C4A43388  20.542   4.559  13.989  0.2756 -0.1312 -0.3186
36304DOPC   C1B43389  19.050   4.499  14.330  0.2899 -0.1511  0.2963
36304DOPC   D2B43390  19.144   4.882  13.960  0.1487  0.0965  0.2787
36304DOPC   C3B43391  19.451   4.815  13.551 -0.1182  0.3220 -0.0711
36304DOPC   C4B43392  19.792   4.719  13.215  0.1370  0.1340 -0.0699
36305DOPC   NC343393  15.008   6.689  14.961  0.1353  0.0245 -0.1051
36305DOPC   PO443394  14.775   6.432  14.694  0.1104  0.2276  0.2526
36305DOPC   GL143395  14.940   6.163  14.362 -0.0527  0.1816 -0.6123
36305DOPC   GL243396  14.779   6.301  14.227 -0.2665 -0.1232 -0.0610
36305DOPC   C1A43397  15.198   5.930  14.072 -0.0220  0.3810 -0.0043
36305DOPC   D2A43398  15.241   5.764  13.603 -0.0432  0.0459  0.0101
36305DOPC   C3A43399  15.010   5.652  13.249  0.1375  0.3613  0.1275
36305DOPC   C4A43400  14.573   5.532  13.240 -0.0815  0.0936 -0.1032
36305DOPC   C1B43401  14.928   6.335  13.830  0.1706 -0.0778 -0.0128
36305DOPC   D2B43402  15.219   6.239  13.443 -0.2451  0.0723 -0.0917
36305DOPC   C3B43403  15.291   5.972  13.011  0.2084 -0.0220 -0.0521
36305DOPC   C4B43404  15.347   5.824  12.491  0.1807  0.0220 -0.0053
36306DOPC   NC343405  28.688   5.236  15.762 -0.3776 -0.1455  0.2374
36306DOPC   PO443406  28.772   5.281  15.357 -0.0584  0.0884 -0.0794
36306DOPC   GL143407  28.736   5.258  14.961 -0.0063 -0.0938  0.2130
36306DOPC   GL243408  28.586   4.956  14.984  0.0326  0.3371  0.0261
36306DOPC   C1A43409  28.507   5.376  14.651 -0.1053 -0.0746 -0.0692
36306DOPC   D2A43410  28.320   5.347  14.216  0.1014 -0.1044 -0.0596
36306DOPC   C3A43411  28.180   5.513  13.783  0.3542 -0.1679  0.2354
36306DOPC   C4A43412  28.129   5.943  13.486  0.0155  0.2356  0.0276
36306DOPC   C1B43413  28.364   4.917  14.628 -0.3906 -0.0422  0.1806
36306DOPC   D2B43414  28.166   4.836  14.180  0.2970  0.0332  0.0978
36306DOPC   C3B43415  28.431   5.032  13.837 -0.2043  0.1465 -0.1574
36306DOPC   C4B43416  28.456   5.249  13.458 -0.0853 -0.1275  0.0104
36307DOPC   NC343417  19.488   0.005  15.457 -0.2249  0.0965 -0.0354
36307DOPC   PO443418  19.860   0.232  15.529  0.1224  0.0646 -0.1539
36307DOPC   GL143419  19.998   0.282  15.178 -0.1600  0.4120  0.0244
36307DOPC   GL243420  19.949   0.065  15.040 -0.2945  0.1775  0.5530
36307DOPC   C1A43421  20.389   0.357  15.032  0.1138 -0.0022  0.2293
36307DOPC   D2A43422  20.937   0.194  14.993 -0.0119  0.1634 -0.1136
36307DOPC   C3A43423  21.164  -0.265  14.939  0.2040 -0.1848 -0.1911
36307DOPC   C4A43424  21.248  -0.742  14.750  0.1837  0.1367 -0.0119
36307DOPC   C1B43425  20.068   0.094  14.635 -0.0060 -0.0874  0.0330
36307DOPC   D2B43426  20.128   0.142  14.160 -0.2391  0.1142  0.0450
36307DOPC   C3B43427  20.126   0.306  13.752  0.0858 -0.1236 -0.1495
36307DOPC   C4B43428  19.776   0.498  13.365  0.0291 -0.3880 -0.3245
36308DOPC   NC343429  18.987   0.547  15.695 -0.3052 -0.0397 -0.1738
36308DOPC   PO443430  19.389   0.462  15.664  0.0420  0.0051  0.0690
36308DOPC   GL143431  19.604   0.563  15.265 -0.3606 -0.1197 -0.1284
36308DOPC   GL243432  19.420   0.330  15.156 -0.1676  0.2248  0.1607
36308DOPC   C1A43433  19.827   0.573  14.902  0.1341  0.0359 -0.0704
36308DOPC   D2A43434  19.866   0.553  14.411 -0.3151  0.2250  0.0581
36308DOPC   C3A43435  20.176   0.855  14.199  0.1618  0.1040  0.1188
36308DOPC   C4A43436  20.153   1.109  13.787 -0.0263 -0.2387  0.1266
36308DOPC   C1B43437  19.585   0.108  14.853  0.1015 -0.2129  0.1619
36308DOPC   D2B43438  19.593   0.093  14.334 -0.2841 -0.0805 -0.0577
36308DOPC   C3B43439  19.615   0.287  13.939 -0.1544  0.0112  0.1407
36308DOPC   C4B43440  19.809   0.719  13.853  0.3098  0.0005  0.0406
36309DOPC   NC343441  17.824   2.422  15.193  0.1852 -0.1752 -0.4157
36309DOPC   PO443442  18.078   2.630  15.014 -0.0404  0.4351  0.0074
36309DOPC   GL143443  18.110   2.552  14.595 -0.0019 -0.4130  0.0972
36309DOPC   GL243444  18.425   2.573  14.507  0.0456  0.2760 -0.3599
36309DOPC   C1A43445  18.048   2.165  14.379 -0.1946  0.0733 -0.0414
36309DOPC   D2A43446  18.207   1.808  14.116 -0.2003  0.0377 -0.0359
36309DOPC   C3A43447  18.453   1.537  13.836 -0.1086  0.0559  0.3308
36309DOPC   C4A43448  18.710   1.440  13.477  0.0043  0.1014  0.2212
36309DOPC   C1B43449  18.388   2.679  14.096  0.1736 -0.1863 -0.0026
36309DOPC   D2B43450  18.458   2.680  13.623 -0.1654  0.0649  0.1938
36309DOPC   C3B43451  18.329   3.019  13.283  0.0330  0.1268  0.2254
36309DOPC   C4B43452  18.472   3.485  13.159  0.1837  0.0437  0.0361
36310DOPC   NC343453  22.200   1.604  15.850 -0.0072 -0.1492 -0.1426
36310DOPC   PO443454  22.005   1.929  15.953 -0.0128  0.1188  0.0850
36310DOPC   GL143455  21.894   2.230  15.638 -0.1240  0.1700  0.1130
36310DOPC   GL243456  21.718   2.047  15.507 -0.0274 -0.3064  0.1206
36310DOPC   C1A43457  22.150   2.149  15.281  0.0407  0.1432  0.1816
36310DOPC   D2A43458  22.489   2.145  14.925 -0.1063 -0.0036 -0.1230
36310DOPC   C3A43459  22.508   2.435  14.545  0.2332  0.0637  0.0700
36310DOPC   C4A43460  22.609   2.771  14.225 -0.0451 -0.3564 -0.2420
36310DOPC   C1B43461  21.664   2.199  15.069 -0.0922 -0.0017 -0.1817
36310DOPC   D2B43462  21.577   2.504  14.753  0.1827  0.2658  0.0457
36310DOPC   C3B43463  21.533   2.543  14.283  0.3107  0.0078  0.3213
36310DOPC   C4B43464  21.491   2.479  13.804  0.0085  0.0486 -0.0943
36311DOPC   NC343465  18.134   1.474  15.163 -0.0898  0.2041 -0.1506
36311DOPC   PO443466  17.959   1.133  15.064 -0.1656  0.2699 -0.0289
36311DOPC   GL143467  17.658   1.218  14.817 -0.3602 -0.0982 -0.1889
36311DOPC   GL243468  17.709   1.446  14.899  0.1045  0.0798  0.4343
36311DOPC   C1A43469  17.610   1.273  14.403 -0.1346 -0.0297 -0.2886
36311DOPC   D2A43470  17.429   1.026  14.039 -0.1522  0.0255 -0.0847
36311DOPC   C3A43471  17.306   0.577  13.930 -0.0391  0.1277  0.2012
36311DOPC   C4A43472  17.107   0.173  13.676 -0.0838  0.2030 -0.2124
36311DOPC   C1B43473  18.007   1.571  14.634 -0.0040 -0.2181 -0.1282
36311DOPC   D2B43474  18.485   1.691  14.591 -0.1661  0.2164 -0.1046
36311DOPC   C3B43475  18.774   1.699  14.208 -0.0230  0.2006  0.2714
36311DOPC   C4B43476  18.848   1.810  13.757  0.0291 -0.6046 -0.2082
36312DOPC   NC343477  23.586   5.348  15.927  0.4448 -0.0245 -0.3846
36312DOPC   PO443478  23.802   5.201  15.623  0.0811 -0.2867  0.1625
36312DOPC   GL143479  23.992   5.422  15.282 -0.3072  0.0373  0.0741
36312DOPC   GL243480  23.863   5.630  15.321 -0.1280  0.1212  0.1415
36312DOPC   C1A43481  24.124   5.259  14.910  0.2493  0.2949  0.1255
36312DOPC   D2A43482  24.201   5.111  14.438 -0.0341  0.1321 -0.0806
36312DOPC   C3A43483  24.035   4.943  14.034 -0.1069  0.0678 -0.0007
36312DOPC   C4A43484  23.952   5.228  13.603  0.0214  0.0236  0.0234
36312DOPC   C1B43485  23.968   5.799  14.873 -0.1006 -0.0983 -0.0270
36312DOPC   D2B43486  24.272   5.637  14.480 -0.3615 -0.0675  0.0608
36312DOPC   C3B43487  24.564   5.695  14.058 -0.0505  0.2523  0.0659
36312DOPC   C4B43488  24.740   5.940  13.634 -0.1333  0.2159 -0.2479
36313DOPC   NC343489  10.499   1.679  15.386 -0.3100  0.3658  0.4224
36313DOPC   PO443490  10.873   1.609  15.457  0.3201  0.1787  0.0930
36313DOPC   GL143491  11.214   1.586  15.121  0.5674 -0.3155  0.1617
36313DOPC   GL243492  11.044   1.843  15.030  0.1326 -0.1190  0.2317
36313DOPC   C1A43493  11.235   1.458  14.702  0.0865  0.2902 -0.1166
36313DOPC   D2A43494  11.437   1.125  14.430 -0.0184 -0.0907 -0.0643
36313DOPC   C3A43495  11.220   0.796  14.194  0.2532 -0.2454 -0.2474
36313DOPC   C4A43496  11.024   0.672  13.729  0.0923  0.0950 -0.4153
36313DOPC   C1B43497  11.313   2.171  14.806 -0.1290  0.0476 -0.2315
36313DOPC   D2B43498  11.266   2.631  14.691  0.3576 -0.0738  0.0060
36313DOPC   C3B43499  11.329   2.995  14.353 -0.3434  0.2124 -0.0973
36313DOPC   C4B43500  11.526   3.307  13.998  0.0237 -0.1182 -0.1080
36314DOPC   NC343501  20.162   3.367  15.608  0.0916  0.2045  0.0110
36314DOPC   PO443502  19.933   3.214  15.343  0.2952  0.1475 -0.1580
36314DOPC   GL143503  19.844   2.947  14.968 -0.1499 -0.0350  0.0209
36314DOPC   GL243504  19.759   3.154  14.883  0.1180  0.1095 -0.3424
36314DOPC   C1A43505  19.792   2.738  14.605 -0.1848  0.1969 -0.2984
36314DOPC   D2A43506  19.787   2.495  14.197 -0.1383  0.0630  0.2449
36314DOPC   C3A43507  19.797   2.517  13.758  0.0998 -0.0185 -0.0762
36314DOPC   C4A43508  19.738   2.488  13.214 -0.3547 -0.3122  0.0555
36314DOPC   C1B43509  19.957   3.400  14.632 -0.3673 -0.0276  0.0968
36314DOPC   D2B43510  20.145   3.498  14.223  0.0176  0.0536 -0.1150
36314DOPC   C3B43511  20.378   3.276  13.843  0.1597 -0.3223 -0.0794
36314DOPC   C4B43512  20.839   3.179  13.679  0.2500 -0.2950 -0.0784
36315DOPC   NC343513   9.033   6.831  14.627 -0.0943 -0.1245 -0.5629
36315DOPC   PO443514   8.978   6.973  15.027  0.0144 -0.1632 -0.1920
36315DOPC   GL143515   8.735   7.208  14.789  0.1819  0.3600  0.0503
36315DOPC   GL243516   8.649   7.412  14.938 -0.0969  0.0796  0.4620
36315DOPC   C1A43517   8.658   7.128  14.378  0.0315 -0.0959 -0.1984
36315DOPC   D2A43518   8.560   7.067  13.889  0.0252 -0.2093  0.1136
36315DOPC   C3A43519   8.199   7.098  13.524 -0.0297  0.4156  0.4089
36315DOPC   C4A43520   8.367   7.135  13.043  0.0989 -0.0199  0.0918
36315DOPC   C1B43521   8.754   7.690  14.573  0.1505  0.0797  0.0297
36315DOPC   D2B43522   9.028   7.945  14.312 -0.0404  0.2808  0.4981
36315DOPC   C3B43523   9.227   7.992  13.914  0.2954  0.0610 -0.1804
36315DOPC   C4B43524   9.307   7.887  13.453  0.2099 -0.1987 -0.1843
36316DOPC   NC343525   7.026   0.543  15.317 -0.1774  0.0606 -0.1744
36316DOPC   PO443526   6.717   0.382  15.102 -0.0642 -0.1097  0.1581
36316DOPC   GL143527   6.776   0.409  14.694 -0.2879 -0.0622 -0.4103
36316DOPC   GL243528   6.751   0.080  14.707 -0.0142 -0.3050 -0.2420
36316DOPC   C1A43529   7.052   0.370  14.346  0.1659  0.0142 -0.0129
36316DOPC   D2A43530   7.051   0.312  13.856 -0.0756 -0.2549 -0.1817
36316DOPC   C3A43531   7.149   0.144  13.432  0.0065 -0.0233  0.1704
36316DOPC   C4A43532   7.464  -0.099  13.162 -0.1000 -0.0239 -0.0851
36316DOPC   C1B43533   6.950  -0.100  14.334  0.0770 -0.6064  0.1384
36316DOPC   D2B43534   7.008  -0.170  13.857 -0.0256 -0.1681 -0.4557
36316DOPC   C3B43535   7.422  -0.304  13.617 -0.0715  0.0438  0.0388
36316DOPC   C4B43536   7.884  -0.254  13.590  0.1852 -0.0324  0.0134
36317DOPC   NC343537  19.297   0.893  15.515  0.3636  0.0256 -0.0891
36317DOPC   PO443538  18.880   0.964  15.491 -0.0283 -0.3179  0.0459
36317DOPC   GL143539  18.984   0.808  15.117 -0.0454  0.1019 -0.0950
36317DOPC   GL243540  19.092   0.588  15.217 -0.0570 -0.0499  0.2966
36317DOPC   C1A43541  19.218   1.024  14.711  0.0809  0.0065 -0.0886
36317DOPC   D2A43542  19.191   1.214  14.267 -0.1952  0.0456  0.0179
36317DOPC   C3A43543  19.069   1.279  13.841  0.0852 -0.0479  0.2033
36317DOPC   C4A43544  19.199   1.165  13.364 -0.2986 -0.2597 -0.0664
36317DOPC   C1B43545  19.207   0.511  14.803  0.2636 -0.2035  0.0561
36317DOPC   D2B43546  18.989   0.408  14.350  0.2565 -0.2126  0.0606
36317DOPC   C3B43547  19.039   0.328  13.879 -0.2079 -0.3005 -0.3194
36317DOPC   C4B43548  19.083   0.554  13.415  0.2306 -0.0447 -0.0869
36318DOPC   NC343549  24.858   4.667  15.994  0.0510 -0.1584  0.3008
36318DOPC   PO443550  24.580   4.561  15.730 -0.2168 -0.0451 -0.0810
36318DOPC   GL143551  24.522   4.611  15.394  0.1735  0.0561  0.1623
36318DOPC   GL243552  24.855   4.642  15.353 -0.1448  0.3403 -0.5002
36318DOPC   C1A43553  24.465   4.918  15.025  0.1280 -0.2284  0.0164
36318DOPC   D2A43554  24.598   5.268  14.737  0.1453  0.1718 -0.1113
36318DOPC   C3A43555  24.859   5.493  14.427  0.3195  0.3075  0.1715
36318DOPC   C4A43556  25.151   5.561  14.046 -0.1814  0.2423 -0.4491
36318DOPC   C1B43557  24.967   4.979  15.065  0.0019 -0.0393  0.0465
36318DOPC   D2B43558  25.210   5.185  14.742 -0.0827  0.1224 -0.0377
36318DOPC   C3B43559  25.437   5.505  14.447 -0.0302 -0.2575 -0.1126
36318DOPC   C4B43560  25.577   5.818  14.082  0.3304 -0.1544 -0.0177
36319DOPC   NC343561   6.039   6.370  15.419 -0.2800 -0.2644 -0.1866
36319DOPC   PO443562   5.751   6.467  15.162  0.0447 -0.0706 -0.3636
36319DOPC   GL143563   5.715   6.594  14.788 -0.1636  0.0919 -0.0027
36319DOPC   GL243564   5.721   6.340  14.668  0.1816  0.2640  0.0136
36319DOPC   C1A43565   5.840   6.780  14.418  0.1468 -0.0126 -0.2681
36319DOPC   D2A43566   6.028   6.640  13.991  0.0792 -0.0736 -0.0610
36319DOPC   C3A43567   6.427   6.445  13.888 -0.1601  0.0109  0.0370
36319DOPC   C4A43568   6.746   6.182  13.627  0.0182 -0.0320 -0.2714
36319DOPC   C1B43569   5.596   6.412  14.222 -0.1529  0.0646  0.1102
36319DOPC   D2B43570   5.589   6.251  13.746  0.1954 -0.1601  0.1742
36319DOPC   C3B43571   5.544   6.358  13.266 -0.0638  0.0454  0.2062
36319DOPC   C4B43572   5.863   6.708  13.069 -0.1660  0.4255 -0.0281
36320DOPC   NC343573   1.148   6.197  15.061  0.2397  0.0549 -0.0123
36320DOPC   PO443574   1.058   5.817  15.161  0.2821 -0.0020 -0.0823
36320DOPC   GL143575   0.687   5.828  14.951 -0.1773  0.3933  0.0279
36320DOPC   GL243576   0.761   5.617  14.818 -0.0519 -0.3229 -0.2823
36320DOPC   C1A43577   0.698   6.023  14.571  0.2686 -0.2739  0.1284
36320DOPC   D2A43578   0.843   5.890  14.121  0.0372 -0.0394 -0.0843
36320DOPC   C3A43579   0.844   5.893  13.650 -0.0867 -0.0174 -0.3245
36320DOPC   C4A43580   0.867   5.956  13.192  0.0044  0.1170 -0.0157
36320DOPC   C1B43581   0.572   5.495  14.496  0.2083 -0.0226  0.1579
36320DOPC   D2B43582   0.566   5.138  14.190 -0.0772  0.0807 -0.0781
36320DOPC   C3B43583   0.510   4.879  13.824 -0.2807  0.0973  0.0561
36320DOPC   C4B43584   0.652   4.680  13.415 -0.0835  0.2366  0.1099
36321DOPC   NC343585  13.025   7.179  15.452 -0.1078  0.2060 -0.4153
36321DOPC   PO443586  13.127   7.558  15.338 -0.0253  0.0604 -0.1966
36321DOPC   GL143587  13.226   7.675  14.972 -0.3963  0.1983 -0.1823
36321DOPC   GL243588  13.211   7.453  14.772  0.0818  0.3335  0.1850
36321DOPC   C1A43589  13.106   7.941  14.735  0.3608  0.2936  0.0758
36321DOPC   D2A43590  12.862   7.959  14.378  0.2596 -0.2815 -0.0071
36321DOPC   C3A43591  12.547   7.914  14.115 -0.0521  0.0997  0.0562
36321DOPC   C4A43592  12.169   7.732  13.922  0.0992  0.0873 -0.0827
36321DOPC   C1B43593  13.008   7.434  14.390 -0.2123 -0.0258  0.0732
36321DOPC   D2B43594  12.964   7.526  13.932  0.0278 -0.0612 -0.2850
36321DOPC   C3B43595  12.771   7.826  13.555  0.1603 -0.2338  0.3822
36321DOPC   C4B43596  12.629   8.167  13.261 -0.2574  0.2183  0.2868
36322DOPA   PO443597   4.445   6.719  15.191 -0.1572  0.0372  0.2292
36322DOPA   GL143598   4.485   6.416  14.794  0.2396  0.1092 -0.2856
36322DOPA   GL243599   4.847   6.464  14.894 -0.0611 -0.2923  0.0486
36322DOPA   C1A43600   4.215   6.455  14.453 -0.0344  0.0741  0.2268
36322DOPA   D2A43601   3.759   6.582  14.319 -0.1429  0.1522 -0.0405
36322DOPA   C3A43602   3.489   6.857  14.021  0.1751  0.2145 -0.3335
36322DOPA   C4A43603   3.129   7.141  13.892  0.1063 -0.0392  0.2134
36322DOPA   C1B43604   4.866   6.683  14.597 -0.3842 -0.1849 -0.0274
36322DOPA   D2B43605   5.074   6.582  14.121  0.0218 -0.0358  0.0323
36322DOPA   C3B43606   5.175   6.483  13.666 -0.0530  0.2311  0.0193
36322DOPA   C4B43607   5.071   6.536  13.160 -0.0187  0.0473  0.1352
36323DOPA   PO443608  25.431   7.504  15.751 -0.0834 -0.4210 -0.1367
36323DOPA   GL143609  25.428   7.278  15.395 -0.0969  0.4382  0.1428
36323DOPA   GL243610  25.727   7.443  15.407  0.1427  0.3397  0.1705
36323DOPA   C1A43611  25.154   7.246  15.089  0.2229 -0.1617  0.2822
36323DOPA   D2A43612  25.064   7.505  14.622  0.2764  0.1137 -0.0915
36323DOPA   C3A43613  25.169   7.486  14.181 -0.1061  0.1682  0.3449
36323DOPA   C4A43614  25.245   7.806  13.751  0.0392 -0.1807 -0.2397
36323DOPA   C1B43615  25.914   7.277  14.990 -0.0181  0.2906 -0.0196
36323DOPA   D2B43616  25.840   6.987  14.641  0.0379  0.0426 -0.2652
36323DOPA   C3B43617  26.182   6.813  14.546 -0.0326 -0.0375 -0.0441
36323DOPA   C4B43618  26.623   6.803  14.789 -0.0516 -0.2095 -0.2210
36324DOPA   PO443619  31.158   4.340  15.244 -0.2612  0.0491 -0.0716
36324DOPA   GL143620  31.307   4.278  14.852 -0.2565 -0.4222  0.2104
36324DOPA   GL243621  31.153   3.992  14.831 -0.2556  0.0601 -0.0972
36324DOPA   C1A43622  31.518   4.410  14.437 -0.0823 -0.0424 -0.0414
36324DOPA   D2A43623  31.708   4.455  14.024  0.1624  0.0298 -0.1583
36324DOPA   C3A43624  31.670   4.269  13.654 -0.0796  0.0603  0.1806
36324DOPA   C4A43625  31.715   4.136  13.177 -0.0464 -0.4550 -0.2701
36324DOPA   C1B43626  30.928   3.746  14.624  0.1669  0.0182  0.4431
36324DOPA   D2B43627  30.810   3.676  14.169 -0.0716  0.2118 -0.0164
36324DOPA   C3B43628  30.399   3.697  13.912  0.0612  0.1417 -0.1819
36324DOPA   C4B43629  29.894   3.569  13.769 -0.0780  0.0814  0.0127
36325DOPA   PO443630  10.415   0.357  14.878  0.1305 -0.0566 -0.2057
36325DOPA   GL143631  10.647   0.370  14.597  0.1043  0.0884 -0.0483
36325DOPA   GL243632  10.901   0.364  14.581 -0.2150  0.2128  0.1450
36325DOPA   C1A43633  10.643   0.524  14.181  0.0478  0.0668  0.0945
36325DOPA   D2A43634  10.516   0.689  13.725  0.3266  0.0062 -0.1392
36325DOPA   C3A43635  10.268   0.375  13.400 -0.2373  0.0424  0.3168
36325DOPA   C4A43636  10.244   0.094  13.011  0.2629 -0.1070  0.0193
36325DOPA   C1B43637  11.046   0.222  14.195  0.0144  0.0433 -0.2544
36325DOPA   D2B43638  11.302   0.241  13.775  0.1924 -0.2227 -0.0426
36325DOPA   C3B43639  11.480   0.483  13.391 -0.2410  0.0079 -0.1609
36325DOPA   C4B43640  11.800   0.618  13.062 -0.2594  0.1279 -0.1044
36326DOPA   PO443641   1.215   4.389  15.060 -0.0887 -0.1192 -0.1358
36326DOPA   GL143642   1.278   4.413  14.645  0.5050 -0.2586  0.1069
36326DOPA   GL243643   1.095   4.611  14.638  0.2228  0.0760 -0.3201
36326DOPA   C1A43644   1.288   4.340  14.251 -0.0810  0.1128  0.1775
36326DOPA   D2A43645   1.524   4.333  13.779 -0.1238  0.1410  0.1187
36326DOPA   C3A43646   1.414   4.570  13.422  0.1792  0.3009 -0.1807
36326DOPA   C4A43647   1.426   4.748  12.966 -0.0662 -0.2110 -0.0563
36326DOPA   C1B43648   0.612   4.768  14.547 -0.0814  0.0811  0.1540
36326DOPA   D2B43649   0.265   5.059  14.559 -0.0392  0.3243 -0.1917
36326DOPA   C3B43650   0.167   4.882  14.158 -0.0659 -0.0345 -0.0735
36326DOPA   C4B43651   0.020   4.725  13.695 -0.1158  0.1551  0.0309
36327DOPA   PO443652  22.678   5.399  15.310 -0.1944 -0.0786  0.0660
36327DOPA   GL143653  22.913   5.540  15.029  0.3475  0.0509  0.0875
36327DOPA   GL243654  23.157   5.397  15.106 -0.2189  0.1551 -0.0996
36327DOPA   C1A43655  23.006   5.635  14.597  0.0500 -0.0305 -0.0343
36327DOPA   D2A43656  22.843   5.600  14.094  0.0833 -0.1901  0.0617
36327DOPA   C3A43657  22.514   5.322  13.853  0.1512  0.1038 -0.5225
36327DOPA   C4A43658  22.038   5.364  13.764 -0.0367 -0.3482 -0.2865
36327DOPA   C1B43659  23.326   5.256  14.710 -0.3590 -0.0462  0.0561
36327DOPA   D2B43660  23.546   5.063  14.308  0.1271 -0.2571 -0.1180
36327DOPA   C3B43661  23.504   5.086  13.902  0.0302 -0.1882 -0.0798
36327DOPA   C4B43662  23.303   5.132  13.479  0.0101  0.0405 -0.2521
36328DOPA   PO443663  25.496   6.444  15.813 -0.1455  0.0336 -0.1064
36328DOPA   GL143664  25.419   6.207  15.524 -0.0874  0.1218 -0.0159
36328DOPA   GL243665  25.587   6.443  15.299 -0.0885 -0.0762  0.0308
36328DOPA   C1A43666  25.230   6.102  15.114 -0.0968  0.0404  0.1725
36328DOPA   D2A43667  25.233   5.881  14.720 -0.0078  0.3087  0.1141
36328DOPA   C3A43668  25.382   6.176  14.401 -0.1090  0.2664 -0.0791
36328DOPA   C4A43669  25.643   6.314  14.016  0.0869 -0.0309 -0.2136
36328DOPA   C1B43670  25.521   6.390  14.826 -0.1729  0.0632  0.0104
36328DOPA   D2B43671  25.618   6.620  14.436 -0.0572  0.1619  0.0294
36328DOPA   C3B43672  25.822   6.749  14.009  0.1616  0.2013 -0.2916
36328DOPA   C4B43673  25.792   6.953  13.595 -0.1509 -0.0357 -0.1184
36329DOPA   PO443674  27.877   4.823  15.254 -0.0712 -0.2735 -0.3958
36329DOPA   GL143675  27.938   4.810  14.793  0.2831  0.0200  0.3097
36329DOPA   GL243676  27.996   5.050  14.858  0.1777  0.3626  0.4191
36329DOPA   C1A43677  27.628   4.789  14.490 -0.0330 -0.0845 -0.0667
36329DOPA   D2A43678  27.604   4.641  14.012  0.0277  0.0893 -0.2181
36329DOPA   C3A43679  27.522   4.749  13.551 -0.0323  0.0429  0.0110
36329DOPA   C4A43680  27.618   4.782  13.071 -0.0901 -0.0839 -0.1990
36329DOPA   C1B43681  27.898   5.239  14.472  0.3251  0.1586  0.1700
36329DOPA   D2B43682  27.769   5.173  13.983  0.1784  0.0382 -0.3552
36329DOPA   C3B43683  27.715   5.506  13.636 -0.0706  0.2309 -0.2340
36329DOPA   C4B43684  27.640   5.736  13.180  0.1081  0.0543 -0.1018
36330DOPA   PO443685  22.477   3.939  15.440  0.0757  0.1602 -0.1686
36330DOPA   GL143686  22.255   3.909  15.110  0.0259 -0.0854  0.0315
36330DOPA   GL243687  22.146   3.626  15.182 -0.0041 -0.0644 -0.0140
36330DOPA   C1A43688  21.948   4.055  14.920  0.2882 -0.1818  0.5651
36330DOPA   D2A43689  21.614   4.412  14.770 -0.0006 -0.4374 -0.0830
36330DOPA   C3A43690  21.809   4.519  14.376 -0.0707  0.2042 -0.1288
36330DOPA   C4A43691  22.193   4.535  14.110 -0.0647 -0.0845  0.0473
36330DOPA   C1B43692  22.253   3.432  14.802 -0.0247  0.1678 -0.0776
36330DOPA   D2B43693  22.705   3.622  14.635  0.0433  0.2633 -0.1110
36330DOPA   C3B43694  22.987   3.689  14.280  0.1760 -0.0688  0.0840
36330DOPA   C4B43695  23.469   3.602  14.002 -0.0363 -0.1180 -0.0636
36331DOPA   PO443696  17.641   4.417  14.955  0.1987 -0.0282 -0.0415
36331DOPA   GL143697  17.925   4.316  14.722  0.1226  0.3586 -0.0195
36331DOPA   GL243698  17.727   4.091  14.614  0.5874  0.3853  0.2788
36331DOPA   C1A43699  18.100   4.301  14.308 -0.0799  0.1822 -0.1413
36331DOPA   D2A43700  18.300   4.044  13.912 -0.0089  0.0818  0.0137
36331DOPA   C3A43701  18.703   4.174  13.633 -0.5210  0.1662  0.0726
36331DOPA   C4A43702  18.639   4.491  13.218 -0.0429  0.0970  0.0972
36331DOPA   C1B43703  17.704   3.980  14.147 -0.2336 -0.1201  0.0705
36331DOPA   D2B43704  17.525   3.750  13.737  0.0038  0.6148 -0.1990
36331DOPA   C3B43705  17.563   3.603  13.311  0.0684  0.3831  0.0519
36331DOPA   C4B43706  17.447   3.538  12.782 -0.0379 -0.0240 -0.1602
36332DOPA   PO443707   7.093   5.160  14.945  0.0775 -0.1721 -0.0707
36332DOPA   GL143708   7.461   5.160  14.651  0.0910  0.0421 -0.2205
36332DOPA   GL243709   7.253   5.453  14.614  0.1483  0.4059 -0.0886
36332DOPA   C1A43710   7.482   4.830  14.259  0.0297  0.0174 -0.0623
36332DOPA   D2A43711   7.321   4.582  13.933 -0.2187 -0.2365 -0.1512
36332DOPA   C3A43712   7.605   4.267  13.710 -0.2565  0.0877 -0.0177
36332DOPA   C4A43713   7.681   3.807  13.801 -0.0651  0.1472 -0.2269
36332DOPA   C1B43714   7.326   5.454  14.110  0.2583 -0.1235  0.0291
36332DOPA   D2B43715   7.526   5.472  13.650 -0.1295  0.1670 -0.1601
36332DOPA   C3B43716   7.263   5.532  13.251  0.4407 -0.2952 -0.0733
36332DOPA   C4B43717   6.790   5.809  13.254 -0.2009 -0.2397  0.0100
36333DOPA   PO443718  16.542   2.777  15.049 -0.0931  0.0561  0.1023
36333DOPA   GL143719  16.552   2.973  14.614  0.0930  0.1210  0.0044
36333DOPA   GL243720  16.806   2.837  14.663  0.2380 -0.0910 -0.1323
36333DOPA   C1A43721  16.450   2.794  14.209 -0.1629 -0.0507  0.2500
36333DOPA   D2A43722  16.490   2.493  13.810  0.0193  0.0068 -0.0744
36333DOPA   C3A43723  16.598   2.424  13.352  0.1335  0.0775  0.1465
36333DOPA   C4A43724  16.567   2.495  12.863  0.1010  0.1939 -0.0018
36333DOPA   C1B43725  17.227   2.830  14.565 -0.0420  0.0836  0.0966
36333DOPA   D2B43726  17.707   2.920  14.492 -0.1240  0.0220 -0.0174
36333DOPA   C3B43727  17.829   2.839  14.061 -0.0373 -0.0707 -0.0253
36333DOPA   C4B43728  17.940   2.488  13.757 -0.0326  0.0211 -0.2736
36334DOPA   PO443729   8.798   1.897  15.311 -0.0529  0.3189  0.0578
36334DOPA   GL143730   8.631   2.137  15.017  0.1722  0.0059  0.2761
36334DOPA   GL243731   8.778   1.996  14.799 -0.1140  0.3735  0.1110
36334DOPA   C1A43732   8.278   2.087  14.752 -0.2678  0.0764  0.1905
36334DOPA   D2A43733   8.022   2.130  14.304 -0.0587 -0.1539  0.1053
36334DOPA   C3A43734   7.797   2.085  13.912 -0.0114 -0.0654  0.0901
36334DOPA   C4A43735   7.632   2.000  13.466 -0.0614  0.2075  0.0843
36334DOPA   C1B43736   8.626   2.091  14.412  0.2144  0.0428 -0.0742
36334DOPA   D2B43737   8.799   2.366  14.035 -0.2000  0.2066  0.0317
36334DOPA   C3B43738   8.509   2.725  13.846 -0.1994  0.0965 -0.0077
36334DOPA   C4B43739   8.050   2.872  13.548  0.1194  0.0194  0.3301
36335DOPA   PO443740  27.576   3.006  15.474  0.0729 -0.0869  0.1478
36335DOPA   GL143741  27.548   2.957  15.049  0.2116 -0.0349  0.0791
36335DOPA   GL243742  27.810   2.747  15.118 -0.0274  0.0805 -0.1111
36335DOPA   C1A43743  27.273   2.717  14.790 -0.2350  0.0932  0.3103
36335DOPA   D2A43744  27.062   2.459  14.463  0.5569 -0.1213 -0.0110
36335DOPA   C3A43745  27.075   2.386  13.953 -0.0589 -0.2246  0.0125
36335DOPA   C4A43746  26.852   2.348  13.514 -0.0760  0.0641  0.1143
36335DOPA   C1B43747  27.828   2.435  14.832  0.0800 -0.4652  0.0107
36335DOPA   D2B43748  27.901   2.076  14.502  0.1912 -0.0769 -0.0364
36335DOPA   C3B43749  27.744   1.669  14.469  0.1470  0.0179  0.0424
36335DOPA   C4B43750  27.772   1.142  14.295  0.0746 -0.0974  0.2459
36336DOPA   PO443751  22.191   1.120  15.642  0.1431  0.0871  0.1844
36336DOPA   GL143752  22.218   1.366  15.315  0.1970 -0.1902  0.1071
36336DOPA   GL243753  22.136   1.245  15.106  0.0122 -0.3854 -0.1113
36336DOPA   C1A43754  22.474   1.599  15.021  0.1270  0.0285  0.0101
36336DOPA   D2A43755  22.429   1.744  14.540  0.2992  0.2732 -0.2517
36336DOPA   C3A43756  22.647   1.991  14.305 -0.1899  0.0244 -0.1251
36336DOPA   C4A43757  22.901   2.359  14.170  0.1082 -0.0020 -0.2370
36336DOPA   C1B43758  22.098   1.383  14.674 -0.1825  0.0315 -0.0596
36336DOPA   D2B43759  21.867   1.666  14.313  0.0590  0.1356  0.2458
36336DOPA   C3B43760  22.174   1.839  13.915  0.0265  0.2375 -0.0227
36336DOPA   C4B43761  22.618   1.923  13.715 -0.0142 -0.0276 -0.1170
36337DOPA   PO443762  29.135   5.536  15.061  0.2436 -0.0323 -0.1126
36337DOPA   GL143763  29.098   5.878  14.732  0.3671 -0.1553  0.0379
36337DOPA   GL243764  28.868   5.966  14.909  0.1569  0.0563 -0.1304
36337DOPA   C1A43765  29.078   6.051  14.270 -0.4556  0.1083 -0.2055
36337DOPA   D2A43766  28.934   6.110  13.783 -0.3786  0.0326 -0.1287
36337DOPA   C3A43767  28.954   6.117  13.286 -0.1444 -0.1962  0.2016
36337DOPA   C4A43768  28.817   6.418  12.948  0.1152 -0.0392 -0.2389
36337DOPA   C1B43769  28.625   5.878  14.546  0.0167  0.2212  0.1137
36337DOPA   D2B43770  28.535   5.762  14.117 -0.2062 -0.1686  0.1556
36337DOPA   C3B43771  28.642   5.756  13.661 -0.1651  0.1541  0.0928
36337DOPA   C4B43772  28.505   5.687  13.226  0.0186 -0.2085  0.1454
36338DOPA   PO443773  18.110   4.386  15.162 -0.2335  0.0098 -0.0945
36338DOPA   GL143774  18.324   4.243  14.869  0.0091  0.0503  0.0789
36338DOPA   GL243775  18.232   3.987  14.767  0.2795 -0.2114  0.2367
36338DOPA   C1A43776  18.551   4.351  14.526  0.0901 -0.0297  0.1239
36338DOPA   D2A43777  18.595   4.532  14.045  0.0315 -0.0307  0.0325
36338DOPA   C3A43778  18.754   4.766  13.678 -0.1381 -0.1175 -0.1155
36338DOPA   C4A43779  18.983   5.033  13.318  0.1859  0.0790  0.0415
36338DOPA   C1B43780  18.140   3.801  14.323 -0.1090 -0.4616 -0.2320
36338DOPA   D2B43781  18.030   3.607  13.913 -0.2234  0.0036 -0.0086
36338DOPA   C3B43782  17.977   3.823  13.505 -0.0836 -0.3313 -0.1873
36338DOPA   C4B43783  17.759   4.154  13.152  0.0540  0.1216  0.2441
36339DOPA   PO443784  15.621   1.419  15.083  0.0265  0.0662  0.0357
36339DOPA   GL143785  15.505   1.727  14.737 -0.2220 -0.0361  0.1203
36339DOPA   GL243786  15.397   1.501  14.593 -0.2408 -0.2363  0.1070
36339DOPA   C1A43787  15.740   1.920  14.430 -0.0805 -0.0477  0.0841
36339DOPA   D2A43788  15.964   2.028  13.971  0.1477  0.0165 -0.0882
36339DOPA   C3A43789  15.836   2.085  13.538 -0.3486 -0.5494  0.0151
36339DOPA   C4A43790  15.724   2.247  13.070  0.0138  0.1390 -0.1369
36339DOPA   C1B43791  15.376   1.537  14.142 -0.1787 -0.1018  0.1494
36339DOPA   D2B43792  15.492   1.760  13.700  0.2385  0.3783  0.4115
36339DOPA   C3B43793  15.366   1.955  13.244 -0.0928  0.2834  0.0678
36339DOPA   C4B43794  15.221   2.252  12.852  0.1517  0.0926 -0.1154
36340DOPA   PO443795   7.986   3.635  15.425 -0.1057  0.1491  0.1613
36340DOPA   GL143796   7.551   3.748  15.186 -0.1055  0.0208 -0.4689
36340DOPA   GL243797   7.699   3.760  14.914  0.4856 -0.1032 -0.0367
36340DOPA   C1A43798   7.221   3.591  14.906 -0.3108  0.1169  0.1110
36340DOPA   D2A43799   6.773   3.355  14.782  0.0999  0.0490  0.0529
36340DOPA   C3A43800   6.725   3.609  14.434  0.0998 -0.1161  0.1369
36340DOPA   C4A43801   6.855   3.595  13.945 -0.1859  0.2552  0.4961
36340DOPA   C1B43802   7.712   3.373  14.648  0.1898  0.1086 -0.0206
36340DOPA   D2B43803   7.635   2.991  14.410 -0.0963 -0.1310 -0.2022
36340DOPA   C3B43804   7.415   2.837  13.997 -0.0086  0.2131 -0.1539
36340DOPA   C4B43805   6.991   2.612  13.696 -0.0065  0.0861  0.0934
36341DOPA   PO443806  19.581   1.254  15.289 -0.0560 -0.0721  0.2669
36341DOPA   GL143807  19.624   1.006  15.038 -0.5560 -0.1415  0.2338
36341DOPA   GL243808  19.966   0.925  15.095  0.1092  0.3022 -0.2633
36341DOPA   C1A43809  19.692   0.961  14.565 -0.0239 -0.0018  0.1298
36341DOPA   D2A43810  19.410   0.663  14.297 -0.0700  0.1238  0.1889
36341DOPA   C3A43811  18.979   0.805  14.053  0.2413  0.0238  0.0275
36341DOPA   C4A43812  18.740   0.970  13.632  0.2706 -0.0318  0.1273
36341DOPA   C1B43813  20.237   0.811  14.721  0.0909  0.2090  0.0382
36341DOPA   D2B43814  20.435   0.493  14.433  0.3546  0.0563  0.2610
36341DOPA   C3B43815  20.764   0.857  14.305  0.3542 -0.1992  0.1538
36341DOPA   C4B43816  20.973   1.268  14.382 -0.0568  0.2424 -0.1691
36342DOPA   PO443817   8.989   3.946  15.331  0.2595  0.0786 -0.0539
36342DOPA   GL143818   8.998   3.931  14.938  0.0177  0.1159 -0.2182
36342DOPA   GL243819   8.994   4.272  14.925  0.2539 -0.0515 -0.2699
36342DOPA   C1A43820   9.091   3.675  14.562 -0.0677  0.0094  0.0253
36342DOPA   D2A43821   9.572   3.521  14.462 -0.2865  0.2010 -0.0990
36342DOPA   C3A43822   9.883   3.350  14.131  0.0457 -0.2597  0.2569
36342DOPA   C4A43823  10.024   3.038  13.819 -0.0754  0.1920 -0.0229
36342DOPA   C1B43824   8.694   4.422  14.624  0.1514 -0.1692 -0.1344
36342DOPA   D2B43825   8.443   4.422  14.228  0.0027  0.0151 -0.1067
36342DOPA   C3B43826   8.538   4.189  13.830  0.0732  0.2205  0.1829
36342DOPA   C4B43827   8.354   3.958  13.403 -0.1409 -0.0139 -0.1553
36343DOPA   PO443828  12.928   5.849  15.050  0.2686  0.0343 -0.0307
36343DOPA   GL143829  12.863   5.968  14.629 -0.1498  0.0323 -0.0199
36343DOPA   GL243830  13.084   5.854  14.594 -0.0039 -0.2121 -0.5998
36343DOPA   C1A43831  12.633   5.807  14.283 -0.1006  0.1368 -0.0029
36343DOPA   D2A43832  12.545   5.577  13.866  0.2386 -0.0930  0.1095
36343DOPA   C3A43833  12.333   5.760  13.577 -0.1991 -0.1123 -0.3086
36343DOPA   C4A43834  12.022   6.043  13.294 -0.0048  0.1687  0.0134
36343DOPA   C1B43835  13.229   5.854  14.211 -0.1611 -0.0596 -0.1012
36343DOPA   D2B43836  13.184   5.879  13.694  0.4066  0.1760 -0.2143
36343DOPA   C3B43837  12.849   5.766  13.357  0.0368 -0.0332 -0.0687
36343DOPA   C4B43838  12.424   5.808  13.051 -0.3299 -0.2073  0.0721
36344DOPA   PO443839  28.073   4.285  15.353 -0.2233 -0.2879  0.0096
36344DOPA   GL143840  28.327   4.291  15.056 -0.0553 -0.0046 -0.2217
36344DOPA   GL243841  28.262   4.554  14.911 -0.0934 -0.0540 -0.2023
36344DOPA   C1A43842  28.493   3.992  14.732  0.0565  0.3263  0.1006
36344DOPA   D2A43843  28.488   3.950  14.294  0.1690 -0.3423  0.3976
36344DOPA   C3A43844  28.822   4.081  13.976  0.0659 -0.1351 -0.1667
36344DOPA   C4A43845  29.048   4.118  13.593 -0.3221 -0.0021 -0.0482
36344DOPA   C1B43846  28.221   4.442  14.538  0.1854 -0.0355 -0.3938
36344DOPA   D2B43847  28.168   4.347  14.060  0.3071  0.1431 -0.2978
36344DOPA   C3B43848  28.011   4.591  13.726 -0.1517 -0.1607  0.2243
36344DOPA   C4B43849  27.980   5.050  13.514  0.2227  0.0807 -0.0547
36345DOPA   PO443850  30.148   0.626  15.174 -0.0972 -0.0919  0.1022
36345DOPA   GL143851  30.125   0.436  14.805 -0.3668  0.1829  0.0415
36345DOPA   GL243852  30.254   0.696  14.696 -0.1553  0.1097 -0.1736
36345DOPA   C1A43853  29.890   0.424  14.425 -0.1216  0.0051  0.1352
36345DOPA   D2A43854  29.417   0.397  14.362  0.0710  0.0070  0.1069
36345DOPA   C3A43855  28.992   0.508  14.546  0.2542  0.3110  0.2617
36345DOPA   C4A43856  28.703   0.861  14.814  0.0496  0.0378  0.0941
36345DOPA   C1B43857  30.252   0.676  14.221  0.0554  0.1896 -0.2236
36345DOPA   D2B43858  30.316   0.594  13.725  0.2107 -0.1494 -0.0494
36345DOPA   C3B43859  30.187   0.717  13.310  0.2117 -0.0055  0.1704
36345DOPA   C4B43860  29.949   1.100  13.041 -0.3204  0.0789  0.2302
36346DOPA   PO443861  16.842   1.368  15.123 -0.3653 -0.2584 -0.0056
36346DOPA   GL143862  17.253   1.347  14.952  0.2370  0.0512  0.2560
36346DOPA   GL243863  17.081   1.493  14.794  0.2329  0.0005 -0.0740
36346DOPA   C1A43864  17.206   1.044  14.570 -0.1480  0.0411  0.0527
36346DOPA   D2A43865  16.921   1.055  14.120  0.2294 -0.0039  0.2076
36346DOPA   C3A43866  16.945   0.866  13.740 -0.0853  0.2037 -0.0280
36346DOPA   C4A43867  16.992   0.724  13.298  0.4393  0.0813 -0.1745
36346DOPA   C1B43868  17.163   1.478  14.387 -0.2459  0.0589  0.2091
36346DOPA   D2B43869  17.372   1.637  13.935 -0.1853 -0.0397 -0.3199
36346DOPA   C3B43870  17.430   1.314  13.588  0.0630 -0.1633 -0.2118
36346DOPA   C4B43871  17.433   0.851  13.517 -0.1155 -0.0413  0.0746
36347DOPC   NC343872  21.648   1.475  11.894  0.0393 -0.0631 -0.2844
36347DOPC   PO443873  21.693   1.097  11.917 -0.0412 -0.2243  0.0476
36347DOPC   GL143874  21.687   0.872  12.315 -0.0710  0.1094  0.0898
36347DOPC   GL243875  21.941   0.867  12.201 -0.1556  0.2049 -0.2646
36347DOPC   C1A43876  21.577   0.769  12.727  0.0691  0.1991  0.1555
36347DOPC   D2A43877  21.343   0.887  13.171  0.0782 -0.1610 -0.1787
36347DOPC   C3A43878  21.448   1.291  13.338  0.1457  0.1339 -0.1229
36347DOPC   C4A43879  21.259   1.485  13.715 -0.1012 -0.1661  0.1564
36347DOPC   C1B43880  22.230   0.746  12.491 -0.1834  0.0512  0.2618
36347DOPC   D2B43881  22.557   0.539  12.777 -0.2057  0.1086 -0.2128
36347DOPC   C3B43882  22.688   0.460  13.232 -0.0240 -0.1635 -0.0671
36347DOPC   C4B43883  22.590   0.492  13.688 -0.2067 -0.2552 -0.0429
36348DOPC   NC343884  17.402   7.571  10.902 -0.1253 -0.0377 -0.0713
36348DOPC   PO443885  17.114   7.378  10.766  0.0413  0.0962 -0.0399
36348DOPC   GL143886  16.783   7.296  11.119  0.1299  0.1503  0.1791
36348DOPC   GL243887  16.714   7.605  11.041  0.2282  0.1646  0.2005
36348DOPC   C1A43888  16.459   7.045  11.356 -0.0648 -0.1613  0.3773
36348DOPC   D2A43889  16.013   6.799  11.246 -0.0935  0.0007 -0.0751
36348DOPC   C3A43890  15.838   6.634  11.663 -0.1223  0.2490  0.0498
36348DOPC   C4A43891  15.777   6.382  12.142  0.0381 -0.0200  0.0287
36348DOPC   C1B43892  16.635   7.824  11.425 -0.1760 -0.0685  0.1138
36348DOPC   D2B43893  16.568   7.871  11.917 -0.1519 -0.3908 -0.0494
36348DOPC   C3B43894  16.342   7.975  12.290 -0.1752  0.1027  0.0388
36348DOPC   C4B43895  16.070   8.160  12.707  0.1920 -0.3185  0.0104
36349DOPC   NC343896  24.715   5.413  10.979  0.1196  0.1358  0.0622
36349DOPC   PO443897  24.766   5.536  11.319  0.0489  0.1140 -0.0180
36349DOPC   GL143898  25.000   5.462  11.626 -0.0868 -0.2593  0.1043
36349DOPC   GL243899  25.094   5.724  11.675 -0.0107  0.1280  0.2527
36349DOPC   C1A43900  24.842   5.495  12.041 -0.0725 -0.1327  0.0103
36349DOPC   D2A43901  24.780   5.617  12.531  0.0363  0.1257 -0.0724
36349DOPC   C3A43902  25.119   5.831  12.689 -0.1816  0.1837 -0.2630
36349DOPC   C4A43903  25.231   6.307  12.833  0.1711 -0.2680 -0.3806
36349DOPC   C1B43904  25.053   5.943  11.999  0.1494  0.1939  0.1054
36349DOPC   D2B43905  24.891   6.151  12.392 -0.1660 -0.2330 -0.2851
36349DOPC   C3B43906  25.063   6.610  12.316  0.1134  0.1548 -0.0200
36349DOPC   C4B43907  25.176   7.029  12.522  0.0169  0.0585  0.1558
36350DOPC   NC343908  10.754   1.419  10.909  0.0581 -0.1084  0.0884
36350DOPC   PO443909  10.974   1.717  11.078  0.0961 -0.0627  0.2754
36350DOPC   GL143910  11.180   1.620  11.457 -0.4331 -0.4420 -0.4487
36350DOPC   GL243911  10.897   1.595  11.596  0.4037 -0.1125 -0.1613
36350DOPC   C1A43912  11.285   1.694  11.918  0.3148 -0.0783  0.1272
36350DOPC   D2A43913  11.322   1.539  12.401  0.0553 -0.1691 -0.1730
36350DOPC   C3A43914  11.126   1.796  12.812  0.2433 -0.0872  0.4071
36350DOPC   C4A43915  11.238   1.994  13.271 -0.0229 -0.1041 -0.0096
36350DOPC   C1B43916  10.736   1.364  11.922 -0.0430 -0.1644  0.1146
36350DOPC   D2B43917  10.790   1.285  12.392  0.2486  0.4895  0.0001
36350DOPC   C3B43918  10.743   1.370  12.868 -0.1298  0.1156 -0.3446
36350DOPC   C4B43919  11.052   1.381  13.280  0.1237  0.0274  0.3455
36351DOPC   NC343920  20.524   4.082  11.171  0.1609  0.2443 -0.0174
36351DOPC   PO443921  20.166   3.902  11.227  0.0684 -0.0824  0.2660
36351DOPC   GL143922  20.246   3.866  11.589 -0.1263  0.0592  0.1829
36351DOPC   GL243923  20.527   3.827  11.674  0.0682  0.4112 -0.1151
36351DOPC   C1A43924  20.201   3.640  11.946 -0.0003 -0.4153  0.1994
36351DOPC   D2A43925  20.268   3.527  12.420  0.0064 -0.0967 -0.2835
36351DOPC   C3A43926  20.290   3.506  12.868  0.1614 -0.1112 -0.0860
36351DOPC   C4A43927  20.267   3.465  13.415 -0.0806 -0.1586 -0.0587
36351DOPC   C1B43928  20.676   3.765  12.125 -0.0741  0.0779 -0.3487
36351DOPC   D2B43929  20.636   3.730  12.659 -0.2176 -0.0673 -0.0068
36351DOPC   C3B43930  20.616   3.773  13.095  0.1167  0.2587  0.0715
36351DOPC   C4B43931  20.563   4.028  13.485 -0.3153 -0.1512 -0.0119
36352DOPC   NC343932   1.711   2.668  11.150  0.1495  0.0863  0.0258
36352DOPC   PO443933   1.403   2.888  11.090 -0.0905 -0.1605  0.0798
36352DOPC   GL143934   1.317   2.900  11.492 -0.0692 -0.0150 -0.1050
36352DOPC   GL243935   1.419   2.572  11.582 -0.2026  0.0707 -0.5330
36352DOPC   C1A43936   1.421   3.110  11.844  0.1209 -0.0869 -0.2528
36352DOPC   D2A43937   1.625   3.258  12.322  0.2089  0.1453  0.1059
36352DOPC   C3A43938   1.808   3.482  12.727 -0.1745 -0.1519  0.0278
36352DOPC   C4A43939   1.842   3.796  13.096  0.1276  0.2252 -0.1355
36352DOPC   C1B43940   1.144   2.389  11.893  0.0322 -0.3193  0.0065
36352DOPC   D2B43941   0.935   2.119  12.244 -0.1283 -0.5210 -0.1083
36352DOPC   C3B43942   0.851   1.753  12.395 -0.0100 -0.0409  0.0012
36352DOPC   C4B43943   0.652   1.312  12.302  0.1846 -0.1528 -0.1493
36353DOPC   NC343944   9.075   7.717  11.123  0.1925 -0.1868 -0.1639
36353DOPC   PO443945   9.327   7.629  11.395 -0.1233  0.3445 -0.1289
36353DOPC   GL143946   9.246   7.257  11.561  0.1715  0.1075  0.3264
36353DOPC   GL243947   9.392   7.116  11.345  0.1209 -0.1073 -0.0766
36353DOPC   C1A43948   9.325   7.267  11.930  0.1557  0.1071 -0.1925
36353DOPC   D2A43949   9.129   7.262  12.374  0.1155 -0.3922 -0.3723
36353DOPC   C3A43950   9.254   7.036  12.798  0.0828 -0.2484  0.1354
36353DOPC   C4A43951   9.372   6.867  13.256  0.0316  0.1899 -0.2376
36353DOPC   C1B43952   9.683   7.086  11.588 -0.0376 -0.0527 -0.2388
36353DOPC   D2B43953   9.781   7.172  12.072  0.3794  0.2023  0.0544
36353DOPC   C3B43954  10.108   6.845  12.158  0.1250  0.1499  0.0579
36353DOPC   C4B43955  10.260   6.654  12.562  0.0814  0.0133 -0.2430
36354DOPC   NC343956  18.872   7.705  11.297  0.4595 -0.0054  0.1745
36354DOPC   PO443957  18.627   7.414  11.445  0.0239  0.0475  0.2530
36354DOPC   GL143958  18.558   7.273  11.807  0.3492  0.4987 -0.0126
36354DOPC   GL243959  18.394   7.566  11.845 -0.0282 -0.0644  0.0281
36354DOPC   C1A43960  18.873   7.116  11.926  0.1204 -0.1131  0.2265
36354DOPC   D2A43961  19.231   6.945  12.265  0.1735 -0.1057  0.0028
36354DOPC   C3A43962  19.332   6.756  12.696  0.1022  0.1750 -0.0553
36354DOPC   C4A43963  19.481   6.695  13.206 -0.0719 -0.1178 -0.3327
36354DOPC   C1B43964  18.659   7.465  12.211  0.0761 -0.3500 -0.0586
36354DOPC   D2B43965  18.847   7.237  12.567  0.2220 -0.0981 -0.1313
36354DOPC   C3B43966  18.546   7.362  12.927 -0.0009  0.1676  0.2060
36354DOPC   C4B43967  18.443   7.348  13.408  0.0013 -0.1345 -0.0831
36355DOPC   NC343968   5.552   3.736  11.213 -0.2711  0.0073 -0.0134
36355DOPC   PO443969   5.609   3.942  11.535  0.0846 -0.0070 -0.0160
36355DOPC   GL143970   5.471   3.797  11.936 -0.1231 -0.0865  0.2911
36355DOPC   GL243971   5.199   4.009  11.882  0.0804  0.1187  0.0194
36355DOPC   C1A43972   5.554   3.702  12.341  0.0060 -0.3211  0.1996
36355DOPC   D2A43973   5.603   3.681  12.839  0.0792 -0.3625  0.0504
36355DOPC   C3A43974   5.514   3.548  13.269  0.0222 -0.0542 -0.1054
36355DOPC   C4A43975   5.851   3.825  13.524  0.0058  0.0414  0.0725
36355DOPC   C1B43976   5.358   4.235  12.266 -0.1966 -0.2154  0.1532
36355DOPC   D2B43977   5.503   4.320  12.703  0.1785  0.3968  0.3836
36355DOPC   C3B43978   5.760   4.586  12.901 -0.0796  0.0967  0.2378
36355DOPC   C4B43979   5.941   4.998  13.017  0.0428  0.0321  0.2015
36356DOPC   NC343980   4.095   7.026  11.255  0.0944 -0.2119  0.0601
36356DOPC   PO443981   4.456   6.966  11.134 -0.2324  0.0152 -0.2392
36356DOPC   GL143982   4.734   6.910  11.399  0.1975 -0.0131 -0.1511
36356DOPC   GL243983   4.405   6.752  11.476 -0.3163  0.1799 -0.3436
36356DOPC   C1A43984   4.906   6.567  11.634 -0.1338 -0.1971 -0.2061
36356DOPC   D2A43985   5.205   6.296  11.930  0.1734  0.2905  0.1997
36356DOPC   C3A43986   5.261   6.340  12.380 -0.0918 -0.0435  0.2504
36356DOPC   C4A43987   5.355   6.183  12.844  0.0589 -0.0740  0.5576
36356DOPC   C1B43988   4.432   6.681  11.908  0.1154  0.2854  0.3408
36356DOPC   D2B43989   4.224   6.556  12.273 -0.0052  0.3640  0.0641
36356DOPC   C3B43990   4.452   6.783  12.636 -0.1149 -0.2211  0.2565
36356DOPC   C4B43991   4.659   6.732  13.051 -0.0698  0.2713 -0.1577
36357DOPC   NC343992  22.088   3.324  11.100 -0.0740 -0.1008  0.0097
36357DOPC   PO443993  21.791   3.553  11.287  0.5197  0.2991 -0.0233
36357DOPC   GL143994  21.656   3.357  11.677 -0.0219  0.0387 -0.0776
36357DOPC   GL243995  21.593   3.105  11.682 -0.1029  0.0496  0.0348
36357DOPC   C1A43996  21.378   3.427  11.990 -0.0191  0.0933 -0.0396
36357DOPC   D2A43997  21.448   3.261  12.513 -0.1385  0.2262 -0.1048
36357DOPC   C3A43998  21.466   3.101  12.960 -0.0182  0.3759 -0.1414
36357DOPC   C4A43999  21.663   2.902  13.373 -0.2496 -0.1362  0.2170
36357DOPC   C1B44000  21.713   3.016  12.102  0.0754 -0.1248  0.0892
36357DOPC   D2B44001  21.962   3.225  12.409 -0.0156  0.0303 -0.1873
36357DOPC   C3B44002  21.985   3.129  12.863  0.1139  0.0392  0.4203
36357DOPC   C4B44003  22.152   2.996  13.336 -0.1882  0.5054 -0.0357
36358DOPC   NC344004  22.662   3.031  11.518 -0.3571 -0.2049  0.2480
36358DOPC   PO444005  22.507   2.848  11.789  0.0256 -0.2218  0.2702
36358DOPC   GL144006  22.280   2.607  12.028  0.2655  0.2165  0.1210
36358DOPC   GL244007  22.131   2.846  12.115  0.0650 -0.2210 -0.4977
36358DOPC   C1A44008  22.532   2.462  12.322 -0.1423  0.0306  0.1187
36358DOPC   D2A44009  22.697   2.397  12.806 -0.0370  0.2106  0.2860
36358DOPC   C3A44010  22.651   2.112  13.226  0.2792 -0.1137 -0.2698
36358DOPC   C4A44011  22.623   1.653  13.104 -0.0733 -0.0994 -0.0002
36358DOPC   C1B44012  22.233   2.783  12.549 -0.2079 -0.1250 -0.1069
36358DOPC   D2B44013  22.436   2.733  12.964  0.0095 -0.4654 -0.0306
36358DOPC   C3B44014  22.274   2.457  13.283 -0.0285 -0.2668  0.1562
36358DOPC   C4B44015  22.031   2.572  13.692 -0.0395 -0.1085  0.0023
36359DOPC   NC344016  24.705   1.806  11.528 -0.0294  0.1201  0.1541
36359DOPC   PO444017  24.622   1.698  11.890  0.0343 -0.0172  0.0270
36359DOPC   GL144018  24.910   1.796  12.160  0.4265  0.0199 -0.1104
36359DOPC   GL244019  24.722   2.059  12.189 -0.1566 -0.0498 -0.4964
36359DOPC   C1A44020  24.925   1.673  12.548 -0.4017  0.1411  0.3128
36359DOPC   D2A44021  24.855   1.851  12.980 -0.2453 -0.2668  0.1755
36359DOPC   C3A44022  25.096   1.612  13.301  0.0693 -0.1022 -0.0106
36359DOPC   C4A44023  25.313   1.344  13.684 -0.0147  0.2746  0.1397
36359DOPC   C1B44024  24.372   2.049  12.370  0.0270 -0.1201 -0.1680
36359DOPC   D2B44025  24.218   1.911  12.711  0.0223  0.1270 -0.3571
36359DOPC   C3B44026  24.355   2.111  13.059  0.0632  0.0700 -0.0050
36359DOPC   C4B44027  24.756   2.127  13.404  0.0055  0.0034  0.1014
36360DOPC   NC344028   4.821   3.462  11.593 -0.0627 -0.0337  0.3067
36360DOPC   PO444029   4.813   3.189  11.299  0.0735  0.3621 -0.1735
36360DOPC   GL144030   4.840   2.987  11.761 -0.2128 -0.3981  0.1419
36360DOPC   GL244031   4.550   3.166  11.824  0.0476 -0.1516 -0.2860
36360DOPC   C1A44032   5.021   2.886  12.124 -0.0426 -0.0833  0.0412
36360DOPC   D2A44033   5.360   2.806  12.426  0.1588  0.0939 -0.1661
36360DOPC   C3A44034   5.591   2.559  12.811 -0.0579  0.2449 -0.1919
36360DOPC   C4A44035   5.816   2.283  13.173  0.0645 -0.0267  0.0153
36360DOPC   C1B44036   4.545   3.011  12.252 -0.2670  0.0053  0.0793
36360DOPC   D2B44037   4.717   2.912  12.691 -0.0664 -0.0032  0.0373
36360DOPC   C3B44038   4.685   3.036  13.188 -0.3035  0.1184 -0.1581
36360DOPC   C4B44039   4.562   3.178  13.656 -0.1828 -0.0504  0.1790
36361DOPC   NC344040  21.262   3.292  11.372 -0.1801 -0.0248 -0.2160
36361DOPC   PO444041  21.086   3.566  11.126 -0.2757  0.0418 -0.1187
36361DOPC   GL144042  20.789   3.669  11.363 -0.2378 -0.4492  0.1874
36361DOPC   GL244043  20.852   3.930  11.443 -0.5258 -0.0587  0.0379
36361DOPC   C1A44044  20.745   3.399  11.744 -0.0526 -0.0580  0.0060
36361DOPC   D2A44045  20.519   3.182  12.178 -0.2291 -0.0848 -0.0605
36361DOPC   C3A44046  20.622   3.139  12.642  0.0944  0.0938  0.2275
36361DOPC   C4A44047  20.647   3.254  13.121 -0.0191  0.1552  0.1482
36361DOPC   C1B44048  21.097   4.267  11.685 -0.0347 -0.1126 -0.2712
36361DOPC   D2B44049  20.920   4.657  11.941  0.1472  0.2412 -0.0944
36361DOPC   C3B44050  20.673   4.634  12.287 -0.4079  0.3528 -0.0977
36361DOPC   C4B44051  20.561   4.666  12.789 -0.0834  0.2962  0.0814
36362DOPC   NC344052  11.845   7.471  10.610  0.0109  0.0006 -0.1343
36362DOPC   PO444053  11.562   7.203  10.763  0.1497 -0.0527 -0.0196
36362DOPC   GL144054  11.517   7.103  11.202  0.0472  0.1227  0.0126
36362DOPC   GL244055  11.311   7.335  11.176  0.4183  0.2616 -0.1417
36362DOPC   C1A44056  11.689   7.067  11.627  0.1439 -0.3225  0.0335
36362DOPC   D2A44057  11.990   7.040  12.029  0.1635 -0.0045 -0.0686
36362DOPC   C3A44058  12.267   6.915  12.419  0.0161 -0.0347 -0.1463
36362DOPC   C4A44059  12.476   6.846  12.865 -0.2958 -0.2441  0.2527
36362DOPC   C1B44060  11.247   7.492  11.594 -0.0399 -0.0433  0.0567
36362DOPC   D2B44061  11.058   7.421  12.105  0.0532  0.0594 -0.0177
36362DOPC   C3B44062  11.238   7.656  12.420 -0.2446  0.0838 -0.1055
36362DOPC   C4B44063  11.545   7.725  12.799  0.1598 -0.0556  0.0570
36363DOPC   NC344064   3.266   5.996  11.410 -0.1316 -0.0022  0.2730
36363DOPC   PO444065   2.935   5.779  11.364 -0.3433  0.0819  0.4103
36363DOPC   GL144066   2.806   5.796  11.765  0.1614 -0.3526 -0.0233
36363DOPC   GL244067   2.838   6.150  11.817 -0.0947 -0.2686 -0.0924
36363DOPC   C1A44068   2.812   5.632  12.205 -0.1042  0.0520  0.0484
36363DOPC   D2A44069   2.718   5.447  12.651  0.1343  0.1985 -0.0369
36363DOPC   C3A44070   2.464   5.669  12.994  0.1020  0.1697  0.1323
36363DOPC   C4A44071   2.270   5.896  13.354 -0.2651  0.0948 -0.0959
36363DOPC   C1B44072   2.775   6.220  12.259 -0.0888  0.0239  0.3652
36363DOPC   D2B44073   2.791   6.319  12.753  0.1075  0.0927 -0.0843
36363DOPC   C3B44074   2.708   6.293  13.190 -0.0129  0.0619  0.0492
36363DOPC   C4B44075   2.755   6.311  13.682  0.1002  0.1149 -0.1305
36364DOPC   NC344076   7.550   3.583  10.991 -0.0587 -0.0766  0.1618
36364DOPC   PO444077   7.268   3.788  11.132  0.0756 -0.4126  0.0223
36364DOPC   GL144078   7.237   3.904  11.562 -0.2456  0.5268 -0.0545
36364DOPC   GL244079   6.965   3.937  11.500 -0.0949  0.2154 -0.1327
36364DOPC   C1A44080   7.272   3.859  11.961 -0.1274  0.0015 -0.2320
36364DOPC   D2A44081   7.357   3.992  12.474  0.2019  0.0368 -0.0765
36364DOPC   C3A44082   7.509   3.840  12.896  0.2889 -0.1002 -0.0239
36364DOPC   C4A44083   7.788   3.734  13.290 -0.1286 -0.0637  0.2634
36364DOPC   C1B44084   6.741   4.010  11.860  0.1529  0.0983  0.0574
36364DOPC   D2B44085   6.409   4.006  12.210 -0.0022 -0.0750  0.1737
36364DOPC   C3B44086   6.389   3.931  12.660 -0.1226  0.2874  0.1018
36364DOPC   C4B44087   5.928   3.972  13.015 -0.0576  0.5087 -0.1897
36365DOPC   NC344088  20.911   1.908  11.301 -0.2835 -0.1473  0.2595
36365DOPC   PO444089  20.888   2.218  11.139 -0.0793  0.0792  0.3387
36365DOPC   GL144090  20.716   2.463  11.466 -0.1341 -0.6753 -0.2539
36365DOPC   GL244091  20.790   2.169  11.632  0.0068 -0.0896  0.0528
36365DOPC   C1A44092  20.969   2.522  11.830 -0.0300  0.1782 -0.0154
36365DOPC   D2A44093  21.156   2.664  12.326  0.2141  0.1019  0.3281
36365DOPC   C3A44094  21.090   2.933  12.695  0.0998 -0.0594 -0.0953
36365DOPC   C4A44095  21.051   2.884  13.222  0.2732 -0.0227 -0.1290
36365DOPC   C1B44096  20.839   1.966  11.980  0.3459 -0.0102  0.1045
36365DOPC   D2B44097  20.951   2.059  12.464 -0.2079 -0.0596 -0.0631
36365DOPC   C3B44098  20.677   1.943  12.813 -0.4809  0.0534 -0.1159
36365DOPC   C4B44099  20.730   2.329  13.178 -0.4031  0.2741  0.0320
36366DOPC   NC344100  19.266   6.481  11.410  0.2914  0.0306  0.3650
36366DOPC   PO444101  18.930   6.340  11.272  0.1440 -0.0153  0.2202
36366DOPC   GL144102  18.683   6.331  11.555  0.0557  0.0340 -0.2985
36366DOPC   GL244103  18.934   6.374  11.726  0.4188  0.1776 -0.3728
36366DOPC   C1A44104  18.446   6.669  11.798  0.3495  0.3885  0.3804
36366DOPC   D2A44105  18.487   6.958  12.215 -0.3493 -0.1526 -0.0496
36366DOPC   C3A44106  18.386   6.971  12.674  0.1781  0.0108  0.2370
36366DOPC   C4A44107  18.163   7.031  13.076  0.1362  0.0319 -0.0555
36366DOPC   C1B44108  18.803   6.502  12.141  0.0899 -0.0003  0.1421
36366DOPC   D2B44109  18.822   6.694  12.582  0.3216  0.2150 -0.0202
36366DOPC   C3B44110  18.940   6.896  12.903 -0.3083  0.0204 -0.1999
36366DOPC   C4B44111  19.209   7.090  13.295  0.2133  0.0046 -0.2719
36367DOPC   NC344112  10.363   5.515  11.094 -0.0091 -0.1156  0.0150
36367DOPC   PO444113  10.298   5.904  11.026  0.2848  0.3219  0.4255
36367DOPC   GL144114  10.451   6.038  11.386 -0.0491  0.1667 -0.0946
36367DOPC   GL244115  10.481   5.756  11.473 -0.1555 -0.3222 -0.0032
36367DOPC   C1A44116  10.747   6.284  11.562 -0.3087  0.1764 -0.1960
36367DOPC   D2A44117  11.058   6.506  11.888 -0.2317  0.0767  0.0233
36367DOPC   C3A44118  11.184   6.733  12.282  0.2345 -0.1489 -0.1124
36367DOPC   C4A44119  11.219   7.100  12.590 -0.0530  0.1032 -0.1604
36367DOPC   C1B44120  10.521   5.979  11.906  0.1563  0.1028 -0.0561
36367DOPC   D2B44121  10.693   5.973  12.349 -0.5493 -0.1997  0.6417
36367DOPC   C3B44122  10.619   5.613  12.625 -0.1255 -0.0374  0.1991
36367DOPC   C4B44123  10.568   5.532  13.114  0.2526 -0.3698  0.1344
36368DOPC   NC344124   4.651   6.508  11.119  0.0529 -0.1078 -0.0165
36368DOPC   PO444125   4.243   6.513  11.089 -0.1066  0.1931  0.3453
36368DOPC   GL144126   3.890   6.557  11.361  0.1201 -0.1711  0.2233
36368DOPC   GL244127   3.887   6.342  11.455  0.2564 -0.3832 -0.1340
36368DOPC   C1A44128   3.890   6.724  11.748 -0.4084  0.3084 -0.1871
36368DOPC   D2A44129   3.654   6.879  12.106  0.1693  0.4096  0.3271
36368DOPC   C3A44130   3.840   6.880  12.506 -0.3519 -0.0486  0.0827
36368DOPC   C4A44131   3.969   6.982  12.964  0.0389 -0.0540  0.1281
36368DOPC   C1B44132   4.079   6.297  11.892  0.2213 -0.2795 -0.1544
36368DOPC   D2B44133   4.345   6.050  12.267 -0.0424 -0.1184 -0.0589
36368DOPC   C3B44134   4.496   6.130  12.683 -0.1226  0.1703 -0.0608
36368DOPC   C4B44135   4.909   6.406  12.752 -0.0413  0.0364 -0.3128
36369DOPC   NC344136  29.381   4.109  11.141  0.2356 -0.1349 -0.0885
36369DOPC   PO444137  29.753   3.965  11.172  0.0020  0.1598 -0.0266
36369DOPC   GL144138  29.908   3.913  11.501  0.0689 -0.0657 -0.1595
36369DOPC   GL244139  29.998   4.127  11.573 -0.4868 -0.0789 -0.0170
36369DOPC   C1A44140  29.654   3.714  11.828 -0.0662  0.1906 -0.0290
36369DOPC   D2A44141  29.182   3.629  11.998  0.0568  0.0146  0.0855
36369DOPC   C3A44142  29.004   3.857  12.419  0.0778 -0.0641  0.2988
36369DOPC   C4A44143  29.064   4.180  12.788 -0.1787  0.0002  0.1682
36369DOPC   C1B44144  29.882   4.075  11.991  0.0601 -0.0399  0.2197
36369DOPC   D2B44145  29.970   3.940  12.472 -0.0880  0.0634  0.4643
36369DOPC   C3B44146  29.581   3.953  12.830 -0.3150 -0.4050 -0.0212
36369DOPC   C4B44147  29.454   4.227  13.207  0.1096 -0.1275  0.1127
36370DOPC   NC344148  24.827   2.257  11.761 -0.0203 -0.1315 -0.1570
36370DOPC   PO444149  25.195   2.152  11.666  0.0258 -0.0205 -0.3146
36370DOPC   GL144150  25.265   2.137  12.129 -0.2712 -0.0491  0.0498
36370DOPC   GL244151  25.429   1.880  12.030 -0.0339  0.0285  0.2447
36370DOPC   C1A44152  25.284   2.229  12.572 -0.0812 -0.0384  0.0240
36370DOPC   D2A44153  25.325   1.987  13.026 -0.1514 -0.1321  0.1015
36370DOPC   C3A44154  25.646   2.201  13.237 -0.0032 -0.2379  0.0052
36370DOPC   C4A44155  25.997   2.482  13.471 -0.1543 -0.1757 -0.2430
36370DOPC   C1B44156  25.659   1.721  12.376 -0.1386 -0.2590  0.3321
36370DOPC   D2B44157  25.770   1.769  12.850  0.1640  0.0357  0.1636
36370DOPC   C3B44158  25.985   2.170  12.872 -0.1141  0.0397  0.1191
36370DOPC   C4B44159  26.305   2.324  13.149  0.2470  0.0672  0.2011
36371DOPC   NC344160  15.256   5.019  10.475 -0.1326  0.1366 -0.4669
36371DOPC   PO444161  14.975   4.855  10.694  0.2034  0.1284  0.1619
36371DOPC   GL144162  15.024   5.077  11.112  0.0512 -0.3740  0.3066
36371DOPC   GL244163  14.828   4.933  11.264 -0.0992  0.4199 -0.1256
36371DOPC   C1A44164  15.277   5.099  11.415 -0.1438 -0.0057 -0.1051
36371DOPC   D2A44165  15.200   5.295  11.863 -0.1413 -0.0774  0.0774
36371DOPC   C3A44166  15.581   5.458  12.112 -0.1409  0.1011  0.0007
36371DOPC   C4A44167  15.864   5.913  12.192  0.2314 -0.0580  0.0984
36371DOPC   C1B44168  14.703   5.173  11.644 -0.2041  0.1807  0.3118
36371DOPC   D2B44169  14.438   5.183  12.051 -0.1590 -0.1394  0.1120
36371DOPC   C3B44170  14.518   5.489  12.419  0.1864  0.1401 -0.1425
36371DOPC   C4B44171  14.234   5.638  12.862  0.0718  0.1236 -0.3024
36372DOPC   NC344172  18.825   5.889  11.004  0.1118 -0.1496 -0.1798
36372DOPC   PO444173  18.826   5.531  11.191 -0.0645 -0.2176 -0.0710
36372DOPC   GL144174  18.670   5.710  11.520 -0.0101  0.1594  0.1973
36372DOPC   GL244175  18.803   5.899  11.537 -0.1627 -0.0494 -0.0845
36372DOPC   C1A44176  18.582   5.520  11.948 -0.1430 -0.0530 -0.1448
36372DOPC   D2A44177  18.355   5.253  12.355  0.0618  0.3082  0.0903
36372DOPC   C3A44178  18.550   4.842  12.491 -0.1272 -0.1392 -0.0210
36372DOPC   C4A44179  18.523   4.415  12.705  0.5757  0.2153 -0.0780
36372DOPC   C1B44180  18.737   6.005  11.975  0.2809 -0.2514 -0.4485
36372DOPC   D2B44181  18.729   6.098  12.495 -0.3055 -0.3334  0.0179
36372DOPC   C3B44182  18.571   5.734  12.647 -0.0497 -0.0011  0.0863
36372DOPC   C4B44183  18.365   5.415  12.947  0.0564 -0.1522  0.0223
36373DOPC   NC344184  26.372   1.717  11.521 -0.2359  0.3439 -0.4263
36373DOPC   PO444185  26.044   1.894  11.442  0.1372  0.0892 -0.0817
36373DOPC   GL144186  25.864   2.064  11.756  0.1975 -0.0204 -0.3753
36373DOPC   GL244187  25.666   2.228  11.787 -0.0279 -0.2237  0.0405
36373DOPC   C1A44188  26.066   1.821  12.043 -0.2522  0.0307 -0.1374
36373DOPC   D2A44189  26.180   1.776  12.541  0.0953  0.2448 -0.1427
36373DOPC   C3A44190  26.250   1.697  12.991  0.0725  0.1064 -0.0218
36373DOPC   C4A44191  26.278   1.518  13.458  0.0685  0.1263  0.0113
36373DOPC   C1B44192  25.726   2.651  12.018 -0.0806 -0.1991 -0.1221
36373DOPC   D2B44193  25.802   3.031  12.323 -0.0297  0.1558 -0.2257
36373DOPC   C3B44194  26.136   3.151  12.638 -0.0261  0.0869 -0.0227
36373DOPC   C4B44195  26.336   2.911  12.995  0.0621  0.2009  0.1061
36374DOPC   NC344196  11.520   6.636  10.725 -0.0789  0.1550  0.0692
36374DOPC   PO444197  11.551   6.310  10.935 -0.1259  0.0011 -0.1238
36374DOPC   GL144198  11.554   6.321  11.351 -0.1355  0.2931 -0.0619
36374DOPC   GL244199  11.509   6.635  11.396  0.1989  0.0066 -0.5285
36374DOPC   C1A44200  11.818   6.007  11.642 -0.1504 -0.0036 -0.0254
36374DOPC   D2A44201  11.927   6.061  12.083  0.0756 -0.0309  0.0566
36374DOPC   C3A44202  11.620   6.315  12.395 -0.2973 -0.3142  0.2286
36374DOPC   C4A44203  11.388   6.563  12.714 -0.0132 -0.0274  0.1698
36374DOPC   C1B44204  11.531   6.646  11.881  0.0216 -0.3276  0.1186
36374DOPC   D2B44205  11.642   6.836  12.344 -0.3059  0.0736 -0.1817
36374DOPC   C3B44206  11.901   6.705  12.726  0.0873  0.0740  0.1777
36374DOPC   C4B44207  12.211   6.327  12.934 -0.1421 -0.0498  0.1638
36375DOPC   NC344208  15.727   5.800  10.393  0.0515 -0.1444  0.0745
36375DOPC   PO444209  15.966   5.531  10.483 -0.1252  0.0841 -0.0066
36375DOPC   GL144210  16.000   5.419  10.892  0.1886  0.0874 -0.2473
36375DOPC   GL244211  15.892   5.141  10.912 -0.1911 -0.4427  0.0424
36375DOPC   C1A44212  15.724   5.602  11.194 -0.1636  0.1142 -0.1237
36375DOPC   D2A44213  15.361   6.025  11.315 -0.0390 -0.1692  0.0982
36375DOPC   C3A44214  15.364   6.339  11.624  0.1672 -0.1108  0.0338
36375DOPC   C4A44215  15.162   6.658  11.906  0.2213  0.1102 -0.0691
36375DOPC   C1B44216  15.758   5.006  11.316  0.2214 -0.1304 -0.0410
36375DOPC   D2B44217  15.826   5.082  11.801 -0.0813 -0.0133  0.1148
36375DOPC   C3B44218  15.855   5.555  11.675  0.0112  0.0896  0.2273
36375DOPC   C4B44219  15.857   6.098  11.693 -0.1347 -0.0738 -0.0608
36376DOPC   NC344220   8.074   6.735  11.001 -0.5336 -0.4430  0.1230
36376DOPC   PO444221   7.805   7.009  10.965  0.4859 -0.2166  0.0342
36376DOPC   GL144222   7.944   6.999  11.334  0.2132 -0.1134 -0.3080
36376DOPC   GL244223   7.864   7.268  11.334  0.2796 -0.1631 -0.2431
36376DOPC   C1A44224   7.902   6.878  11.669 -0.1919  0.1180 -0.1096
36376DOPC   D2A44225   7.941   6.752  12.140 -0.1633  0.0216 -0.0831
36376DOPC   C3A44226   7.824   7.020  12.417 -0.0828 -0.2095  0.1528
36376DOPC   C4A44227   7.651   7.234  12.755 -0.1890  0.2255  0.2420
36376DOPC   C1B44228   7.740   7.395  11.768  0.1144 -0.0846  0.3772
36376DOPC   D2B44229   7.608   7.417  12.244 -0.0070 -0.0437 -0.0004
36376DOPC   C3B44230   7.904   7.689  12.176 -0.1749 -0.3220  0.2017
36376DOPC   C4B44231   8.221   8.085  12.118  0.0519  0.2845 -0.0312
36377DOPC   NC344232  11.112   5.955  10.338 -0.2177 -0.1725 -0.1786
36377DOPC   PO444233  11.093   6.099  10.691 -0.1258 -0.0062 -0.2670
36377DOPC   GL144234  11.190   6.127  11.109  0.2333  0.0628 -0.2582
36377DOPC   GL244235  11.066   6.414  11.100  0.0018  0.2785 -0.0881
36377DOPC   C1A44236  11.233   6.163  11.569 -0.0518  0.0095 -0.0716
36377DOPC   D2A44237  11.445   6.063  12.005 -0.0196 -0.0368  0.1849
36377DOPC   C3A44238  11.136   6.179  12.372  0.2541 -0.2198 -0.0285
36377DOPC   C4A44239  10.839   6.473  12.609 -0.1312  0.2616  0.2918
36377DOPC   C1B44240  11.044   6.710  11.422 -0.2294 -0.0876  0.0113
36377DOPC   D2B44241  11.181   6.987  11.817  0.0175 -0.1760 -0.1251
36377DOPC   C3B44242  11.462   7.208  12.107  0.0277 -0.2434 -0.0146
36377DOPC   C4B44243  11.783   7.561  12.279  0.1067  0.1257  0.1094
36378DOPC   NC344244   9.617   2.823  11.586 -0.2882 -0.0601  0.2792
36378DOPC   PO444245   9.393   2.498  11.506 -0.4958  0.3890 -0.1951
36378DOPC   GL144246   9.398   2.338  11.898 -0.0544 -0.2428 -0.0196
36378DOPC   GL244247   9.429   2.616  11.959 -0.0607  0.0496 -0.0192
36378DOPC   C1A44248   9.291   2.174  12.280  0.1039  0.3230  0.0169
36378DOPC   D2A44249   9.219   2.357  12.790  0.1064 -0.3110 -0.1152
36378DOPC   C3A44250   9.086   2.217  13.243  0.0826 -0.2602 -0.0186
36378DOPC   C4A44251   9.024   2.022  13.643  0.0197  0.0638 -0.1031
36378DOPC   C1B44252   9.363   2.665  12.379  0.1135 -0.2142  0.0714
36378DOPC   D2B44253   9.289   2.892  12.814  0.0589  0.0887 -0.1594
36378DOPC   C3B44254   9.533   3.098  13.122 -0.4125 -0.2402 -0.2802
36378DOPC   C4B44255   9.859   3.372  13.445 -0.1251 -0.1136  0.1916
36379DOPC   NC344256   2.113   1.702  11.196  0.2722 -0.2912  0.0025
36379DOPC   PO444257   2.186   1.354  11.348 -0.1509  0.0021 -0.1602
36379DOPC   GL144258   1.916   1.242  11.721  0.1855 -0.0329  0.2381
36379DOPC   GL244259   2.148   1.399  11.830  0.1477 -0.2037  0.1715
36379DOPC   C1A44260   1.614   0.976  11.913 -0.2141  0.1029 -0.1605
36379DOPC   D2A44261   1.460   0.881  12.398  0.2621  0.1620  0.0236
36379DOPC   C3A44262   1.388   0.766  12.857  0.2118  0.0863 -0.0256
36379DOPC   C4A44263   1.193   0.422  13.160 -0.0740  0.1531  0.0294
36379DOPC   C1B44264   2.147   1.531  12.225  0.0247  0.3901  0.0994
36379DOPC   D2B44265   2.170   1.547  12.741 -0.1577  0.0466  0.1484
36379DOPC   C3B44266   2.104   1.736  13.179 -0.2502  0.1794  0.1939
36379DOPC   C4B44267   2.122   1.769  13.641  0.0989 -0.0797  0.0103
36380DOPC   NC344268   9.786   5.878  10.920 -0.1008 -0.1824  0.0955
36380DOPC   PO444269   9.530   5.603  10.869  0.1840  0.3186  0.0130
36380DOPC   GL144270   9.429   5.725  11.257 -0.0100  0.1043  0.4409
36380DOPC   GL244271   9.512   6.005  11.250  0.1144  0.1901 -0.1192
36380DOPC   C1A44272   9.513   5.644  11.630  0.0645 -0.2818 -0.0427
36380DOPC   D2A44273   9.780   5.622  12.027  0.1421  0.1373 -0.0134
36380DOPC   C3A44274   9.661   5.540  12.437  0.0701 -0.2444  0.2784
36380DOPC   C4A44275   9.722   5.290  12.809  0.0424 -0.0836  0.0448
36380DOPC   C1B44276   9.135   6.262  11.433  0.2942  0.0139  0.2078
36380DOPC   D2B44277   8.708   6.388  11.589 -0.0712 -0.2068  0.1404
36380DOPC   C3B44278   9.090   6.497  11.886  0.2937 -0.2243 -0.2185
36380DOPC   C4B44279   9.314   6.829  12.168  0.2204 -0.0459  0.1407
36381DOPC   NC344280  12.996   0.820  10.878  0.1014  0.0060 -0.1632
36381DOPC   PO444281  12.616   0.822  11.038 -0.0253  0.3072  0.1812
36381DOPC   GL144282  12.742   0.690  11.373 -0.2441 -0.0933 -0.0383
36381DOPC   GL244283  12.855   0.990  11.444 -0.0185  0.0079 -0.1266
36381DOPC   C1A44284  12.708   0.725  11.816  0.1016 -0.3292 -0.3228
36381DOPC   D2A44285  12.923   0.888  12.219  0.3164  0.2707  0.1250
36381DOPC   C3A44286  13.149   1.015  12.618 -0.1406 -0.1271  0.0894
36381DOPC   C4A44287  13.586   1.150  12.826 -0.0737  0.0229 -0.2684
36381DOPC   C1B44288  13.149   1.075  11.771 -0.2886  0.0449 -0.1685
36381DOPC   D2B44289  13.297   1.292  12.203  0.1185 -0.0183 -0.0946
36381DOPC   C3B44290  13.611   1.486  12.466  0.1919 -0.3881  0.2297
36381DOPC   C4B44291  13.926   1.845  12.709  0.0219 -0.2031  0.1451
36382DOPC   NC344292  22.914   2.203  11.503  0.1554  0.0907  0.0480
36382DOPC   PO444293  23.256   2.211  11.664  0.1704 -0.1309 -0.0811
36382DOPC   GL144294  23.430   2.218  12.105 -0.0651  0.5043  0.1337
36382DOPC   GL244295  23.229   2.469  12.090 -0.0331  0.0713  0.0948
36382DOPC   C1A44296  23.356   2.077  12.515  0.0695 -0.0898 -0.1590
36382DOPC   D2A44297  23.147   2.119  13.008  0.0557  0.1791 -0.4780
36382DOPC   C3A44298  23.322   2.283  13.436  0.1981  0.1626  0.1576
36382DOPC   C4A44299  23.292   2.648  13.767  0.0460  0.2018 -0.0573
36382DOPC   C1B44300  23.073   2.556  12.519 -0.0700  0.0913  0.0547
36382DOPC   D2B44301  22.909   2.857  12.885 -0.0215  0.3925  0.1796
36382DOPC   C3B44302  22.817   2.625  13.252  0.1149  0.0898 -0.2539
36382DOPC   C4B44303  22.839   2.344  13.653  0.0129  0.1177 -0.0540
36383DOPC   NC344304  24.300   5.601  11.735 -0.3613 -0.1524  0.0119
36383DOPC   PO444305  24.209   5.973  11.710 -0.1796  0.0671 -0.2341
36383DOPC   GL144306  24.166   6.226  12.085 -0.0687 -0.1674 -0.1434
36383DOPC   GL244307  24.098   5.984  12.254  0.1650 -0.1970 -0.0590
36383DOPC   C1A44308  24.480   6.405  12.374 -0.0451 -0.0085 -0.2114
36383DOPC   D2A44309  24.771   6.638  12.719  0.3479 -0.3143  0.0700
36383DOPC   C3A44310  24.964   6.954  12.947  0.1967 -0.0190  0.1383
36383DOPC   C4A44311  25.250   7.228  13.259  0.1269  0.1740  0.1353
36383DOPC   C1B44312  24.427   5.953  12.605  0.1872  0.0981 -0.3351
36383DOPC   D2B44313  24.740   6.155  12.878  0.1685 -0.1050 -0.0423
36383DOPC   C3B44314  24.865   6.415  13.230  0.0935 -0.2471  0.1191
36383DOPC   C4B44315  24.986   6.795  13.516  0.2563 -0.0680 -0.0151
36384DOPC   NC344316  18.466   6.469  11.179 -0.1267 -0.2015 -0.1050
36384DOPC   PO444317  18.419   6.044  11.302 -0.0327  0.1787  0.1762
36384DOPC   GL144318  18.330   5.939  11.696  0.1024 -0.0665  0.2367
36384DOPC   GL244319  18.235   5.665  11.590 -0.1771  0.1202 -0.3462
36384DOPC   C1A44320  18.300   6.214  12.045  0.1757  0.2585  0.2280
36384DOPC   D2A44321  18.376   6.497  12.426 -0.2271 -0.0695 -0.2321
36384DOPC   C3A44322  18.556   6.407  12.855  0.1316  0.0490 -0.2168
36384DOPC   C4A44323  18.438   6.408  13.418 -0.0998 -0.1027 -0.1391
36384DOPC   C1B44324  18.135   5.312  11.923 -0.0654  0.0712  0.2508
36384DOPC   D2B44325  17.919   5.004  12.301  0.0524  0.0287 -0.0119
36384DOPC   C3B44326  18.068   4.998  12.724  0.1845 -0.0474 -0.0778
36384DOPC   C4B44327  18.077   5.087  13.219 -0.0541  0.0094 -0.4539
36385DOPC   NC344328   2.576   1.297  11.638  0.1664  0.1608 -0.1682
36385DOPC   PO444329   2.909   1.494  11.626  0.1356 -0.1422 -0.4045
36385DOPC   GL144330   3.184   1.764  11.985  0.2097 -0.2695  0.0191
36385DOPC   GL244331   2.970   1.594  12.134 -0.4583 -0.2259 -0.3449
36385DOPC   C1A44332   3.223   2.093  12.251  0.0669 -0.0120  0.0296
36385DOPC   D2A44333   3.190   2.397  12.640  0.1401 -0.2316 -0.5174
36385DOPC   C3A44334   3.308   2.847  12.764 -0.1017 -0.1812 -0.1348
36385DOPC   C4A44335   3.433   3.193  13.132 -0.2383 -0.1219  0.0260
36385DOPC   C1B44336   2.721   1.602  12.496 -0.1307 -0.2378  0.3111
36385DOPC   D2B44337   2.714   1.492  12.906 -0.1638  0.2833 -0.0401
36385DOPC   C3B44338   3.080   1.600  13.138  0.1444  0.0354  0.1450
36385DOPC   C4B44339   3.558   1.584  13.158 -0.0253  0.0943  0.1747
36386DOPC   NC344340   1.510   1.345  11.257  0.0036  0.0128 -0.0349
36386DOPC   PO444341   1.700   1.640  11.463  0.0065 -0.0074 -0.0584
36386DOPC   GL144342   1.700   1.687  11.891 -0.2558  0.0619 -0.0097
36386DOPC   GL244343   1.543   1.428  11.861  0.1290  0.1138  0.2214
36386DOPC   C1A44344   1.797   1.851  12.309  0.0855  0.2048 -0.0512
36386DOPC   D2A44345   1.884   2.094  12.711 -0.1758  0.1456  0.0936
36386DOPC   C3A44346   1.671   2.428  12.841  0.2583  0.0947 -0.2456
36386DOPC   C4A44347   1.265   2.682  13.004 -0.2032 -0.1045  0.2105
36386DOPC   C1B44348   1.618   1.308  12.247  0.0615  0.1881 -0.1339
36386DOPC   D2B44349   1.746   1.284  12.696  0.0052 -0.1814  0.1124
36386DOPC   C3B44350   1.546   1.660  12.924  0.0352 -0.1918 -0.1727
36386DOPC   C4B44351   1.572   2.052  13.282 -0.0726 -0.0110  0.0235
36387DOPC   NC344352  29.038   1.801  11.435 -0.1879 -0.1657  0.0072
36387DOPC   PO444353  29.220   1.494  11.544  0.0178  0.0432  0.0335
36387DOPC   GL144354  29.264   1.480  11.933 -0.0798 -0.3966  0.1022
36387DOPC   GL244355  29.153   1.772  11.990  0.3712 -0.2076  0.0921
36387DOPC   C1A44356  29.523   1.121  12.048 -0.2459 -0.3229 -0.0373
36387DOPC   D2A44357  29.661   0.608  12.032 -0.0662 -0.2295 -0.6600
36387DOPC   C3A44358  29.417   0.319  12.333 -0.0690 -0.0317  0.3812
36387DOPC   C4A44359  29.155  -0.014  12.620 -0.2849  0.1464  0.1277
36387DOPC   C1B44360  29.469   2.052  12.148  0.0475  0.0459  0.2112
36387DOPC   D2B44361  29.813   2.414  12.154  0.1095  0.0572  0.2034
36387DOPC   C3B44362  30.171   2.363  12.494 -0.1823  0.2156  0.2193
36387DOPC   C4B44363  30.608   2.285  12.667 -0.3175 -0.0020  0.0658
36388DOPC   NC344364  14.613   4.670  11.009 -0.1176 -0.3244 -0.0670
36388DOPC   PO444365  14.795   4.339  10.918  0.0344  0.0611 -0.0326
36388DOPC   GL144366  15.131   4.305  11.100  0.0128 -0.1231 -0.1256
36388DOPC   GL244367  15.127   4.605  11.161 -0.0100  0.1934  0.1460
36388DOPC   C1A44368  15.296   4.023  11.371  0.2173  0.1280 -0.0397
36388DOPC   D2A44369  15.150   3.868  11.870 -0.0082 -0.0442  0.2923
36388DOPC   C3A44370  15.159   4.311  12.107 -0.0496  0.1050 -0.0539
36388DOPC   C4A44371  15.228   4.469  12.612  0.3206 -0.0087 -0.1578
36388DOPC   C1B44372  15.063   4.625  11.559  0.2454  0.1506 -0.0509
36388DOPC   D2B44373  14.901   4.766  11.997  0.0201 -0.3222  0.0746
36388DOPC   C3B44374  14.822   4.964  12.410  0.2143  0.0416 -0.1732
36388DOPC   C4B44375  14.758   5.179  12.846 -0.0947  0.1323  0.4086
36389DOPC   NC344376  20.326   0.453  11.440  0.2678  0.0970 -0.1971
36389DOPC   PO444377  20.554   0.419  11.735  0.0425  0.0068 -0.1705
36389DOPC   GL144378  20.411   0.401  12.044 -0.2023  0.0601  0.3384
36389DOPC   GL244379  20.253   0.100  11.992 -0.3258  0.1700  0.1432
36389DOPC   C1A44380  20.203   0.628  12.383 -0.0563 -0.3064  0.2286
36389DOPC   D2A44381  19.960   1.025  12.610  0.3317 -0.1597 -0.1722
36389DOPC   C3A44382  19.760   1.231  12.934 -0.2511  0.3159 -0.0864
36389DOPC   C4A44383  19.509   1.564  13.196  0.0103  0.2129 -0.0744
36389DOPC   C1B44384  19.886   0.194  12.251  0.2011 -0.3207  0.0062
36389DOPC   D2B44385  19.740   0.423  12.604 -0.2565 -0.0776  0.2451
36389DOPC   C3B44386  20.097   0.606  12.906  0.4622  0.2064  0.3774
36389DOPC   C4B44387  20.260   0.316  13.268 -0.3050  0.0889  0.1067
36390DOPC   NC344388  16.140   1.393  10.911 -0.1414  0.3490 -0.1893
36390DOPC   PO444389  16.466   1.220  10.995 -0.0579  0.0496  0.0321
36390DOPC   GL144390  16.452   1.203  11.376  0.1998  0.2823  0.0961
36390DOPC   GL244391  16.474   0.952  11.433 -0.0775 -0.0261  0.0183
36390DOPC   C1A44392  16.259   1.503  11.599 -0.2325  0.0674  0.0861
36390DOPC   D2A44393  16.074   1.866  11.818 -0.1644  0.1698 -0.0220
36390DOPC   C3A44394  16.101   2.046  12.268 -0.1133  0.0828 -0.1855
36390DOPC   C4A44395  16.119   2.147  12.716 -0.2206  0.2472 -0.0549
36390DOPC   C1B44396  16.153   0.697  11.629  0.1620 -0.3682  0.1753
36390DOPC   D2B44397  15.859   0.436  11.917  0.0006  0.2652 -0.0053
36390DOPC   C3B44398  15.710   0.519  12.410  0.0698 -0.0816 -0.1023
36390DOPC   C4B44399  15.642   0.523  12.895 -0.0154  0.0053 -0.0382
36391DOPC   NC344400  19.339   5.204  11.223  0.1942  0.0294 -0.3445
36391DOPC   PO444401  19.657   5.408  11.312 -0.1577 -0.0402 -0.2081
36391DOPC   GL144402  19.547   5.425  11.661  0.0169 -0.2487 -0.2892
36391DOPC   GL244403  19.467   5.107  11.663  0.0978  0.1989  0.8029
36391DOPC   C1A44404  19.592   5.673  12.024 -0.1333 -0.0120 -0.1044
36391DOPC   D2A44405  19.555   5.911  12.476  0.0875 -0.1767  0.5444
36391DOPC   C3A44406  19.477   5.668  12.890 -0.0477  0.0335 -0.0595
36391DOPC   C4A44407  19.323   5.456  13.280 -0.0743 -0.1525 -0.0620
36391DOPC   C1B44408  19.279   5.067  12.031  0.1903  0.1635  0.0825
36391DOPC   D2B44409  19.137   4.898  12.463  0.0546 -0.1542 -0.0431
36391DOPC   C3B44410  19.190   5.163  12.806 -0.3003  0.3224 -0.1156
36391DOPC   C4B44411  18.836   5.394  13.038 -0.2159  0.1298  0.2198
36392DOPC   NC344412  20.255   3.067  11.054 -0.4734 -0.0581  0.1665
36392DOPC   PO444413  20.397   2.837  11.371 -0.2187 -0.0449  0.2454
36392DOPC   GL144414  20.388   3.049  11.756  0.2058  0.1778 -0.3824
36392DOPC   GL244415  20.681   2.921  11.758 -0.0947 -0.0061 -0.5229
36392DOPC   C1A44416  20.195   2.779  12.097  0.1526  0.2801  0.2104
36392DOPC   D2A44417  20.244   2.581  12.595  0.0443 -0.1764  0.2466
36392DOPC   C3A44418  20.232   2.217  12.885 -0.0714  0.2616  0.2562
36392DOPC   C4A44419  20.434   1.977  13.302  0.0512 -0.0217 -0.1363
36392DOPC   C1B44420  20.645   2.667  12.186  0.2105  0.0896  0.0691
36392DOPC   D2B44421  20.720   2.526  12.624  0.1540  0.0193 -0.2522
36392DOPC   C3B44422  20.529   2.746  12.954 -0.3016 -0.0028 -0.1102
36392DOPC   C4B44423  20.205   2.970  13.278 -0.0597 -0.2347  0.0991
36393DOPC   NC344424  21.929   5.304  11.308  0.0882 -0.2326 -0.2853
36393DOPC   PO444425  21.646   5.546  11.377  0.2477  0.1950  0.2155
36393DOPC   GL144426  21.516   5.476  11.828  0.0306  0.0272 -0.0775
36393DOPC   GL244427  21.801   5.289  11.808 -0.1001  0.0372  0.0569
36393DOPC   C1A44428  21.444   5.490  12.266 -0.0786 -0.0153  0.3283
36393DOPC   D2A44429  21.587   5.556  12.716 -0.1011  0.1609  0.1149
36393DOPC   C3A44430  21.661   5.756  13.095  0.0692 -0.0945 -0.1440
36393DOPC   C4A44431  21.761   5.720  13.579  0.0583 -0.0652 -0.2260
36393DOPC   C1B44432  21.858   5.178  12.225 -0.2304 -0.0785  0.0361
36393DOPC   D2B44433  21.998   5.011  12.689  0.1846 -0.0511 -0.0485
36393DOPC   C3B44434  21.863   5.069  13.095  0.2646  0.1653  0.2726
36393DOPC   C4B44435  21.665   5.229  13.493  0.0371 -0.0646 -0.0167
36394DOPC   NC344436  16.784   7.019  10.565  0.1157 -0.3016 -0.0619
36394DOPC   PO444437  16.575   6.736  10.742  0.2010 -0.2765 -0.0745
36394DOPC   GL144438  16.574   6.579  11.112  0.2464 -0.1462  0.0215
36394DOPC   GL244439  16.269   6.489  11.090  0.0744 -0.1422 -0.1252
36394DOPC   C1A44440  16.861   6.731  11.497 -0.2175 -0.3451 -0.0421
36394DOPC   D2A44441  16.967   6.755  12.010  0.2287 -0.0181 -0.0746
36394DOPC   C3A44442  16.966   6.719  12.468  0.1941  0.0462  0.0027
36394DOPC   C4A44443  16.696   6.883  12.817  0.0620 -0.0794  0.0486
36394DOPC   C1B44444  16.341   6.561  11.494  0.3196 -0.1150 -0.2447
36394DOPC   D2B44445  16.515   6.895  11.806  0.0412  0.1445  0.0052
36394DOPC   C3B44446  16.491   6.819  12.286 -0.3657  0.0242 -0.0530
36394DOPC   C4B44447  16.210   6.920  12.670 -0.1464 -0.0480 -0.3062
36395DOPC   NC344448  13.156   4.830  10.763 -0.1458  0.2243 -0.1788
36395DOPC   PO444449  13.465   4.723  11.051  0.0127 -0.2923  0.1271
36395DOPC   GL144450  13.641   4.803  11.367 -0.1182  0.0845 -0.2164
36395DOPC   GL244451  13.610   4.491  11.467  0.1986  0.0257 -0.0399
36395DOPC   C1A44452  13.638   5.194  11.578  0.3350  0.0264 -0.1699
36395DOPC   D2A44453  13.542   5.399  12.046  0.0215  0.1539 -0.2134
36395DOPC   C3A44454  13.633   5.805  12.311  0.2778  0.2042  0.0289
36395DOPC   C4A44455  13.723   6.201  12.551  0.1687 -0.2949  0.2538
36395DOPC   C1B44456  13.193   4.635  11.614  0.1022 -0.3241 -0.1907
36395DOPC   D2B44457  12.785   4.832  11.865  0.1224 -0.1598 -0.1257
36395DOPC   C3B44458  12.777   5.220  12.186 -0.1005 -0.1635 -0.0812
36395DOPC   C4B44459  12.606   5.378  12.658  0.0554 -0.2824  0.2044
36396DOPC   NC344460   5.972   1.369  11.137 -0.0918 -0.2129  0.0480
36396DOPC   PO444461   5.686   1.158  11.260 -0.3553  0.0330 -0.1468
36396DOPC   GL144462   5.523   0.959  11.639  0.0454  0.0582  0.1867
36396DOPC   GL244463   5.492   0.723  11.547 -0.2106 -0.1551  0.1447
36396DOPC   C1A44464   5.807   1.007  12.007  0.0851 -0.2707  0.2787
36396DOPC   D2A44465   6.354   0.996  12.220 -0.1276 -0.0648  0.0545
36396DOPC   C3A44466   6.523   0.944  12.651  0.2533  0.0630  0.0944
36396DOPC   C4A44467   6.732   1.060  13.087 -0.0318 -0.0780 -0.1958
36396DOPC   C1B44468   5.465   0.594  12.029 -0.1667 -0.0774 -0.0116
36396DOPC   D2B44469   5.609   0.453  12.529  0.1652  0.0749  0.1683
36396DOPC   C3B44470   5.306   0.502  12.875 -0.0263  0.0189 -0.0081
36396DOPC   C4B44471   5.311   0.041  13.025 -0.1303  0.1292 -0.0617
36397DOPC   NC344472   6.978   2.839  11.147  0.0090 -0.3106  0.3503
36397DOPC   PO444473   7.204   2.940  11.472  0.0308 -0.1037 -0.0246
36397DOPC   GL144474   7.072   3.248  11.793 -0.1493  0.0710  0.3787
36397DOPC   GL244475   6.839   3.010  11.822  0.1856 -0.0869 -0.0189
36397DOPC   C1A44476   7.145   3.233  12.219 -0.2792  0.0648  0.0698
36397DOPC   D2A44477   6.951   3.193  12.699 -0.0074 -0.2264  0.2503
36397DOPC   C3A44478   6.532   3.468  12.820 -0.0340 -0.1116 -0.2124
36397DOPC   C4A44479   6.380   3.669  13.269 -0.5028  0.0671 -0.1401
36397DOPC   C1B44480   6.687   3.038  12.225  0.2352 -0.0300  0.1880
36397DOPC   D2B44481   6.323   3.085  12.547  0.1419 -0.1080  0.1292
36397DOPC   C3B44482   6.109   2.979  12.952  0.0619  0.2063  0.2159
36397DOPC   C4B44483   6.070   2.924  13.433  0.0155 -0.0193 -0.1292
36398DOPC   NC344484   8.869   6.495  11.046  0.0002 -0.0229 -0.2878
36398DOPC   PO444485   8.477   6.365  10.991  0.0961  0.0166  0.1773
36398DOPC   GL144486   8.313   6.170  11.311 -0.1755 -0.4760 -0.2564
36398DOPC   GL244487   8.123   6.386  11.334  0.1954 -0.0495  0.2629
36398DOPC   C1A44488   8.361   5.983  11.705  0.2244 -0.1344  0.0521
36398DOPC   D2A44489   8.430   5.866  12.154 -0.0739  0.0122 -0.0915
36398DOPC   C3A44490   8.591   5.885  12.621 -0.0182  0.0457 -0.0816
36398DOPC   C4A44491   9.063   5.926  12.792  0.0770  0.1996 -0.2515
36398DOPC   C1B44492   7.998   6.297  11.674  0.0169  0.0770  0.0508
36398DOPC   D2B44493   8.026   6.253  12.215  0.4428 -0.2564 -0.1282
36398DOPC   C3B44494   7.831   6.508  12.565  0.4224  0.3210  0.2163
36398DOPC   C4B44495   7.502   6.767  12.859  0.1411  0.2659  0.0317
36399DOPC   NC344496  29.979   5.725  10.356 -0.1465 -0.0618  0.0091
36399DOPC   PO444497  30.096   5.889  10.701  0.0256 -0.0767  0.2021
36399DOPC   GL144498  30.212   5.868  11.095  0.0407  0.4621  0.0685
36399DOPC   GL244499  29.985   5.724  11.153  0.0660  0.2093 -0.1667
36399DOPC   C1A44500  30.462   6.085  11.393 -0.0690 -0.0049  0.1322
36399DOPC   D2A44501  30.848   6.249  11.617 -0.0246  0.1366 -0.0195
36399DOPC   C3A44502  30.907   6.123  12.023 -0.2510  0.0611 -0.0722
36399DOPC   C4A44503  30.862   5.953  12.458 -0.0215  0.1368  0.2830
36399DOPC   C1B44504  29.928   6.025  11.594  0.1472 -0.0756  0.3066
36399DOPC   D2B44505  29.776   5.874  12.010  0.0172  0.0945 -0.2587
36399DOPC   C3B44506  30.066   5.568  12.175 -0.3539 -0.0516  0.2677
36399DOPC   C4B44507  30.259   5.339  12.559 -0.3782 -0.2730  0.1907
36400DOPC   NC344508   7.730   1.195  10.794  0.1532  0.1531 -0.2199
36400DOPC   PO444509   7.676   1.388  11.105 -0.1598  0.0787 -0.1227
36400DOPC   GL144510   7.452   1.144  11.431  0.1174 -0.1755 -0.1103
36400DOPC   GL244511   7.568   1.401  11.615 -0.1133 -0.0607  0.2434
36400DOPC   C1A44512   7.248   0.877  11.626 -0.0358 -0.0530 -0.1963
36400DOPC   D2A44513   6.887   0.599  11.877 -0.0521  0.0072 -0.0464
36400DOPC   C3A44514   6.815   0.586  12.319 -0.2207 -0.1877  0.0520
36400DOPC   C4A44515   6.635   0.466  12.733 -0.1907 -0.2722  0.1195
36400DOPC   C1B44516   7.463   1.435  12.035 -0.0027  0.0322 -0.0497
36400DOPC   D2B44517   7.272   1.478  12.520  0.2793  0.3888  0.1730
36400DOPC   C3B44518   7.485   1.272  12.853  0.1617 -0.0086  0.0423
36400DOPC   C4B44519   7.639   0.917  13.214 -0.0810  0.1820 -0.1273
36401DOPC   NC344520  16.474   0.689  10.954  0.0921  0.3359  0.2431
36401DOPC   PO444521  16.838   0.571  10.760  0.1553  0.1220  0.1114
36401DOPC   GL144522  17.080   0.585  11.103  0.0257 -0.1909 -0.0721
36401DOPC   GL244523  16.759   0.487  11.211  0.0698 -0.1533  0.0250
36401DOPC   C1A44524  17.088   0.764  11.518 -0.2211  0.0909 -0.2443
36401DOPC   D2A44525  16.971   0.888  11.964  0.0059  0.0070  0.0971
36401DOPC   C3A44526  17.033   0.764  12.381  0.0483  0.1375  0.0068
36401DOPC   C4A44527  16.940   0.739  12.859 -0.1828 -0.1898  0.3483
36401DOPC   C1B44528  16.622   0.526  11.613  0.0541 -0.0476  0.0642
36401DOPC   D2B44529  16.632   0.527  12.095  0.2169 -0.0054 -0.0191
36401DOPC   C3B44530  16.747   0.403  12.493  0.4028  0.0997  0.0092
36401DOPC   C4B44531  16.982   0.237  12.972 -0.2324 -0.0020  0.0153
36402DOPC   NC344532  28.652   0.117  11.218 -0.0071  0.1598  0.3004
36402DOPC   PO444533  28.528   0.440  11.041  0.0337 -0.2276 -0.0536
36402DOPC   GL144534  28.577   0.763  11.323 -0.1131  0.0684  0.1567
36402DOPC   GL244535  28.672   0.594  11.449 -0.2377 -0.2933  0.0487
36402DOPC   C1A44536  28.173   0.989  11.488 -0.2558  0.0721  0.1717
36402DOPC   D2A44537  27.837   1.221  11.729  0.0411  0.0223 -0.0019
36402DOPC   C3A44538  27.980   1.103  12.153  0.2575  0.1820  0.2670
36402DOPC   C4A44539  27.814   0.800  12.480  0.1765  0.1412 -0.1637
36402DOPC   C1B44540  28.406   0.371  11.805 -0.1678  0.2900 -0.0934
36402DOPC   D2B44541  28.242   0.182  12.228  0.1383 -0.1442  0.1576
36402DOPC   C3B44542  28.046   0.331  12.664 -0.0680  0.0148 -0.0216
36402DOPC   C4B44543  28.213   0.485  13.064  0.1059 -0.2677 -0.0566
36403DOPC   NC344544  24.882   4.237  11.393  0.0341  0.0406  0.4266
36403DOPC   PO444545  24.808   4.612  11.516 -0.1406  0.3910 -0.2211
36403DOPC   GL144546  24.572   4.424  11.966 -0.1693 -0.3388 -0.0234
36403DOPC   GL244547  24.920   4.522  11.979 -0.1797  0.0809 -0.0049
36403DOPC   C1A44548  24.729   4.325  12.408  0.2730 -0.0951 -0.2303
36403DOPC   D2A44549  24.719   4.322  12.923 -0.0961  0.1256  0.3286
36403DOPC   C3A44550  24.579   4.626  13.271  0.0930  0.2323  0.0313
36403DOPC   C4A44551  24.198   4.776  13.552  0.0101 -0.2290 -0.0945
36403DOPC   C1B44552  24.824   4.943  12.224  0.0174  0.2210  0.3260
36403DOPC   D2B44553  25.135   5.227  12.545  0.1644  0.1372 -0.0646
36403DOPC   C3B44554  24.820   5.130  12.851  0.2793 -0.0399 -0.0768
36403DOPC   C4B44555  24.466   5.154  13.201  0.1247 -0.1489 -0.0427
36404DOPC   NC344556  29.662   1.349  11.591 -0.1139  0.0925  0.1077
36404DOPC   PO444557  30.005   1.249  11.412 -0.2079 -0.2059  0.0124
36404DOPC   GL144558  30.239   1.089  11.716  0.4474  0.2129  0.0815
36404DOPC   GL244559  30.082   1.228  11.884  0.0576  0.0129  0.3014
36404DOPC   C1A44560  30.209   0.682  11.951 -0.3988  0.0544  0.3154
36404DOPC   D2A44561  30.379   0.217  12.075  0.0207  0.1841 -0.0455
36404DOPC   C3A44562  30.586   0.231  12.482  0.1210  0.1118  0.3878
36404DOPC   C4A44563  30.620  -0.006  12.850  0.0852 -0.0338 -0.0466
36404DOPC   C1B44564  29.958   0.979  12.252  0.0321 -0.0415  0.0659
36404DOPC   D2B44565  29.713   0.759  12.613 -0.1612 -0.1473 -0.0896
36404DOPC   C3B44566  29.904   0.428  12.924  0.0933 -0.0467 -0.1178
36404DOPC   C4B44567  29.835   0.308  13.394  0.5998 -0.1899  0.3968
36405DOPC   NC344568   9.829   2.490  10.971  0.0028  0.1012  0.0443
36405DOPC   PO444569  10.030   2.644  11.257  0.0950 -0.1441 -0.0712
36405DOPC   GL144570  10.034   2.605  11.709  0.5005 -0.4347 -0.1084
36405DOPC   GL244571   9.823   2.425  11.746  0.0670 -0.0412 -0.0996
36405DOPC   C1A44572  10.176   2.654  12.111 -0.2098 -0.1166 -0.0356
36405DOPC   D2A44573   9.905   2.693  12.515  0.3097  0.0712  0.1561
36405DOPC   C3A44574   9.832   3.120  12.724  0.2023  0.0114  0.2572
36405DOPC   C4A44575   9.941   3.525  13.018 -0.1259  0.0101 -0.0099
36405DOPC   C1B44576   9.738   2.380  12.144 -0.2445 -0.0934 -0.3584
36405DOPC   D2B44577   9.753   2.219  12.603  0.4139 -0.2377 -0.3933
36405DOPC   C3B44578   9.870   2.490  12.967 -0.1218 -0.2325 -0.0674
36405DOPC   C4B44579  10.049   2.872  13.207  0.0691  0.0333 -0.1485
36406DOPC   NC344580   3.666   7.399  10.529 -0.0904  0.0620  0.1211
36406DOPC   PO444581   3.790   7.346  10.913 -0.0283 -0.2281 -0.1058
36406DOPC   GL144582   3.814   7.442  11.328  0.1065 -0.0058 -0.2571
36406DOPC   GL244583   3.533   7.374  11.360 -0.0190 -0.0020 -0.3610
36406DOPC   C1A44584   3.760   7.841  11.610  0.0660  0.1190  0.0690
36406DOPC   D2A44585   3.961   7.856  12.051  0.0946 -0.3156 -0.0380
36406DOPC   C3A44586   4.016   7.871  12.494  0.1786 -0.0024  0.0080
36406DOPC   C4A44587   4.095   7.973  12.949  0.1757  0.1986  0.0688
36406DOPC   C1B44588   3.673   7.275  11.783  0.1872  0.1770 -0.0212
36406DOPC   D2B44589   3.848   7.407  12.242 -0.0901 -0.0456  0.0340
36406DOPC   C3B44590   4.335   7.494  12.167 -0.0677  0.0488 -0.0539
36406DOPC   C4B44591   4.834   7.592  12.122  0.3950  0.0835 -0.0292
36407DOPC   NC344592  25.843   5.792  11.488 -0.1604  0.3200  0.2138
36407DOPC   PO444593  26.034   6.052  11.759  0.4111 -0.0444 -0.3849
36407DOPC   GL144594  26.251   5.978  12.105 -0.2934  0.0827  0.1544
36407DOPC   GL244595  26.003   6.011  12.310  0.1846 -0.3636 -0.1439
36407DOPC   C1A44596  26.605   6.091  12.345 -0.0676  0.2040 -0.2623
36407DOPC   D2A44597  26.712   6.554  12.507  0.0918 -0.1115  0.0726
36407DOPC   C3A44598  26.514   6.703  12.908  0.1165  0.2092  0.0248
36407DOPC   C4A44599  26.228   6.993  13.231  0.0419 -0.0097 -0.1337
36407DOPC   C1B44600  26.120   5.877  12.737  0.1116 -0.1704  0.1220
36407DOPC   D2B44601  26.097   6.052  13.214 -0.0939  0.0062  0.0027
36407DOPC   C3B44602  26.477   6.335  13.350 -0.0129  0.1151  0.3167
36407DOPC   C4B44603  26.664   6.762  13.492 -0.2279 -0.1914  0.0284
36408DOPC   NC344604  31.138   4.765  11.179 -0.1890  0.1358 -0.1036
36408DOPC   PO444605  31.130   5.021  10.878 -0.1408 -0.0803  0.0009
36408DOPC   GL144606  31.067   5.266  11.215 -0.2785  0.2110 -0.0547
36408DOPC   GL244607  30.811   5.277  11.316 -0.2259 -0.0413  0.2278
36408DOPC   C1A44608  31.391   5.285  11.561  0.1527 -0.0413  0.1217
36408DOPC   D2A44609  31.476   5.348  12.059 -0.2528  0.1757  0.0915
36408DOPC   C3A44610  31.710   5.385  12.446  0.1776 -0.2945 -0.0940
36408DOPC   C4A44611  31.370   5.363  12.775  0.4000  0.2024 -0.1174
36408DOPC   C1B44612  30.851   5.290  11.726 -0.1054 -0.2583  0.0025
36408DOPC   D2B44613  30.604   5.471  12.189  0.0065 -0.0555 -0.0715
36408DOPC   C3B44614  30.650   5.577  12.692 -0.0485 -0.0174  0.1738
36408DOPC   C4B44615  30.579   5.573  13.201 -0.0507  0.2918 -0.0734
36409DOPC   NC344616  15.139   3.980  10.568 -0.0847 -0.1672  0.3949
36409DOPC   PO444617  15.508   3.958  10.701 -0.0924  0.0750 -0.2442
36409DOPC   GL144618  15.683   3.884  11.189 -0.2099 -0.1272  0.0534
36409DOPC   GL244619  15.636   4.153  11.159  0.2538  0.1221  0.3708
36409DOPC   C1A44620  15.621   3.827  11.650 -0.0637  0.0483 -0.1241
36409DOPC   D2A44621  15.561   3.782  12.154  0.0910 -0.0217 -0.0656
36409DOPC   C3A44622  15.207   3.502  12.386 -0.1890  0.2385  0.1510
36409DOPC   C4A44623  14.943   3.145  12.633 -0.1697  0.0211 -0.1852
36409DOPC   C1B44624  15.566   4.406  11.422 -0.0058  0.0291 -0.0272
36409DOPC   D2B44625  15.458   4.748  11.806  0.0809  0.1104 -0.0109
36409DOPC   C3B44626  15.285   4.860  12.271 -0.1020  0.1552 -0.1099
36409DOPC   C4B44627  15.206   5.026  12.778  0.1533 -0.0386 -0.2402
36410DOPC   NC344628  28.417   3.624  11.143  0.2523  0.0613  0.1055
36410DOPC   PO444629  28.473   3.239  11.196  0.3208 -0.0816 -0.2897
36410DOPC   GL144630  28.480   3.139  11.584 -0.1803 -0.2305  0.2061
36410DOPC   GL244631  28.386   3.363  11.736  0.0320 -0.1309 -0.4891
36410DOPC   C1A44632  28.525   2.856  11.897  0.2048 -0.3129  0.1414
36410DOPC   D2A44633  28.327   2.692  12.335  0.3022 -0.1161  0.0088
36410DOPC   C3A44634  28.537   2.743  12.808  0.0594 -0.0272 -0.1954
36410DOPC   C4A44635  28.738   3.103  13.043 -0.1443 -0.0141  0.2535
36410DOPC   C1B44636  28.241   3.581  12.004  0.0427  0.1476  0.2257
36410DOPC   D2B44637  28.007   4.003  12.099 -0.1118  0.2287 -0.0332
36410DOPC   C3B44638  27.905   3.854  12.506  0.2311  0.0203 -0.0769
36410DOPC   C4B44639  27.989   3.774  13.003  0.0852 -0.1326 -0.0213
36411DOPC   NC344640   0.297   1.344  10.900 -0.1198  0.1946 -0.0238
36411DOPC   PO444641   0.066   1.485  11.189  0.0340 -0.0150 -0.1301
36411DOPC   GL144642   0.144   1.442  11.649 -0.0200  0.1724 -0.1603
36411DOPC   GL244643   0.426   1.473  11.537 -0.3002  0.1649  0.0197
36411DOPC   C1A44644  -0.119   1.667  11.983 -0.1098  0.1467  0.3253
36411DOPC   D2A44645  -0.277   1.775  12.461  0.0035  0.2555 -0.0960
36411DOPC   C3A44646  -0.240   1.927  12.967  0.0082  0.0668  0.1956
36411DOPC   C4A44647  -0.395   2.064  13.444  0.2349  0.0158  0.1226
36411DOPC   C1B44648   0.780   1.432  11.842  0.1047  0.5362 -0.1576
36411DOPC   D2B44649   1.217   1.525  12.132  0.3411  0.0446 -0.1611
36411DOPC   C3B44650   1.229   1.429  12.607 -0.1324 -0.2200  0.3068
36411DOPC   C4B44651   1.242   1.205  13.059  0.1528  0.1206 -0.0660
36412DOPC   NC344652   8.266   3.387  11.277  0.2344  0.0674  0.2794
36412DOPC   PO444653   8.353   3.171  11.576 -0.0828  0.0440  0.2307
36412DOPC   GL144654   8.291   3.073  11.943  0.0305 -0.0182 -0.0751
36412DOPC   GL244655   8.046   3.225  11.859 -0.3221  0.0124 -0.1974
36412DOPC   C1A44656   8.445   3.027  12.371 -0.0275 -0.0028  0.2436
36412DOPC   D2A44657   8.188   2.992  12.844  0.1299 -0.0269  0.2331
36412DOPC   C3A44658   7.816   3.173  13.093 -0.2581 -0.0146  0.1002
36412DOPC   C4A44659   7.651   3.279  13.549 -0.3514 -0.0062 -0.3784
36412DOPC   C1B44660   7.950   3.267  12.327  0.2471 -0.3447 -0.1509
36412DOPC   D2B44661   7.974   3.505  12.799  0.0776 -0.1781  0.1362
36412DOPC   C3B44662   8.277   3.339  13.170 -0.0047  0.0618 -0.0660
36412DOPC   C4B44663   8.606   3.007  13.470 -0.0403  0.0247 -0.2421
36413DOPC   NC344664  30.821   6.966  10.602  0.4629 -0.1196  0.0682
36413DOPC   PO444665  30.487   6.730  10.664 -0.1089  0.2457  0.0269
36413DOPC   GL144666  30.374   6.864  11.092  0.0201  0.1444 -0.6264
36413DOPC   GL244667  30.441   6.640  11.208 -0.0584 -0.0448  0.5727
36413DOPC   C1A44668  30.621   7.041  11.406  0.0126  0.3623 -0.0986
36413DOPC   D2A44669  30.948   7.155  11.780 -0.2323  0.0375 -0.1575
36413DOPC   C3A44670  30.900   7.080  12.194 -0.1406  0.0003 -0.0511
36413DOPC   C4A44671  30.866   6.870  12.652 -0.2091 -0.1318  0.0580
36413DOPC   C1B44672  30.306   6.583  11.566 -0.3879  0.1784 -0.1186
36413DOPC   D2B44673  30.420   6.844  11.982  0.3555  0.1864 -0.0137
36413DOPC   C3B44674  30.425   6.746  12.431 -0.3824 -0.1788 -0.0096
36413DOPC   C4B44675  30.387   6.765  12.951 -0.0124  0.0308 -0.0310
36414DOPC   NC344676  28.493   6.026  11.152 -0.0040  0.2734 -0.1522
36414DOPC   PO444677  28.222   6.175  11.352  0.2017  0.0784  0.2514
36414DOPC   GL144678  28.271   6.349  11.708 -0.0022  0.0359  0.1428
36414DOPC   GL244679  28.157   6.546  11.725 -0.2432 -0.1224 -0.1911
36414DOPC   C1A44680  28.349   6.146  12.012  0.4887  0.1192  0.2051
36414DOPC   D2A44681  28.593   5.740  12.127  0.1839 -0.2139  0.0370
36414DOPC   C3A44682  28.408   5.479  12.504 -0.3334 -0.1115 -0.1685
36414DOPC   C4A44683  28.288   5.268  12.955 -0.0757 -0.0242 -0.2831
36414DOPC   C1B44684  28.185   6.689  12.108 -0.2989 -0.0147  0.2355
36414DOPC   D2B44685  27.993   6.621  12.588  0.1570 -0.0101  0.3031
36414DOPC   C3B44686  28.345   6.685  12.902 -0.0677 -0.2859  0.1172
36414DOPC   C4B44687  28.311   6.784  13.407  0.1495 -0.0561  0.1098
36415DOPC   NC344688  26.246   3.221  10.949  0.1815 -0.2565  0.2742
36415DOPC   PO444689  26.607   3.299  11.084  0.2455 -0.1846  0.1434
36415DOPC   GL144690  26.436   3.234  11.490  0.3425 -0.0931  0.1939
36415DOPC   GL244691  26.205   3.443  11.371 -0.1083  0.0794  0.0860
36415DOPC   C1A44692  26.459   3.354  11.932 -0.1241 -0.0601 -0.2407
36415DOPC   D2A44693  26.682   3.374  12.419 -0.0836 -0.0726  0.0994
36415DOPC   C3A44694  26.365   3.624  12.625 -0.2575  0.0437 -0.1581
36415DOPC   C4A44695  26.172   3.773  13.092  0.3471 -0.1369  0.2362
36415DOPC   C1B44696  26.051   3.602  11.710 -0.0575 -0.2288 -0.0663
36415DOPC   D2B44697  25.670   3.502  12.070  0.0062  0.2652  0.0584
36415DOPC   C3B44698  25.434   3.437  12.454  0.0041 -0.0038 -0.1380
36415DOPC   C4B44699  25.346   3.406  12.958  0.0535 -0.0788  0.1316
36416DOPC   NC344700   9.160   3.101  11.041 -0.1072 -0.0972 -0.1361
36416DOPC   PO444701   9.140   3.121  11.437  0.0466 -0.1751 -0.4023
36416DOPC   GL144702   8.984   2.838  11.671  0.0750 -0.0405  0.2913
36416DOPC   GL244703   8.696   2.869  11.604  0.0108 -0.0828 -0.0001
36416DOPC   C1A44704   8.941   2.854  12.108 -0.2150  0.3481 -0.1322
36416DOPC   D2A44705   8.837   2.758  12.584 -0.2187 -0.0875 -0.1204
36416DOPC   C3A44706   8.829   2.727  13.072  0.1790  0.0263 -0.0998
36416DOPC   C4A44707   8.801   2.530  13.516 -0.0469  0.0174  0.2447
36416DOPC   C1B44708   8.507   2.629  11.905 -0.3471 -0.3365  0.1378
36416DOPC   D2B44709   8.471   2.416  12.380  0.1154  0.1448 -0.5167
36416DOPC   C3B44710   8.443   2.466  12.857  0.1083 -0.0299  0.2075
36416DOPC   C4B44711   8.299   2.499  13.346  0.2915  0.2516 -0.2071
36417DOPC   NC344712   5.928   7.530  11.020  0.0236  0.0604 -0.0546
36417DOPC   PO444713   6.287   7.433  10.938  0.2050  0.0472  0.1379
36417DOPC   GL144714   6.449   7.221  11.295  0.0815  0.2109 -0.0991
36417DOPC   GL244715   6.205   7.139  11.249  0.2416 -0.0866 -0.0989
36417DOPC   C1A44716   6.431   7.293  11.703 -0.0839 -0.0148  0.0023
36417DOPC   D2A44717   6.644   7.422  12.157  0.1516  0.0205  0.1901
36417DOPC   C3A44718   6.639   7.375  12.605 -0.1210 -0.1064  0.0112
36417DOPC   C4A44719   6.669   7.269  13.073 -0.0853 -0.1145 -0.2991
36417DOPC   C1B44720   5.965   7.181  11.574  0.2509 -0.1147  0.2611
36417DOPC   D2B44721   5.976   7.137  12.031 -0.1118 -0.2978 -0.3295
36417DOPC   C3B44722   6.103   6.825  12.305 -0.2058  0.0049 -0.0851
36417DOPC   C4B44723   6.225   6.462  12.654  0.0139  0.0996  0.0798
36418DOPC   NC344724  26.906   4.424  11.556  0.0145  0.0903 -0.0434
36418DOPC   PO444725  26.765   4.827  11.537 -0.0711  0.1752  0.1864
36418DOPC   GL144726  27.034   4.978  11.720  0.0524 -0.0028 -0.2923
36418DOPC   GL244727  27.213   4.694  11.776 -0.0843 -0.1094  0.0767
36418DOPC   C1A44728  26.978   5.199  12.092  0.1296  0.3517  0.3496
36418DOPC   D2A44729  27.027   5.416  12.567 -0.0006  0.0305 -0.0950
36418DOPC   C3A44730  27.380   5.473  12.886 -0.1582  0.0239  0.0148
36418DOPC   C4A44731  27.785   5.259  12.849 -0.0813  0.0012 -0.1888
36418DOPC   C1B44732  27.230   4.674  12.183 -0.1612 -0.1378 -0.0460
36418DOPC   D2B44733  27.138   4.575  12.649 -0.1033  0.1444  0.1102
36418DOPC   C3B44734  26.938   4.275  13.028  0.0259 -0.1120  0.1117
36418DOPC   C4B44735  26.750   3.877  13.289 -0.1128  0.3086 -0.1165
36419DOPC   NC344736  10.083   1.532  10.832  0.1226  0.0253 -0.0885
36419DOPC   PO444737  10.098   1.856  11.110 -0.2979  0.0093 -0.0589
36419DOPC   GL144738  10.079   1.897  11.498 -0.2745  0.0439  0.2081
36419DOPC   GL244739  10.187   2.167  11.510 -0.3288 -0.1220 -0.3165
36419DOPC   C1A44740  10.298   1.744  11.803  0.0185 -0.1238  0.1216
36419DOPC   D2A44741  10.215   1.398  12.133  0.1646  0.1804 -0.2626
36419DOPC   C3A44742  10.351   1.462  12.608 -0.4334 -0.1741 -0.0346
36419DOPC   C4A44743  10.307   1.531  13.049 -0.2507  0.2809  0.0916
36419DOPC   C1B44744  10.370   2.237  11.918 -0.0767 -0.0987 -0.0191
36419DOPC   D2B44745  10.494   2.395  12.419  0.1589  0.0263 -0.2571
36419DOPC   C3B44746  10.338   2.515  12.805 -0.2743  0.1020 -0.2383
36419DOPC   C4B44747  10.263   2.377  13.306  0.1895  0.1567 -0.0996
36420DOPC   NC344748   6.773   3.755  11.084 -0.2868 -0.0069 -0.1404
36420DOPC   PO444749   6.765   4.159  11.159  0.2464 -0.1830  0.0319
36420DOPC   GL144750   6.504   4.178  11.526 -0.2139  0.2278  0.1029
36420DOPC   GL244751   6.511   3.965  11.461 -0.0620 -0.1922 -0.0274
36420DOPC   C1A44752   6.209   4.244  11.821 -0.1930  0.0426  0.1064
36420DOPC   D2A44753   5.830   4.104  12.123 -0.0083  0.3489  0.1321
36420DOPC   C3A44754   6.003   4.250  12.503  0.0621  0.0855  0.0897
36420DOPC   C4A44755   6.270   4.518  12.859 -0.4677 -0.1799  0.0062
36420DOPC   C1B44756   6.320   3.707  11.778  0.0695  0.1536 -0.1663
36420DOPC   D2B44757   6.350   3.516  12.281  0.0061 -0.0948  0.1362
36420DOPC   C3B44758   6.049   3.597  12.638  0.0725  0.0736  0.2181
36420DOPC   C4B44759   5.965   3.439  13.097  0.2104 -0.0819  0.0089
36421DOPC   NC344760  13.138   0.106  10.666 -0.1539 -0.3353 -0.0655
36421DOPC   PO444761  13.080  -0.178  10.940  0.2135  0.1961  0.1909
36421DOPC   GL144762  13.299  -0.258  11.283 -0.1988 -0.4319 -0.1346
36421DOPC   GL244763  13.335  -0.500  11.260 -0.2521  0.2199 -0.4298
36421DOPC   C1A44764  13.449  -0.363  11.699  0.1430  0.0275  0.2087
36421DOPC   D2A44765  13.692  -0.245  12.148 -0.2345  0.1986 -0.1231
36421DOPC   C3A44766  13.712  -0.313  12.646 -0.3388  0.1123  0.1680
36421DOPC   C4A44767  13.825  -0.400  13.152 -0.0211  0.0093 -0.0423
36421DOPC   C1B44768  13.724  -0.668  11.282  0.1666  0.2994  0.2330
36421DOPC   D2B44769  13.939  -1.113  11.311  0.0461 -0.0554 -0.2323
36421DOPC   C3B44770  14.151  -0.939  11.741 -0.2716 -0.0191  0.1137
36421DOPC   C4B44771  14.258  -0.901  12.254 -0.0728  0.1526  0.1435
36422DOPA   PO444772  18.280   2.793  11.168 -0.2973 -0.0026  0.1089
36422DOPA   GL144773  18.158   2.809  11.525 -0.3300 -0.0719 -0.1653
36422DOPA   GL244774  17.851   2.739  11.519  0.1349 -0.2706  0.0667
36422DOPA   C1A44775  18.423   2.745  11.878 -0.1974  0.0010 -0.0333
36422DOPA   D2A44776  18.722   2.626  12.250  0.2282  0.1299  0.0789
36422DOPA   C3A44777  18.951   2.658  12.679 -0.1946 -0.2346 -0.1257
36422DOPA   C4A44778  19.031   2.229  12.973  0.1963  0.1513  0.2235
36422DOPA   C1B44779  17.459   2.654  11.693 -0.1414  0.1262  0.0208
36422DOPA   D2B44780  17.345   2.861  12.150  0.2563  0.1916 -0.1313
36422DOPA   C3B44781  17.406   3.027  12.617  0.0945 -0.0679  0.1430
36422DOPA   C4B44782  17.428   3.090  13.100  0.1476  0.0547 -0.1472
36423DOPA   PO444783  18.912   5.016  11.255  0.2013  0.4001  0.1109
36423DOPA   GL144784  19.017   4.939  11.698  0.1331 -0.0304  0.0040
36423DOPA   GL244785  18.989   4.655  11.660 -0.0136 -0.0872  0.1571
36423DOPA   C1A44786  18.753   5.011  12.062 -0.0698  0.2290  0.1764
36423DOPA   D2A44787  18.795   5.331  12.491 -0.0303  0.1938  0.3996
36423DOPA   C3A44788  19.018   5.742  12.711 -0.1851 -0.0088  0.1522
36423DOPA   C4A44789  19.195   6.215  12.688 -0.0090 -0.0572  0.0266
36423DOPA   C1B44790  19.265   4.575  12.040  0.1072 -0.2300 -0.1596
36423DOPA   D2B44791  19.534   4.286  12.406 -0.0193 -0.1191  0.2125
36423DOPA   C3B44792  19.713   3.929  12.587 -0.2006 -0.4323  0.1202
36423DOPA   C4B44793  19.866   3.743  12.982  0.0161  0.0461 -0.0134
36424DOPA   PO444794  10.227   3.092  11.429  0.1085  0.0155 -0.0481
36424DOPA   GL144795  10.065   3.054  11.745 -0.2008 -0.1680 -0.1360
36424DOPA   GL244796  10.329   3.011  11.871  0.3010  0.1771  0.2188
36424DOPA   C1A44797   9.730   2.963  12.074 -0.0125 -0.0569 -0.3142
36424DOPA   D2A44798   9.335   3.176  12.311  0.1129  0.2474 -0.1160
36424DOPA   C3A44799   9.394   3.410  12.708 -0.1824  0.0377  0.1003
36424DOPA   C4A44800   9.641   3.920  12.795  0.1491  0.1259  0.3171
36424DOPA   C1B44801  10.493   3.282  12.144  0.0898  0.3745  0.2055
36424DOPA   D2B44802  10.638   3.374  12.602  0.0060  0.1985  0.0911
36424DOPA   C3B44803  10.432   3.537  12.980  0.1914  0.0966  0.1970
36424DOPA   C4B44804  10.290   3.811  13.417 -0.0082 -0.3616  0.0579
36425DOPA   PO444805  10.182   4.602  11.007  0.1724 -0.1989  0.2637
36425DOPA   GL144806  10.448   4.548  11.365  0.0974 -0.0821 -0.0472
36425DOPA   GL244807  10.164   4.538  11.526 -0.1963 -0.2082  0.0718
36425DOPA   C1A44808  10.673   4.272  11.591 -0.1347  0.0816  0.0412
36425DOPA   D2A44809  10.820   4.194  12.057  0.0578 -0.1352  0.3088
36425DOPA   C3A44810  10.926   4.273  12.509 -0.0790  0.0157 -0.0505
36425DOPA   C4A44811  11.056   4.268  12.986 -0.2452 -0.2392 -0.0892
36425DOPA   C1B44812  10.268   4.286  11.872  0.0584  0.0421  0.0112
36425DOPA   D2B44813  10.356   3.818  11.982  0.0714 -0.0890  0.1385
36425DOPA   C3B44814  10.504   3.841  12.454 -0.1394 -0.1000  0.0265
36425DOPA   C4B44815  10.680   4.011  12.852 -0.0954  0.0971  0.3560
36426DOPA   PO444816   1.218   0.905  11.089  0.1737  0.1382 -0.0813
36426DOPA   GL144817   1.300   0.864  11.563 -0.1292 -0.0226 -0.2475
36426DOPA   GL244818   1.175   1.042  11.694  0.0358 -0.1020 -0.0830
36426DOPA   C1A44819   1.226   0.572  11.966  0.0961 -0.2977 -0.0854
36426DOPA   D2A44820   1.442   0.324  12.350 -0.1324 -0.1509 -0.2326
36426DOPA   C3A44821   1.318   0.121  12.763 -0.0515 -0.0762  0.1869
36426DOPA   C4A44822   1.132  -0.222  13.030 -0.2077 -0.0964 -0.0899
36426DOPA   C1B44823   1.121   1.079  12.115 -0.1878 -0.0151 -0.0505
36426DOPA   D2B44824   1.007   1.011  12.655  0.3803 -0.2542  0.0613
36426DOPA   C3B44825   0.849   0.788  13.037 -0.0337 -0.2196 -0.0066
36426DOPA   C4B44826   0.546   0.588  13.247  0.1256  0.1165  0.2291
36427DOPA   PO444827  18.464   1.472  10.944 -0.1379 -0.1502 -0.3571
36427DOPA   GL144828  18.645   1.399  11.329  0.0239  0.0187 -0.4000
36427DOPA   GL244829  18.654   1.716  11.382  0.4655 -0.0174  0.0934
36427DOPA   C1A44830  18.338   1.299  11.626 -0.2122 -0.0410  0.1983
36427DOPA   D2A44831  17.945   1.380  11.843 -0.1299  0.1096 -0.1657
36427DOPA   C3A44832  17.908   1.254  12.328  0.1822 -0.4560 -0.0727
36427DOPA   C4A44833  18.030   1.146  12.838 -0.2390  0.1288  0.0165
36427DOPA   C1B44834  18.382   1.784  11.700  0.0137  0.2377 -0.1348
36427DOPA   D2B44835  17.990   1.957  12.037  0.0383  0.0812 -0.1337
36427DOPA   C3B44836  17.770   2.114  12.451 -0.1297 -0.0936 -0.0307
36427DOPA   C4B44837  17.830   2.382  12.873  0.0093  0.2153  0.2673
36428DOPA   PO444838  18.552   4.583  10.991  0.1075  0.2668  0.2120
36428DOPA   GL144839  18.385   4.269  11.299 -0.3715  0.0589 -0.0987
36428DOPA   GL244840  18.130   4.491  11.233  0.2648  0.1145  0.1821
36428DOPA   C1A44841  18.240   4.136  11.716 -0.2131  0.1097  0.1865
36428DOPA   D2A44842  17.898   3.971  11.957 -0.2144 -0.2422  0.1395
36428DOPA   C3A44843  17.575   3.618  11.939  0.4180  0.0203  0.1485
36428DOPA   C4A44844  17.295   3.234  11.813  0.4913 -0.0203  0.1030
36428DOPA   C1B44845  17.854   4.451  11.567 -0.0904 -0.1679  0.0665
36428DOPA   D2B44846  17.658   4.413  12.047 -0.0277 -0.0501  0.2836
36428DOPA   C3B44847  17.343   4.331  12.315 -0.1097 -0.2678 -0.1799
36428DOPA   C4B44848  16.974   4.171  12.563  0.1112 -0.0399 -0.1269
36429DOPA   PO444849  16.460   2.855  10.860 -0.0320  0.0503 -0.2365
36429DOPA   GL144850  16.090   2.859  11.158 -0.2811  0.1116  0.1786
36429DOPA   GL244851  16.277   3.087  11.304 -0.1080 -0.0582  0.2063
36429DOPA   C1A44852  15.705   2.854  11.187 -0.2434 -0.0322  0.0693
36429DOPA   D2A44853  15.294   3.031  11.169  0.1740  0.1082 -0.1516
36429DOPA   C3A44854  15.053   2.999  11.612 -0.0571  0.2954 -0.0029
36429DOPA   C4A44855  15.126   2.919  12.095  0.1249 -0.0735  0.0521
36429DOPA   C1B44856  16.077   3.010  11.711  0.2006 -0.0355  0.0124
36429DOPA   D2B44857  16.070   2.897  12.170  0.1346  0.3125 -0.1900
36429DOPA   C3B44858  15.914   2.886  12.596 -0.0116 -0.1141  0.1495
36429DOPA   C4B44859  15.422   2.973  12.727 -0.1347  0.2107  0.1789
36430DOPA   PO444860  23.731   3.811  11.200 -0.2365 -0.1337 -0.0517
36430DOPA   GL144861  23.831   3.512  11.491  0.0238  0.0400 -0.6974
36430DOPA   GL244862  23.605   3.580  11.655 -0.0006 -0.1122  0.0674
36430DOPA   C1A44863  23.983   3.387  11.844  0.2043  0.1369  0.0934
36430DOPA   D2A44864  24.239   3.582  12.198  0.1596  0.1441 -0.2800
36430DOPA   C3A44865  24.511   3.626  12.571  0.1073 -0.0451  0.1790
36430DOPA   C4A44866  24.548   3.787  12.989  0.0203 -0.2867 -0.2157
36430DOPA   C1B44867  23.536   3.633  12.031 -0.0013 -0.2454 -0.0913
36430DOPA   D2B44868  23.501   3.681  12.533 -0.0621  0.1760  0.0185
36430DOPA   C3B44869  23.394   3.506  12.957 -0.1825 -0.0477 -0.0306
36430DOPA   C4B44870  23.381   3.590  13.480  0.0499  0.0237  0.2573
36431DOPA   PO444871   0.131   7.457  11.697  0.1761 -0.1263  0.1412
36431DOPA   GL144872   0.039   7.310  12.093  0.0004  0.0322 -0.2705
36431DOPA   GL244873   0.166   7.010  11.951  0.1595  0.1516 -0.0556
36431DOPA   C1A44874   0.084   7.277  12.523  0.1172 -0.3093 -0.2186
36431DOPA   D2A44875  -0.211   7.453  12.955  0.2281  0.1467  0.1281
36431DOPA   C3A44876  -0.129   7.833  13.213  0.1312 -0.3082 -0.1529
36431DOPA   C4A44877   0.229   8.074  13.415 -0.1694 -0.0169  0.2033
36431DOPA   C1B44878   0.238   6.622  12.224 -0.2023  0.1632  0.0213
36431DOPA   D2B44879   0.478   6.428  12.559 -0.0684 -0.1458 -0.0487
36431DOPA   C3B44880   0.623   6.323  12.945 -0.0564 -0.1101  0.0516
36431DOPA   C4B44881   0.578   6.325  13.468 -0.1453 -0.0148 -0.0108
36432DOPA   PO444882  29.449   7.516  10.965 -0.1110  0.2563 -0.4270
36432DOPA   GL144883  29.426   7.321  11.360  0.4304 -0.0974 -0.3454
36432DOPA   GL244884  29.643   7.391  11.358 -0.0642  0.2194  0.0947
36432DOPA   C1A44885  29.453   7.014  11.619  0.0636  0.1255 -0.3738
36432DOPA   D2A44886  29.547   6.710  12.066  0.0915 -0.2527  0.0512
36432DOPA   C3A44887  29.929   6.429  11.970 -0.0723  0.2460 -0.1078
36432DOPA   C4A44888  30.440   6.351  12.077 -0.0240  0.0712  0.0605
36432DOPA   C1B44889  29.759   7.356  11.745  0.0396  0.2333  0.1001
36432DOPA   D2B44890  29.908   7.169  12.206 -0.1998  0.1125 -0.2334
36432DOPA   C3B44891  29.989   7.271  12.639 -0.1033 -0.1091  0.1464
36432DOPA   C4B44892  29.795   7.364  13.073 -0.2365  0.1388  0.1982
36433DOPA   PO444893  13.668   6.992  10.479  0.0628  0.1074  0.0380
36433DOPA   GL144894  13.688   7.026  10.843 -0.2276 -0.4997 -0.0794
36433DOPA   GL244895  14.058   6.954  10.896  0.0330  0.3887 -0.3244
36433DOPA   C1A44896  13.446   6.736  11.165  0.1141  0.0759 -0.0040
36433DOPA   D2A44897  13.080   6.519  11.454 -0.0778  0.2489 -0.1257
36433DOPA   C3A44898  13.068   6.071  11.609  0.0589 -0.3087  0.0233
36433DOPA   C4A44899  13.439   5.839  11.811 -0.0676  0.0841 -0.3292
36433DOPA   C1B44900  14.338   6.918  11.209 -0.1736 -0.0023  0.2006
36433DOPA   D2B44901  14.854   7.003  11.390 -0.1407 -0.0309  0.1414
36433DOPA   C3B44902  15.016   7.162  11.871 -0.0736  0.1801  0.5190
36433DOPA   C4B44903  15.104   7.056  12.309 -0.1351 -0.2517  0.3082
36434DOPA   PO444904  27.833   6.439  11.162  0.1806 -0.3560 -0.0139
36434DOPA   GL144905  27.765   6.728  11.463  0.2041  0.4041  0.3095
36434DOPA   GL244906  27.508   6.688  11.486  0.1297 -0.1164 -0.0566
36434DOPA   C1A44907  27.871   6.887  11.795 -0.1524  0.0678  0.1129
36434DOPA   D2A44908  27.674   6.723  12.228 -0.1193 -0.0357 -0.0483
36434DOPA   C3A44909  27.444   6.455  12.439  0.0794  0.0471  0.3719
36434DOPA   C4A44910  27.106   6.430  12.813  0.3609  0.2306  0.0651
36434DOPA   C1B44911  27.332   6.628  11.864  0.1219  0.0615  0.2275
36434DOPA   D2B44912  27.067   6.671  12.187  0.2825 -0.1825 -0.1142
36434DOPA   C3B44913  27.074   6.856  12.638  0.0204  0.0754 -0.0054
36434DOPA   C4B44914  26.995   6.793  13.123 -0.0644 -0.0958  0.3014
36435DOPA   PO444915   6.981   6.918  10.698  0.1951  0.0131 -0.1058
36435DOPA   GL144916   7.026   6.777  11.136 -0.1803  0.2531 -0.2725
36435DOPA   GL244917   6.932   7.038  11.233 -0.1384  0.2811  0.2184
36435DOPA   C1A44918   7.081   6.522  11.511  0.0459  0.0831  0.0567
36435DOPA   D2A44919   7.033   6.616  12.079  0.0869 -0.2855 -0.0311
36435DOPA   C3A44920   7.279   6.404  12.454  0.0177  0.2263 -0.0695
36435DOPA   C4A44921   7.306   6.305  12.915  0.2353 -0.1554  0.1522
36435DOPA   C1B44922   6.800   6.953  11.601  0.0737 -0.0923 -0.0842
36435DOPA   D2B44923   6.605   6.915  12.039  0.4479  0.0521  0.0961
36435DOPA   C3B44924   6.599   6.899  12.529  0.0490  0.2233 -0.0891
36435DOPA   C4B44925   6.576   6.727  12.978 -0.1546 -0.0585 -0.1674
36436DOPA   PO444926  15.588   2.440  10.497 -0.0088 -0.3679 -0.0408
36436DOPA   GL144927  15.603   2.466  10.939  0.1582 -0.2472 -0.2578
36436DOPA   GL244928  15.340   2.607  11.000 -0.5488  0.4169 -0.1297
36436DOPA   C1A44929  15.942   2.350  11.153 -0.1033  0.0150 -0.2311
36436DOPA   D2A44930  16.246   2.265  11.521 -0.1711  0.2751 -0.4909
36436DOPA   C3A44931  16.191   2.441  11.922  0.0490 -0.1821  0.0574
36436DOPA   C4A44932  16.241   2.554  12.448  0.0228 -0.3284  0.0336
36436DOPA   C1B44933  15.340   2.614  11.417  0.2656 -0.4196  0.1484
36436DOPA   D2B44934  15.211   2.478  11.901  0.0211 -0.2183 -0.4279
36436DOPA   C3B44935  14.821   2.273  12.024 -0.1857  0.0553  0.2101
36436DOPA   C4B44936  14.479   2.005  11.901 -0.0483 -0.4420  0.3308
36437DOPA   PO444937  26.626   4.208  11.170 -0.2110 -0.0110  0.0492
36437DOPA   GL144938  26.736   3.917  11.437 -0.1509 -0.1640  0.1515
36437DOPA   GL244939  27.023   3.941  11.547  0.3066 -0.1881 -0.0159
36437DOPA   C1A44940  26.513   3.827  11.883  0.1614  0.0891  0.1461
36437DOPA   D2A44941  26.139   3.755  12.219  0.2802  0.1465  0.0273
36437DOPA   C3A44942  26.021   4.067  12.545 -0.0644  0.1035 -0.0400
36437DOPA   C4A44943  26.121   4.463  12.824 -0.0646 -0.0966 -0.0185
36437DOPA   C1B44944  27.076   4.104  12.012 -0.0933 -0.1748  0.1815
36437DOPA   D2B44945  26.984   4.079  12.518  0.1054 -0.0294 -0.2782
36437DOPA   C3B44946  26.937   3.702  12.775  0.2324  0.2449 -0.0950
36437DOPA   C4B44947  26.671   3.278  12.981  0.1275  0.0696  0.1788
36438DOPA   PO444948  27.756   4.698  11.298 -0.0130  0.1352  0.1325
36438DOPA   GL144949  27.886   4.553  11.657 -0.0540 -0.1275 -0.1166
36438DOPA   GL244950  28.110   4.733  11.805  0.0135  0.5016 -0.1591
36438DOPA   C1A44951  27.631   4.293  11.939  0.1767 -0.1073  0.1128
36438DOPA   D2A44952  27.451   4.232  12.427 -0.1372  0.0349  0.1461
36438DOPA   C3A44953  27.463   4.225  12.858 -0.3198 -0.2454  0.2006
36438DOPA   C4A44954  27.400   4.295  13.340  0.1905  0.3318  0.0596
36438DOPA   C1B44955  27.711   4.770  12.082  0.2262 -0.2417 -0.0798
36438DOPA   D2B44956  27.482   5.064  12.436 -0.0947  0.0190  0.2047
36438DOPA   C3B44957  27.210   5.005  12.753 -0.2266 -0.1075 -0.1179
36438DOPA   C4B44958  27.159   4.702  13.182  0.1844 -0.2451 -0.0997
36439DOPA   PO444959  23.988   5.156  11.652 -0.2597  0.4113  0.0489
36439DOPA   GL144960  24.173   5.263  12.058  0.0017 -0.0460 -0.0808
36439DOPA   GL244961  24.404   5.054  12.034  0.1032 -0.0305  0.1407
36439DOPA   C1A44962  24.189   5.581  12.360 -0.0301  0.0567  0.0273
36439DOPA   D2A44963  23.933   5.922  12.718  0.1701  0.3347  0.1044
36439DOPA   C3A44964  24.203   6.033  13.070 -0.3670  0.3730 -0.1721
36439DOPA   C4A44965  24.345   6.169  13.495  0.3398  0.2584 -0.0634
36439DOPA   C1B44966  24.441   5.212  12.460 -0.1262  0.2719  0.1038
36439DOPA   D2B44967  24.383   5.529  12.858 -0.0124  0.3544 -0.1682
36439DOPA   C3B44968  24.697   5.715  13.085 -0.0528 -0.0707  0.2990
36439DOPA   C4B44969  25.100   5.983  13.237  0.0585  0.0281  0.1843
36440DOPA   PO444970  29.462   4.501  10.895  0.4424  0.0842  0.2649
36440DOPA   GL144971  29.723   4.432  11.184 -0.1473 -0.2519 -0.2234
36440DOPA   GL244972  29.977   4.590  11.114  0.1234 -0.0776  0.3271
36440DOPA   C1A44973  29.640   4.474  11.619 -0.1579 -0.1043  0.1745
36440DOPA   D2A44974  29.586   4.540  12.094 -0.1361 -0.2348 -0.0585
36440DOPA   C3A44975  29.483   4.100  12.251 -0.2551  0.3320 -0.2215
36440DOPA   C4A44976  29.484   3.651  12.382 -0.3300 -0.2993  0.1070
36440DOPA   C1B44977  30.109   4.637  11.513 -0.1473  0.0566  0.2093
36440DOPA   D2B44978  30.220   4.500  12.013  0.4260  0.3588 -0.0550
36440DOPA   C3B44979  30.064   4.430  12.468 -0.1026  0.1788 -0.0040
36440DOPA   C4B44980  29.986   4.307  12.886 -0.3716  0.0800 -0.0491
36441DOPA   PO444981  16.185   7.647  10.812 -0.1737 -0.1249  0.2431
36441DOPA   GL144982  16.132   7.627  11.178 -0.1151 -0.1582  0.0933
36441DOPA   GL244983  16.333   7.448  11.273 -0.0143  0.0338  0.1718
36441DOPA   C1A44984  15.824   7.454  11.475  0.1359 -0.2943 -0.2939
36441DOPA   D2A44985  15.998   7.129  11.782  0.1147 -0.0574 -0.1306
36441DOPA   C3A44986  16.010   6.799  12.099 -0.0556 -0.1397  0.0245
36441DOPA   C4A44987  15.970   6.537  12.556  0.3181  0.1930 -0.0129
36441DOPA   C1B44988  16.379   7.441  11.732  0.3491 -0.0142  0.0932
36441DOPA   D2B44989  16.215   7.366  12.156 -0.1385  0.4140 -0.1463
36441DOPA   C3B44990  15.737   7.304  12.188 -0.0615  0.1037  0.2547
36441DOPA   C4B44991  15.386   7.491  11.983  0.3477  0.1262  0.1453
36442DOPA   PO444992   9.029   5.571  11.050 -0.5018 -0.0535  0.2697
36442DOPA   GL144993   9.033   5.500  11.500 -0.0736  0.1336 -0.4990
36442DOPA   GL244994   9.064   5.779  11.536  0.0878 -0.0035 -0.0358
36442DOPA   C1A44995   8.968   5.168  11.815  0.0513  0.0466  0.0658
36442DOPA   D2A44996   8.992   5.042  12.341 -0.1460 -0.0526  0.1165
36442DOPA   C3A44997   9.289   4.945  12.624 -0.3101  0.0854 -0.1715
36442DOPA   C4A44998   9.580   4.858  13.011 -0.3569  0.3429  0.1462
36442DOPA   C1B44999   8.946   6.014  11.835 -0.1138 -0.2815  0.1317
36442DOPA   D2B45000   8.652   6.360  12.139 -0.0672  0.0766 -0.4470
36442DOPA   C3B45001   8.582   6.382  12.597  0.0276 -0.0672 -0.2920
36442DOPA   C4B45002   8.226   6.229  12.852  0.0362  0.0019 -0.1956
36443DOPA   PO445003   6.820   5.399  10.976 -0.0238 -0.1852  0.0085
36443DOPA   GL145004   6.697   5.662  11.303  0.1811  0.1315 -0.0204
36443DOPA   GL245005   6.867   5.594  11.534  0.5239  0.0384  0.1456
36443DOPA   C1A45006   6.653   5.984  11.529 -0.1301 -0.1796 -0.0340
36443DOPA   D2A45007   6.630   6.444  11.765  0.3067 -0.0014  0.0134
36443DOPA   C3A45008   6.580   6.422  12.221  0.0840 -0.1210  0.1190
36443DOPA   C4A45009   6.851   6.471  12.651  0.3271  0.2140  0.1351
36443DOPA   C1B45010   6.819   5.661  12.007 -0.0390  0.1533 -0.0808
36443DOPA   D2B45011   6.666   5.584  12.437  0.2369  0.0839 -0.2770
36443DOPA   C3B45012   6.806   5.479  12.872  0.1963  0.0455  0.0479
36443DOPA   C4B45013   6.879   5.092  13.101 -0.0683  0.1296  0.0021
36444DOPA   PO445014  15.192   7.750  10.736 -0.0430 -0.2892 -0.2316
36444DOPA   GL145015  15.109   7.668  11.134  0.1843  0.1422 -0.0882
36444DOPA   GL245016  14.863   7.827  11.195  0.1025  0.2209 -0.0500
36444DOPA   C1A45017  15.264   7.440  11.474 -0.0090 -0.0028  0.0942
36444DOPA   D2A45018  15.525   7.055  11.667 -0.0963  0.1208 -0.0023
36444DOPA   C3A45019  15.509   6.869  12.098  0.2225  0.2918 -0.2920
36444DOPA   C4A45020  15.661   6.955  12.541 -0.0609  0.0638  0.0674
36444DOPA   C1B45021  14.775   7.498  11.475  0.1083  0.1328  0.0271
36444DOPA   D2B45022  14.570   7.186  11.768  0.0825 -0.0215 -0.1783
36444DOPA   C3B45023  14.586   7.268  12.233 -0.1734 -0.4512 -0.1568
36444DOPA   C4B45024  14.643   7.445  12.639 -0.2018  0.0122  0.1268
36445DOPA   PO445025   5.058   2.451  10.853 -0.2772  0.2759  0.1548
36445DOPA   GL145026   5.160   2.481  11.262  0.1893 -0.2770  0.1239
36445DOPA   GL245027   5.017   2.684  11.354 -0.3788  0.3541 -0.2838
36445DOPA   C1A45028   5.399   2.270  11.527 -0.0598 -0.2047  0.0425
36445DOPA   D2A45029   5.804   2.086  11.742 -0.1924 -0.1201  0.3221
36445DOPA   C3A45030   5.894   1.928  12.189  0.0977 -0.1131 -0.0667
36445DOPA   C4A45031   5.925   2.064  12.712  0.1867  0.0798  0.0404
36445DOPA   C1B45032   4.982   2.384  11.718  0.0061 -0.1761 -0.0912
36445DOPA   D2B45033   4.752   2.160  12.077  0.2813 -0.1114 -0.1570
36445DOPA   C3B45034   4.869   1.912  12.455 -0.0570  0.0380  0.1730
36445DOPA   C4B45035   5.138   1.614  12.817 -0.0572 -0.0635 -0.0583
36446DOPA   PO445036  26.839   1.849  11.575 -0.0159 -0.2558  0.0644
36446DOPA   GL145037  26.915   1.463  11.842 -0.1225  0.0383  0.1617
36446DOPA   GL245038  27.077   1.670  11.779  0.1945 -0.2613  0.2185
36446DOPA   C1A45039  26.916   1.568  12.282 -0.0204  0.0063  0.0574
36446DOPA   D2A45040  26.672   1.517  12.686 -0.0142  0.4479 -0.2171
36446DOPA   C3A45041  26.729   1.606  13.138  0.3379 -0.0446  0.0247
36446DOPA   C4A45042  26.699   1.599  13.622 -0.1231  0.1162  0.1572
36446DOPA   C1B45043  27.385   1.519  11.999  0.1130 -0.1184 -0.0789
36446DOPA   D2B45044  27.538   1.207  12.320  0.1755 -0.1104 -0.0880
36446DOPA   C3B45045  27.605   1.233  12.793  0.1376  0.1693 -0.3287
36446DOPA   C4B45046  27.460   1.175  13.259  0.0075 -0.0645 -0.2429
36447W        W45047  28.696   2.799   2.842 -0.1604 -0.1435 -0.0531
36448W        W45048  11.355   7.720   8.278 -0.0591  0.0929 -0.0715
36449W        W45049  14.860   3.638   4.550  0.0446 -0.0009  0.0977
36450W        W45050   5.547   1.207  25.900 -0.0832  0.0286  0.2046
36451W        W45051   5.395   7.253   4.981  0.0402  0.0359  0.1740
36452W        W45052   2.480   2.906  23.338  0.1272  0.1360  0.2451
36453W        W45053   8.670   6.717  24.136  0.0591 -0.1813  0.0886
36454W        W45054  22.092   3.613   7.831  0.1596  0.1092  0.0847
36455W        W45055   0.371   4.804   2.610 -0.2082  0.0379 -0.1562
36456W        W45056   2.980   1.359   3.022  0.1249 -0.0515  0.0240
36457W        W45057  22.947   7.529  18.315 -0.5615  0.1532 -0.0174
36458W        W45058   5.777   0.254  24.427 -0.2419  0.1218 -0.0603
36459W        W45059  23.488   0.491  16.517 -0.0606  0.3254 -0.0960
36460W        W45060   4.780   3.069  19.918 -0.0669  0.2454 -0.2926
36461W        W45061  29.260   6.272  16.770 -0.0133 -0.0176  0.0789
36462W        W45062   2.961   7.256  24.779  0.1860  0.1797 -0.1024
36463W        W45063  10.184   1.330  22.775 -0.0854 -0.3089 -0.2187
36464W        W45064  12.330   5.457  21.922 -0.1049 -0.0056  0.1759
36465W        W45065   7.174   0.244   3.139 -0.0258  0.1687 -0.2827
36466W        W45066  15.010   5.678   4.900  0.0442 -0.1803 -0.1561
36467W        W45067  10.856   1.137   0.934  0.0266 -0.0762 -0.0053
36468W        W45068   2.246   0.273  15.893 -0.0475  0.1416 -0.0345
36469W        W45069  12.112   2.402  25.297 -0.0847 -0.1478 -0.1289
36470W        W45070  21.807   6.549   4.353  0.0915 -0.0753 -0.2815
36471W        W45071   9.920   5.198  24.680 -0.1251  0.3958 -0.2782
36472W        W45072  16.985   3.069  18.970  0.2287  0.0485  0.2078
36473W        W45073  14.577   5.165  25.698  0.6361 -0.2586  0.0421
36474W        W45074  23.394   3.978  11.534 -0.0471 -0.0739 -0.1082
36475W        W45075   2.826   3.421  20.624 -0.2097 -0.2813 -0.0185
36476W        W45076  29.237   3.258  21.769 -0.0464  0.1024  0.1624
36477W        W45077  29.027   7.066  15.730 -0.2413  0.1874 -0.0592
36478W        W45078   7.626   5.970  19.121  0.0689  0.1942 -0.0731
36479W        W45079  11.367   0.110  10.001 -0.2094 -0.1019  0.1294
36480W        W45080  23.071   0.053  21.394  0.0199 -0.1519  0.1227
36481W        W45081   2.706   1.171  19.779 -0.4529  0.1313  0.2168
36482W        W45082  22.806   7.629  20.034 -0.1749 -0.1701  0.1946
36483W        W45083  15.152   2.836  16.264 -0.0933  0.0246  0.0969
36484W        W45084   0.748   4.718   3.476  0.0178  0.1358  0.0504
36485W        W45085  21.318   7.410  17.292 -0.0898 -0.0625 -0.1029
36486W        W45086  10.879   2.562  25.122  0.1438 -0.1642  0.1139
36487W        W45087  20.324   4.015   6.800 -0.1000  0.1085  0.0640
36488W        W45088  15.550   6.244  18.305  0.1114  0.1455  0.0779
36489W        W45089  15.893   2.520   6.599  0.1450 -0.3068 -0.0290
36490W        W45090   1.416   4.405  22.949 -0.1648  0.0017 -0.0922
36491W        W45091   8.964   2.617   2.164 -0.1192  0.0054 -0.2879
36492W        W45092   7.574   4.688  15.998  0.0408  0.1058 -0.1441
36493W        W45093   4.429   0.734  10.562  0.1040 -0.1151 -0.0591
36494W        W45094  23.905   6.250   9.162  0.1036 -0.1410  0.1015
36495W        W45095  23.684   6.525  20.157 -0.1229  0.3306 -0.0653
36496W        W45096   6.399   3.421   8.256  0.2865 -0.0491  0.3780
36497W        W45097   2.253   7.590   7.978 -0.0018  0.0967 -0.2695
36498W        W45098   1.445   5.712   9.828  0.0623 -0.1647  0.1204
36499W        W45099   0.002   4.462   7.648 -0.1478  0.1332 -0.1220
36500W        W45100  15.530   4.180  16.224  0.4259 -0.2123 -0.1002
36501W        W45101  25.063   4.492  16.393 -0.0241  0.2316  0.0401
36502W        W45102  21.399   2.234   9.896  0.2144 -0.0452  0.2020
36503W        W45103   2.596   5.127   8.420 -0.0375  0.0424 -0.1573
36504W        W45104   8.320   4.264   7.871 -0.0751 -0.0963  0.0731
36505W        W45105  30.741   5.671   9.814 -0.0491 -0.0742 -0.1380
36506W        W45106  22.018   2.432   5.394  0.2389 -0.2515 -0.1538
36507W        W45107  13.205   4.612  17.066  0.0675  0.1077  0.5053
36508W        W45108   2.152   0.586  25.047 -0.2217  0.3104  0.1941
36509W        W45109  21.570   3.785   5.194  0.2908  0.0390 -0.2800
36510W        W45110  22.608   6.392  25.410  0.2203  0.1465  0.1954
36511W        W45111  30.599   1.463   2.515  0.1848  0.2351 -0.0805
36512W        W45112  22.963   1.939   4.077 -0.1524 -0.2435  0.1857
36513W        W45113   0.756   1.513  22.464  0.1249  0.3041  0.1470
36514W        W45114  22.452   5.143  20.653  0.1354 -0.1529 -0.0207
36515W        W45115  29.422   1.338   8.902 -0.0119 -0.2358  0.0935
36516W        W45116  14.660   6.428   3.579  0.1558 -0.0686  0.1112
36517W        W45117  15.218   3.113   7.155  0.4550  0.0025 -0.0383
36518W        W45118  24.269   5.396  15.691 -0.2791  0.0882 -0.2643
36519W        W45119   4.269   0.454   7.174  0.1702 -0.0670 -0.0467
36520W        W45120   1.988   3.836   3.817 -0.2090 -0.2157 -0.0788
36521W        W45121  13.228   5.975  20.252 -0.0528 -0.1099  0.0385
36522W        W45122  18.823   5.806   2.961  0.1630 -0.4575 -0.1276
36523W        W45123  26.009   6.680  16.011 -0.0302 -0.0942 -0.1309
36524W        W45124  26.251   4.371  17.718 -0.3751 -0.0618 -0.1736
36525W        W45125  17.962   1.226   4.161 -0.2660  0.1028 -0.0599
36526W        W45126   2.180   2.780  24.355  0.1294 -0.1379  0.2624
36527W        W45127   8.621   6.050  20.525  0.0900  0.0361 -0.0762
36528W        W45128  19.751   4.753  11.808 -0.1369 -0.2217 -0.0635
36529W        W45129  10.453   6.056  24.913  0.0772  0.0228 -0.2076
36530W        W45130   3.282   3.228  10.348  0.0761  0.1470 -0.0240
36531W        W45131   0.251   7.168   9.843 -0.0129 -0.0990 -0.1320
36532W        W45132  21.504   2.347   5.207  0.3623  0.1601  0.0171
36533W        W45133   6.616   6.500  22.413 -0.0347  0.1063 -0.0816
36534W        W45134  28.984   0.463  21.851 -0.2709  0.0115  0.1127
36535W        W45135  24.477   4.952   7.447 -0.1396  0.2481 -0.5998
36536W        W45136   6.982   4.159  10.173 -0.0485 -0.0506  0.0254
36537W        W45137   3.598   0.191   3.693 -0.0973 -0.1388  0.1967
36538W        W45138  11.570   2.343  23.386 -0.4092  0.3442 -0.0043
36539W        W45139   7.843   5.145   8.574  0.0451  0.2116 -0.0261
36540W        W45140  24.648   0.062   4.122 -0.0011  0.0833  0.0533
36541W        W45141  10.983   4.845  24.754  0.0034 -0.0933 -0.1705
36542W        W45142  11.636   0.517   2.938  0.3679  0.1115  0.1073
36543W        W45143  17.632   3.210   5.182 -0.1052 -0.1349 -0.0667
36544W        W45144   3.810   1.499  16.066  0.0460  0.2156  0.3528
36545W        W45145   1.180   3.803   7.094  0.1551  0.0631  0.1313
36546W        W45146  23.596   7.033  15.943 -0.2280 -0.3246 -0.1638
36547W        W45147   1.400   0.156   3.698  0.0351 -0.0184 -0.0823
36548W        W45148  24.509   2.322  23.104 -0.2069  0.0049 -0.0644
36549W        W45149  30.679   2.147   5.410 -0.0924  0.2000 -0.1736
36550W        W45150  19.661   6.014   3.897 -0.2872  0.0719 -0.1049
36551W        W45151   3.131   0.894  19.600  0.1082  0.1016  0.4029
36552W        W45152  20.064   6.052  20.010  0.2331  0.3367 -0.0330
36553W        W45153  19.874   3.926  21.159 -0.2711  0.1433  0.0871
36554W        W45154  28.994   5.648   8.365  0.1521  0.0416 -0.0291
36555W        W45155  14.520   5.149  20.153 -0.1655  0.3422 -0.1532
36556W        W45156   6.478   4.000   3.795 -0.0706 -0.0701  0.3695
36557W        W45157   5.758   6.460   1.199 -0.0329 -0.2091 -0.0778
36558W        W45158   9.216   3.797  18.307  0.2161  0.0723 -0.0044
36559W        W45159   8.076   2.309   9.353 -0.0130 -0.1216 -0.1623
36560W        W45160  11.631   7.519  17.617 -0.0602 -0.0039 -0.0846
36561W        W45161   4.149   1.371  23.800 -0.0016  0.1070 -0.1945
36562W        W45162  26.829   4.730  26.236  0.0334 -0.1593 -0.2336
36563W        W45163  12.654   2.129  23.755 -0.0972 -0.1068  0.2540
36564W        W45164  12.371   4.735  18.432 -0.1971  0.0710 -0.1351
36565W        W45165   4.330   4.527   8.986  0.2919 -0.1842  0.0162
36566W        W45166  20.487   2.282  16.940 -0.0181  0.2183  0.2557
36567W        W45167  27.047   7.674  18.231  0.5315 -0.1128 -0.0708
36568W        W45168   0.982   1.211  18.316  0.1020 -0.0845  0.0868
36569W        W45169  22.358   0.582   3.384  0.1587 -0.1777  0.2738
36570W        W45170  21.552   0.512  19.591 -0.0394 -0.1143 -0.0275
36571W        W45171  30.559   3.786  20.439  0.1170  0.2794 -0.1733
36572W        W45172   2.530   5.574  19.004 -0.2402 -0.1187 -0.1048
36573W        W45173  15.512   0.826  23.501  0.2134  0.0482 -0.1378
36574W        W45174  18.703   6.328  19.388  0.0934  0.0063  0.1924
36575W        W45175   3.901   1.096  20.206 -0.0197 -0.1490  0.1418
36576W        W45176  10.096   5.417   8.645  0.1812  0.0485 -0.0145
36577W        W45177   6.289   1.324   6.692  0.1404 -0.2118  0.1144
36578W        W45178  30.514   3.624  21.074  0.4169  0.1623  0.1425
36579W        W45179  20.174   2.850   9.767 -0.0820 -0.0392 -0.2469
36580W        W45180  26.160   6.180   7.643 -0.0677  0.2106  0.1017
36581W        W45181  12.422   1.992  22.810  0.0163 -0.0987  0.0063
36582W        W45182  21.822   7.512   1.459  0.1451  0.2225 -0.0652
36583W        W45183   2.947   5.580  16.947  0.0368 -0.1841 -0.3457
36584W        W45184  14.656   2.933  18.361  0.0141 -0.0951 -0.0790
36585W        W45185  20.681   0.858  24.601 -0.0549 -0.2104 -0.1551
36586W        W45186  30.828   4.232   8.671  0.1292  0.1354 -0.0367
36587W        W45187   3.855   5.749   9.815  0.2458  0.1221 -0.5178
36588W        W45188  21.161   6.870  21.056  0.1084 -0.0715 -0.0850
36589W        W45189  26.727   3.489   3.474 -0.2045 -0.0360 -0.0931
36590W        W45190  27.325   5.250   2.329  0.1233  0.1228 -0.2298
36591W        W45191   3.167   2.838  19.937 -0.0583  0.0939  0.3431
36592W        W45192   5.382   6.035  23.204  0.0613  0.0825 -0.1268
36593W        W45193   0.321   4.639   3.189 -0.0552  0.0899 -0.1189
36594W        W45194  18.868   3.796  25.756 -0.1598 -0.0545  0.1689
36595W        W45195  27.106   5.177  17.974 -0.3588 -0.1497 -0.2204
36596W        W45196   8.263   2.473   1.179 -0.0667 -0.0652 -0.0789
36597W        W45197  20.268   2.384   4.061 -0.2130 -0.2793  0.1325
36598W        W45198  23.977   4.748  19.490  0.0259 -0.0489 -0.0675
36599W        W45199   0.064   3.362  17.783 -0.0318 -0.0536 -0.2885
36600W        W45200  19.378   4.979  26.012 -0.0794 -0.1717 -0.3763
36601W        W45201  21.373   6.469  17.528  0.2193 -0.0083  0.0260
36602W        W45202  12.165   2.510  19.133 -0.0124 -0.3268 -0.0981
36603W        W45203   5.048   2.276  25.385  0.0369 -0.1483  0.0921
36604W        W45204   9.084   3.314  17.472  0.0083  0.2692 -0.3610
36605W        W45205  11.344   4.424   3.648 -0.3126  0.0697 -0.1514
36606W        W45206  22.746   2.871   7.799  0.1832 -0.1868  0.0104
36607W        W45207   1.292   5.098  17.422  0.0550 -0.0267  0.1078
36608W        W45208   9.779   1.206   4.605 -0.0015 -0.0490 -0.2781
36609W        W45209   2.023   4.646  19.181 -0.0681 -0.0188 -0.0131
36610W        W45210  29.397   1.294  19.825  0.1273  0.0330  0.2483
36611W        W45211  19.421   7.039  22.478 -0.0849  0.0058 -0.1288
36612W        W45212  13.051   0.174  19.765  0.3146 -0.0058  0.2136
36613W        W45213  21.460   1.235   0.222 -0.2134  0.1707  0.0474
36614W        W45214   7.233   7.195   4.294  0.0272  0.0622  0.1365
36615W        W45215  21.811   7.747   4.465 -0.2328  0.2885  0.0604
36616W        W45216  29.471   1.413  23.441  0.0988  0.0095  0.0337
36617W        W45217  22.178   2.528   7.784  0.1803 -0.1334 -0.0948
36618W        W45218  31.112   3.237   4.275  0.0015 -0.0006  0.1696
36619W        W45219  11.604   1.116  23.569 -0.1324 -0.0280 -0.1470
36620W        W45220  22.799   3.496   8.321  0.2287  0.1464 -0.0436
36621W        W45221  25.806   3.216  24.132 -0.0725 -0.0868  0.1503
36622W        W45222   5.370   1.819   8.758 -0.0413 -0.2220  0.1535
36623W        W45223  20.033   4.552  16.981 -0.2533  0.0497 -0.0459
36624W        W45224  19.878   0.750   6.896  0.1279 -0.0551 -0.0925
36625W        W45225  19.700   4.052   7.979 -0.1137  0.2572 -0.2799
36626W        W45226  17.988   1.266  16.117  0.1683  0.2920  0.2352
36627W        W45227   1.848   6.714   9.025 -0.0970 -0.2577 -0.0673
36628W        W45228   9.974   1.000  24.664  0.0504  0.0762 -0.1435
36629W        W45229   1.001   4.322   9.422 -0.3416  0.0909 -0.0570
36630W        W45230  24.292   5.644  21.630  0.0334  0.0304  0.3063
36631W        W45231  27.596   0.142  25.559  0.1366  0.1601 -0.1720
36632W        W45232   8.964   1.867  21.674  0.0520  0.1696 -0.0865
36633W        W45233  20.244   3.562  20.760 -0.4107  0.3089  0.2546
36634W        W45234   6.269   0.660  22.385  0.2001 -0.1464 -0.0099
36635W        W45235  21.473   5.356  22.361  0.1301 -0.0514 -0.0730
36636W        W45236  29.172   0.745   3.733 -0.1094 -0.1231 -0.0516
36637W        W45237   2.818   6.922   0.870 -0.1428 -0.1283 -0.1267
36638W        W45238  11.968   5.741   9.753 -0.0127 -0.1147  0.0325
36639W        W45239  24.761   0.120   9.234  0.3012 -0.0508  0.1045
36640W        W45240  28.183   7.196  21.566 -0.0625 -0.2474 -0.0573
36641W        W45241  21.844   0.027   9.018  0.0790 -0.0636  0.0526
36642W        W45242  16.836   3.655  21.949 -0.0900  0.2853  0.0087
36643W        W45243   2.177   1.377  16.224 -0.2912 -0.0847  0.0192
36644W        W45244   0.334   7.414   5.520  0.1342 -0.1160 -0.1426
36645W        W45245  27.681   4.622  10.465  0.1118  0.0354  0.1181
36646W        W45246   4.116   0.210  21.444  0.2848 -0.1049  0.1496
36647W        W45247   8.704   0.812  17.152 -0.1661  0.1303 -0.0180
36648W        W45248  25.575   1.066  16.589 -0.1304  0.1626  0.2256
36649W        W45249   5.059   4.498   4.974 -0.2099  0.0594 -0.2517
36650W        W45250  13.624   7.587  20.614 -0.3874  0.0278  0.0936
36651W        W45251  26.337   7.054   5.010 -0.0898  0.0777 -0.1299
36652W        W45252   4.191   7.591   0.268 -0.1247 -0.1599  0.3020
36653W        W45253  15.390   1.707   8.304 -0.0107 -0.0943  0.1405
36654W        W45254  29.070   4.920   9.268  0.0704 -0.0366 -0.0458
36655W        W45255   4.948   0.586  21.833  0.1684  0.3109  0.0326
36656W        W45256  26.065   5.345   8.385  0.0495  0.2565 -0.1531
36657W        W45257   3.184   0.414  19.939  0.0371  0.0158 -0.0939
36658W        W45258  17.788   5.564   3.064 -0.0129 -0.0263  0.2614
36659W        W45259  15.401   0.803  17.294  0.1647  0.0221  0.2972
36660W        W45260  23.961   0.860   7.470 -0.0345 -0.4107 -0.4582
36661W        W45261   5.469   3.267   5.674 -0.1860 -0.1096 -0.1510
36662W        W45262  15.606   6.175   8.382 -0.0841 -0.0011 -0.0504
36663W        W45263   0.706   1.210   9.906 -0.0181  0.1658 -0.1732
36664W        W45264  25.619   2.686  24.992  0.0596  0.0987 -0.0137
36665W        W45265  12.946   7.301   4.236  0.4177  0.2568  0.1754
36666W        W45266  18.932   6.444  22.854 -0.0619  0.0559  0.1181
36667W        W45267  23.141   2.100   3.617 -0.2439 -0.0592 -0.0640
36668W        W45268  24.496   4.784  21.606  0.1423 -0.1409 -0.0818
36669W        W45269   9.992   2.723  22.439 -0.2173  0.3412  0.1010
36670W        W45270  12.287   3.910   6.885  0.2587  0.1114  0.0563
36671W        W45271   1.929   4.305  18.390 -0.1105 -0.2081 -0.1340
36672W        W45272  18.604   4.225  18.402 -0.1115  0.1707 -0.0136
36673W        W45273   9.929   3.649  10.051  0.3204 -0.2473 -0.2250
36674W        W45274  15.355   6.084   3.892  0.1648  0.3389  0.4370
36675W        W45275   5.017   3.273   5.295  0.0357  0.0525 -0.1549
36676W        W45276  25.700   0.836  11.098  0.1204  0.0212  0.0446
36677W        W45277  23.664   2.868  16.331  0.0935  0.3279  0.1290
36678W        W45278  24.614   4.034   7.012 -0.0969 -0.1201  0.1454
36679W        W45279   3.144   5.256  20.899 -0.1290  0.2165  0.0638
36680W        W45280   5.111   6.379  24.489  0.2377  0.0302  0.0450
36681W        W45281   8.582   4.185  17.946 -0.0630 -0.0213 -0.0926
36682W        W45282  19.995   0.545  11.115 -0.0272 -0.0612 -0.1743
36683W        W45283  17.852   6.376  22.602  0.1877 -0.0499  0.0473
36684W        W45284   4.064   7.721  17.314 -0.1549 -0.0304  0.0023
36685W        W45285  16.827   2.888   8.134  0.0715  0.4023  0.1204
36686W        W45286  30.973   1.187  19.352 -0.0148  0.1873 -0.3473
36687W        W45287  17.865   6.040   2.814  0.2617  0.1455  0.0691
36688W        W45288   8.057   5.060   9.107  0.0002 -0.0114 -0.0281
36689W        W45289  25.008   3.707  10.730 -0.1261 -0.0779 -0.1343
36690W        W45290  22.342   6.503  19.064 -0.3289 -0.0168 -0.2526
36691W        W45291  18.587   1.320   9.126  0.3328 -0.0694 -0.0563
36692W        W45292  20.906   0.569  23.296 -0.3585 -0.2087 -0.0355
36693W        W45293  29.057   5.758  25.327  0.0227  0.0511 -0.3079
36694W        W45294  10.602   4.884   4.618  0.3047  0.1157 -0.1156
36695W        W45295   8.714   6.195  25.928  0.0454 -0.2205  0.2680
36696W        W45296   7.692   6.200  18.243  0.2569 -0.0154  0.0533
36697W        W45297  14.318   4.773   5.041 -0.2143 -0.2426 -0.3246
36698W        W45298  14.562   5.991   9.011  0.1814  0.0314 -0.2429
36699W        W45299  23.643   7.238  24.308 -0.0630  0.2002  0.1262
36700W        W45300  15.148   0.306   6.654 -0.0214 -0.0834 -0.2235
36701W        W45301  19.802   3.089  22.991  0.1109 -0.0795 -0.1181
36702W        W45302  26.022   1.175  15.356  0.1415 -0.1603  0.1696
36703W        W45303  10.133   2.381   7.442  0.0531 -0.2175 -0.2226
36704W        W45304   9.872   3.887  23.802 -0.3532 -0.0007 -0.0313
36705W        W45305  20.795   2.829   3.796  0.0055 -0.0802 -0.0204
36706W        W45306   5.919   5.940  23.029  0.1842  0.0065  0.2113
36707W        W45307  28.652   7.088   1.881  0.1127 -0.3256  0.1458
36708W        W45308   2.598   1.756   8.811 -0.1664 -0.0215 -0.0683
36709W        W45309  20.875   0.143  25.143  0.1887 -0.3098  0.0885
36710W        W45310  30.583   3.718   4.657  0.0883 -0.2490 -0.0327
36711W        W45311  16.362   2.365   0.033 -0.1043  0.1212 -0.1722
36712W        W45312   9.273   5.211   4.943  0.2192  0.0231 -0.1760
36713W        W45313   8.401   3.592  23.828  0.0785  0.0232 -0.0995
36714W        W45314  20.392   5.373  18.658 -0.3895 -0.1111 -0.2069
36715W        W45315  14.952   0.241  23.935  0.0366  0.1863 -0.3575
36716W        W45316   2.818   2.782   3.568 -0.1162  0.0505  0.1193
36717W        W45317  14.733   2.806  15.380 -0.4504 -0.0454  0.0141
36718W        W45318   2.204   1.008   0.493 -0.1020  0.0461 -0.0423
36719W        W45319  21.132   6.713   8.413  0.1418  0.0399  0.2169
36720W        W45320   7.378   2.968  24.771 -0.1458  0.0630  0.0192
36721W        W45321   0.519   1.163  23.683 -0.0587  0.1236 -0.1243
36722W        W45322  19.727   0.883  17.079 -0.1535  0.2688  0.1564
36723W        W45323  27.926   1.692  10.519  0.0166  0.0532 -0.1594
36724W        W45324  28.993   2.699  17.957 -0.3500 -0.1362  0.0216
36725W        W45325   0.359   6.465   0.717 -0.0921 -0.2740 -0.0626
36726W        W45326  17.046   4.381   0.638  0.0322 -0.4669  0.1216
36727W        W45327  24.900   0.997  22.430  0.1917  0.0619 -0.0681
36728W        W45328  17.876   0.716  10.074 -0.0724 -0.0352 -0.2732
36729W        W45329  21.993   7.184  21.269  0.2606 -0.0516  0.0499
36730W        W45330  24.455   1.076  25.633 -0.0012 -0.3245  0.0111
36731W        W45331   5.849   3.832   3.041  0.1026 -0.0818  0.0881
36732W        W45332   6.141   5.808   9.261  0.2248 -0.0104  0.1886
36733W        W45333  12.415   1.528   7.813 -0.1261 -0.1510 -0.1155
36734W        W45334  11.471   3.612   0.234  0.1067  0.1385 -0.1280
36735W        W45335  14.653   7.347   9.209  0.1051 -0.1475  0.0221
36736W        W45336  20.605   3.841  25.099 -0.0264 -0.2940 -0.1524
36737W        W45337   4.934   2.612   7.680 -0.0384  0.0590 -0.0535
36738W        W45338   6.342   5.164  23.115  0.0490  0.4214  0.0458
36739W        W45339  30.485   5.396  25.442 -0.0309 -0.1343 -0.0654
36740W        W45340   9.341   3.366   6.507  0.0862  0.2079 -0.1958
36741W        W45341  23.573   4.575  25.188 -0.3460  0.0781  0.0041
36742W        W45342  29.865   2.635  23.680 -0.1193 -0.1618 -0.2424
36743W        W45343   6.927   5.138  20.618  0.1516 -0.1200 -0.4064
36744W        W45344  18.316   3.661   8.385  0.2331 -0.0984 -0.1443
36745W        W45345  20.881   0.232   2.730  0.3666 -0.2663 -0.0005
36746W        W45346   0.094   4.248   2.852 -0.1447  0.0965  0.1160
36747W        W45347   1.106   6.361  25.508 -0.1046  0.4774 -0.0585
36748W        W45348   7.137   0.046  23.886 -0.3721 -0.2088 -0.2668
36749W        W45349   9.374   2.311  21.628  0.0036  0.2253 -0.2223
36750W        W45350  22.256   2.822   7.386  0.1468 -0.0913 -0.0332
36751W        W45351   5.103   0.620   9.089  0.0854 -0.0135 -0.1140
36752W        W45352  12.449   3.127  23.752 -0.2047 -0.0229  0.0588
36753W        W45353  22.837   3.719   1.230  0.0153 -0.2973 -0.0304
36754W        W45354  17.259   1.213   8.788  0.0867  0.3302  0.0775
36755W        W45355  22.026   7.217  25.497 -0.0157 -0.1787  0.1112
36756W        W45356  28.163   1.571   9.300 -0.0788  0.0489 -0.0754
36757W        W45357  28.073   4.301   5.222  0.2751  0.1512  0.0290
36758W        W45358  12.271   4.794   9.154  0.0332 -0.1214 -0.0484
36759W        W45359   9.752   3.464   4.441  0.0164 -0.0231  0.1597
36760W        W45360  11.125   5.502  16.795  0.1235  0.3842 -0.4933
36761W        W45361  22.484   6.675  10.063  0.0751 -0.1462 -0.0519
36762W        W45362   2.068   0.077  21.253 -0.0763  0.1174 -0.2173
36763W        W45363  10.849   2.189  21.723 -0.0794 -0.1961 -0.1965
36764W        W45364  26.815   2.771  21.453 -0.1707 -0.0550 -0.2232
36765W        W45365  27.816   1.652   6.663  0.1300  0.1020  0.4572
36766W        W45366  14.428   3.346  21.194  0.0038  0.0984  0.2847
36767W        W45367   2.547   0.411  21.519 -0.2280  0.1193  0.1930
36768W        W45368   2.386   4.411  16.844  0.2792  0.1850  0.1846
36769W        W45369  17.740   7.191  21.214 -0.0444  0.5289 -0.0143
36770W        W45370  25.492   1.362  11.006  0.0559  0.3098  0.1896
36771W        W45371   7.314   3.219   7.886  0.2782  0.0471 -0.0138
36772W        W45372  12.303   1.676  21.881 -0.0258  0.1843  0.3737
36773W        W45373   5.925   3.534   0.639  0.0517  0.2981  0.2731
36774W        W45374  24.575   1.072  19.479 -0.1223  0.2022  0.1964
36775W        W45375  17.738   2.122  22.364 -0.3467 -0.0123 -0.1741
36776W        W45376  13.037   4.076   1.197 -0.1509 -0.0095  0.1089
36777W        W45377  22.427   0.037  19.798  0.0811 -0.3557  0.3084
36778W        W45378   3.307   2.380   0.204 -0.5070 -0.0385  0.1152
36779W        W45379   2.040   1.162  26.254 -0.0079 -0.2080 -0.1979
36780W        W45380   3.642   3.924  20.713 -0.4338  0.0351 -0.1551
36781W        W45381   9.677   2.763  17.868 -0.0644 -0.0914 -0.3004
36782W        W45382  17.251   7.297  23.220  0.0590 -0.0114  0.0368
36783W        W45383  22.379   0.472   4.402  0.2612  0.1099  0.1995
36784W        W45384   8.326   1.260   9.593 -0.1643  0.2231  0.0880
36785W        W45385  25.658   7.475   7.665 -0.1431  0.4845  0.0104
36786W        W45386   7.837   3.832  24.483 -0.1304 -0.1404 -0.0145
36787W        W45387   8.229   4.308   7.292 -0.0511 -0.4120  0.1735
36788W        W45388   7.832   4.761   6.381  0.1868 -0.1077  0.1380
36789W        W45389   0.723   1.866   1.254 -0.0604  0.4116 -0.3211
36790W        W45390  26.016   3.768  20.817 -0.1647 -0.2319 -0.0530
36791W        W45391  13.978   2.062   9.730 -0.0419 -0.0165  0.1314
36792W        W45392  23.633   1.296  20.528  0.1611  0.1748 -0.0481
36793W        W45393  15.421   0.554   2.699 -0.3060  0.0092  0.0270
36794W        W45394  14.227   4.253   2.042 -0.0744  0.1809  0.1506
36795W        W45395  18.295   3.409  21.432  0.0147 -0.1465 -0.0020
36796W        W45396  24.255   6.039  16.095 -0.0186 -0.1674 -0.1229
36797W        W45397  15.646   4.927  22.521  0.1271  0.0290  0.1197
36798W        W45398  12.153   1.210  22.804  0.1964  0.4399  0.2335
36799W        W45399   9.539   7.327  25.154 -0.1119 -0.1225  0.0097
36800W        W45400  13.721   5.109  26.264 -0.2031  0.0667  0.1475
36801W        W45401   9.372   1.068  22.888  0.0882 -0.0276 -0.0351
36802W        W45402   3.091   4.619  19.076  0.1074  0.3453  0.3133
36803W        W45403   0.708   0.779  21.911  0.2398  0.2556  0.2206
36804W        W45404   1.615   4.762  18.618  0.1175  0.0308  0.0441
36805W        W45405   3.092   0.700  16.292  0.0624  0.2140  0.1010
36806W        W45406   8.267   2.794  22.962 -0.3201 -0.0850 -0.0240
36807W        W45407  29.139   5.772  23.708  0.1416  0.2309  0.0309
36808W        W45408   0.896   4.867   0.896 -0.5102  0.0315 -0.3387
36809W        W45409  19.956   4.590   3.590  0.0099  0.1908 -0.0209
36810W        W45410   7.549   5.417   8.250 -0.0878 -0.0720 -0.0294
36811W        W45411   6.518   5.623   2.115  0.2261 -0.0932 -0.1346
36812W        W45412  16.479   6.245  24.721 -0.2328  0.0260  0.0070
36813W        W45413  10.622   0.267   6.691  0.1704 -0.0733 -0.2619
36814W        W45414   6.063   7.341  23.953  0.1873 -0.1067 -0.0223
36815W        W45415  17.156   4.933  15.911  0.3536  0.1039 -0.1774
36816W        W45416  12.496   3.799  10.082 -0.0140  0.0262 -0.0257
36817W        W45417  13.101   6.991  26.242  0.0912  0.3663 -0.0178
36818W        W45418  21.046   3.945  24.251  0.0206 -0.1966  0.1063
36819W        W45419  18.805   2.879  20.456  0.1821  0.0329 -0.1507
36820W        W45420  29.511   1.287  16.422 -0.1882 -0.1803  0.0562
36821W        W45421  24.946   1.487   1.632  0.2240 -0.0161 -0.0797
36822W        W45422  11.535   4.771  21.460  0.0571 -0.0391  0.3661
36823W        W45423  11.018   0.828   3.967  0.1834  0.1144 -0.1469
36824W        W45424   0.168   7.659   5.892 -0.1907 -0.1434  0.0088
36825W        W45425  12.996   5.382   6.449  0.0072 -0.0186 -0.1649
36826W        W45426  22.540   1.059   3.636  0.0419 -0.1566  0.0346
36827W        W45427  13.112   7.053  22.528  0.0306 -0.0754  0.3117
36828W        W45428  19.320   6.360   0.258  0.0386 -0.1056 -0.0421
36829W        W45429   6.183   2.472  24.803  0.1292  0.0820  0.0593
36830W        W45430  12.946   6.996  21.300  0.2862 -0.1025 -0.1876
36831W        W45431  17.771   7.060   7.005 -0.0935  0.0832 -0.1012
36832W        W45432   6.816   0.327  21.111  0.1735  0.0396  0.5407
36833W        W45433  30.032   1.841  25.307  0.0883 -0.2082  0.1261
36834W        W45434  14.732   4.463  16.535 -0.1040  0.0240  0.1424
36835W        W45435  27.029   4.415  24.150  0.0029 -0.0175  0.0098
36836W        W45436  27.320   7.116  22.330 -0.0872 -0.1043  0.1462
36837W        W45437   4.279   2.000  16.651 -0.1714  0.2146 -0.0616
36838W        W45438   9.825   2.876  19.235  0.2632  0.0175  0.1700
36839W        W45439  27.198   5.389  24.698 -0.0443 -0.2957  0.1218
36840W        W45440  27.945   1.121  16.932  0.0994  0.0334  0.1432
36841W        W45441   8.719   4.246   3.059  0.1339  0.4256  0.1944
36842W        W45442  23.762   3.061   8.664  0.2818  0.0929 -0.1028
36843W        W45443  10.676   0.666   0.547 -0.2327 -0.3057  0.0715
36844W        W45444   2.523   5.042   9.098  0.0521 -0.0765 -0.1141
36845W        W45445  11.969   4.676  23.242  0.0655  0.1865  0.0940
36846W        W45446  23.012   6.349  16.349 -0.1163 -0.2019 -0.2337
36847W        W45447   5.001   4.328   9.166  0.3019 -0.1545 -0.0489
36848W        W45448  18.148   6.601  10.709 -0.2910 -0.1349  0.0744
36849W        W45449  15.485   1.897   1.329 -0.0028  0.3444  0.2508
36850W        W45450  29.373   6.220   5.590  0.3458  0.4798  0.0029
36851W        W45451  10.937   7.776   7.104  0.0534  0.2315  0.0284
36852W        W45452  12.383   2.713  15.892 -0.0778  0.1078 -0.1728
36853W        W45453  31.033   1.728  18.404  0.1250  0.0376  0.0706
36854W        W45454  13.652   3.444  26.322  0.1780  0.1136  0.2649
36855W        W45455  28.397   2.406  23.425 -0.0689  0.0962  0.0006
36856W        W45456  30.672   6.244   3.607 -0.0958 -0.1871 -0.2104
36857W        W45457   9.073   1.928   6.018 -0.1498  0.0102 -0.0722
36858W        W45458   6.128   4.744  24.729  0.1353 -0.0233 -0.1703
36859W        W45459  23.691   3.458   1.095 -0.1449 -0.2388  0.1583
36860W        W45460  23.292   3.386  20.390 -0.3012 -0.2022  0.2187
36861W        W45461  10.532   7.783  20.842  0.1412 -0.4497 -0.1427
36862W        W45462  25.901   2.795  23.911  0.0922  0.1367  0.0895
36863W        W45463  21.348   0.227  25.212  0.0532  0.1617 -0.0001
36864W        W45464   3.950   6.209  18.275 -0.0353  0.3809 -0.1082
36865W        W45465  21.225   1.278   4.413 -0.2044 -0.1025  0.0543
36866W        W45466  17.885   0.660   3.859  0.0187  0.3176  0.4252
36867W        W45467  26.034   4.558  15.346  0.0344 -0.5301  0.0681
36868W        W45468  31.018   5.362  25.765  0.2361  0.0660  0.1430
36869W        W45469  25.585   6.375   0.617  0.0188  0.0526 -0.2380
36870W        W45470  11.116   4.535   5.580  0.0635 -0.0813 -0.0455
36871W        W45471  19.091   7.647  16.269 -0.0183 -0.1812 -0.4066
36872W        W45472  20.214   1.679  24.684 -0.0926  0.0608 -0.2713
36873W        W45473  16.641   3.420  15.544  0.0002 -0.3540 -0.1258
36874W        W45474   1.363   6.265  23.526 -0.2318 -0.0131  0.1487
36875W        W45475   5.210   1.572   2.215 -0.0577  0.1348  0.2346
36876W        W45476  11.825   6.511  22.504 -0.1224 -0.0354 -0.2392
36877W        W45477   1.168   7.170  16.548 -0.1435 -0.2227 -0.1499
36878W        W45478   6.363   2.003   4.120 -0.2076 -0.0004 -0.0275
36879W        W45479   9.549   6.415   4.338  0.6911 -0.1301 -0.0435
36880W        W45480  19.653   2.205   0.362 -0.0589  0.1307 -0.0069
36881W        W45481  13.215   7.369  19.236  0.2477 -0.0756  0.0506
36882W        W45482  21.444   0.280   2.649  0.0128  0.1745  0.0522
36883W        W45483  11.143   2.284   7.833  0.2101  0.0422 -0.1734
36884W        W45484  24.382   4.356   4.712  0.0559  0.1815  0.1151
36885W        W45485  12.594   6.467   9.892  0.1010 -0.3932 -0.1478
36886W        W45486  19.209   7.514   1.712 -0.1216 -0.1055  0.2003
36887W        W45487   3.031   5.284  21.453 -0.1683  0.0023 -0.2076
36888W        W45488   3.639   5.009   1.022 -0.2278 -0.0720  0.2566
36889W        W45489  13.378   6.195  22.463 -0.1873  0.1610  0.0441
36890W        W45490  14.742   5.128  22.607 -0.3866 -0.4682  0.3645
36891W        W45491  28.241   3.819   4.364 -0.0050 -0.0403 -0.2967
36892W        W45492  22.069   2.751  25.762 -0.0032  0.2031  0.0376
36893W        W45493   8.630   7.780   0.261 -0.0076 -0.1704 -0.4984
36894W        W45494  28.874   7.604   7.755 -0.3116  0.3158 -0.0034
36895W        W45495  14.193   7.525   6.499  0.1870  0.0972  0.2750
36896W        W45496   2.450   2.365   4.963  0.4449  0.4297  0.0820
36897W        W45497  29.337   5.867  15.423  0.0747 -0.0391 -0.2768
36898W        W45498  12.869   1.379  20.223  0.3093  0.1487  0.0613
36899W        W45499   1.325   3.122  21.767  0.1103  0.1474  0.0015
36900W        W45500   1.135   1.406   5.415 -0.0018  0.1916  0.3457
36901W        W45501  22.280   4.867   4.836  0.0422  0.1536  0.3060
36902W        W45502  16.097   6.108   6.799  0.1412 -0.0821 -0.2291
36903W        W45503  27.017   4.510  25.410  0.1045  0.0865  0.0794
36904W        W45504  15.038   2.756   5.977 -0.1838  0.0202 -0.0794
36905W        W45505  18.440   2.859   8.837  0.1340  0.1874  0.0895
36906W        W45506  11.336   1.775   2.515 -0.1267  0.3147  0.2034
36907W        W45507   3.182   0.340   4.391  0.0853  0.0255 -0.0382
36908W        W45508  16.402   4.484   2.911 -0.2367  0.0398  0.2194
36909W        W45509   5.546   7.064  10.390  0.2830 -0.3006  0.1159
36910W        W45510  17.591   6.911   3.049 -0.3230  0.2758 -0.1072
36911W        W45511   8.670   5.268  15.736 -0.0511  0.1129  0.3464
36912W        W45512  21.354   1.425   7.991  0.1108 -0.0613  0.1682
36913W        W45513   4.796   7.166   4.074 -0.1487  0.0689  0.0052
36914W        W45514   2.687   3.728  24.245 -0.0170 -0.1299  0.0532
36915W        W45515   2.836   1.450   6.323  0.1743 -0.0613 -0.1004
36916W        W45516  29.645   1.019  21.243  0.1424  0.1454  0.5256
36917W        W45517   4.759   6.484  24.065 -0.0465  0.0953  0.1499
36918W        W45518  22.728   2.160   0.963  0.0656 -0.1397  0.0238
36919W        W45519  30.045   0.460   6.304  0.0621 -0.0024 -0.1706
36920W        W45520  27.512   4.968  17.552 -0.0435  0.1260 -0.0070
36921W        W45521   6.366   5.786  17.154  0.2838 -0.0977  0.2565
36922W        W45522   0.894   3.265  24.878  0.0320 -0.2468 -0.2556
36923W        W45523   8.188   0.938  10.634  0.0488 -0.2348 -0.4438
36924W        W45524  26.181   1.341  10.437 -0.0637  0.0003  0.1727
36925W        W45525   8.315   7.798   6.411 -0.1348  0.1994  0.1322
36926W        W45526  24.191   6.831  19.705  0.2052  0.1737  0.1072
36927W        W45527  15.567   3.216  24.313  0.0187 -0.0307  0.0242
36928W        W45528   3.146   7.614  21.615 -0.0122  0.0291  0.1406
36929W        W45529   3.642   7.262  22.743 -0.1767 -0.0745  0.0296
36930W        W45530   3.747   2.620  22.558  0.1574  0.1735  0.0144
36931W        W45531  19.013   0.108  23.682 -0.1079 -0.0001  0.3556
36932W        W45532   9.350   0.427   9.946  0.0541 -0.2571  0.0412
36933W        W45533  23.037   3.477  22.485 -0.0232  0.0662  0.5481
36934W        W45534  17.951   7.627  20.324 -0.2374  0.0139 -0.0829
36935W        W45535  22.383   6.393   5.012  0.0161 -0.0400  0.0364
36936W        W45536   2.746   7.259  22.701 -0.1123 -0.2842 -0.1660
36937W        W45537  14.667   4.954  17.619 -0.3440  0.0631  0.1476
36938W        W45538   0.480   2.864  25.686 -0.2069 -0.0589  0.2297
36939W        W45539  14.983   4.226  16.097  0.0936  0.0406 -0.1279
36940W        W45540  30.405   7.635   8.830 -0.1827  0.2142  0.2115
36941W        W45541  25.889   0.673  10.668 -0.2589 -0.1206 -0.1079
36942W        W45542   7.899   3.289  17.966  0.2540 -0.0051 -0.1246
36943W        W45543   0.710   1.451   4.449 -0.1365  0.0718 -0.2113
36944W        W45544  19.830   4.858  17.928 -0.1553 -0.0137  0.0241
36945W        W45545   8.599   5.073  21.329 -0.1292 -0.1321 -0.1873
36946W        W45546  25.507   0.823   1.745 -0.1666  0.0543  0.2515
36947W        W45547  10.002   0.763   4.801 -0.0089  0.0393  0.1371
36948W        W45548  12.447   0.362  11.304 -0.0165  0.4110 -0.3428
36949W        W45549   2.903   5.037  22.474 -0.2788  0.0957 -0.0184
36950W        W45550  19.206   5.042  24.897  0.0768 -0.0455 -0.0798
36951W        W45551   7.420   5.160  16.103  0.1798  0.2060 -0.0399
36952W        W45552  29.403   0.478  16.111  0.0526  0.0804 -0.0580
36953W        W45553  11.073   7.474   6.128 -0.1219 -0.0031  0.0368
36954W        W45554   5.037   6.839  19.470 -0.3405 -0.0967  0.1799
36955W        W45555  25.278   5.151  25.392  0.1097 -0.0134 -0.1410
36956W        W45556   5.641   0.639  16.283 -0.3279  0.3301 -0.2213
36957W        W45557  16.734   1.188  23.576 -0.0838 -0.0200 -0.2202
36958W        W45558  12.877   0.581  22.136 -0.2157 -0.1310 -0.1647
36959W        W45559  11.142   0.858  23.630 -0.0949 -0.0845  0.2900
36960W        W45560  13.383   2.194  23.152 -0.1529  0.3746  0.2747
36961W        W45561   3.282   7.180  15.398 -0.0512  0.2690  0.0005
36962W        W45562   9.815   4.430  15.771  0.0661 -0.2493  0.2486
36963W        W45563   2.613   6.900  24.809  0.1548  0.0451 -0.3899
36964W        W45564  19.994   1.263  20.978 -0.2397 -0.1401 -0.4461
36965W        W45565  24.389   2.899   4.291 -0.2726 -0.1163 -0.2364
36966W        W45566  15.617   7.161  22.994 -0.1043 -0.1327  0.2747
36967W        W45567   7.156   1.563  23.166 -0.2462 -0.0224 -0.0104
36968W        W45568  20.186   3.801   3.246 -0.0763  0.2253  0.0625
36969W        W45569   1.316   1.020  20.061 -0.1627 -0.0448 -0.1641
36970W        W45570  14.774   6.354   8.403 -0.3410 -0.1476 -0.2686
36971W        W45571  22.700   6.035  18.311  0.1123  0.0654 -0.0624
36972W        W45572  23.086   7.074   1.499 -0.0677  0.1958  0.3827
36973W        W45573  15.619   0.156  23.958 -0.1117  0.4505  0.4728
36974W        W45574   7.985   6.842  19.908  0.1105 -0.0050 -0.2313
36975W        W45575  17.535   2.903  21.958 -0.0731  0.1690  0.0021
36976W        W45576   2.747   7.708   6.287  0.0916  0.1457 -0.1643
36977W        W45577  17.567   6.024   5.374 -0.0615  0.1779  0.0143
36978W        W45578   1.888   2.953   0.891  0.1011 -0.0527  0.1198
36979W        W45579  28.595   5.965   4.836  0.0312  0.0859  0.2060
36980W        W45580  29.452   0.505  24.475  0.1196  0.2421 -0.1013
36981W        W45581   1.747   7.463  11.009 -0.0928 -0.2630  0.3133
36982W        W45582   7.181   7.116   1.185 -0.0261  0.0027  0.2546
36983W        W45583  24.759   4.896   2.151  0.2658 -0.3916  0.1630
36984W        W45584  30.739   0.667   9.828 -0.0529 -0.2073 -0.1158
36985W        W45585  15.586   2.020  15.744 -0.1946 -0.0220  0.0729
36986W        W45586  28.183   5.729   2.085 -0.1945  0.0344 -0.0948
36987W        W45587   0.210   1.580   1.973  0.1949  0.0073  0.1122
36988W        W45588  10.646   0.765   5.343  0.0482  0.3797 -0.1158
36989W        W45589  29.526   0.955   4.133 -0.0893 -0.1609 -0.1168
36990W        W45590   9.183   3.925   3.272 -0.1837 -0.1937 -0.1016
36991W        W45591  26.098   6.724  11.681 -0.1490  0.0041  0.1962
36992W        W45592  26.438   0.438  22.659  0.3253 -0.1859 -0.1019
36993W        W45593  17.391   5.743   6.857  0.0694 -0.2170  0.0908
36994W        W45594   0.104   0.681   3.436  0.1066  0.0043 -0.0725
36995W        W45595   7.101   7.650  10.993 -0.0781  0.1285 -0.0712
36996W        W45596  20.815   5.558  17.309 -0.0443  0.2146 -0.0411
36997W        W45597   2.748   0.913   3.238  0.3040 -0.0238 -0.1113
36998W        W45598  21.448   7.663  22.786  0.1143  0.1007  0.0138
36999W        W45599  25.432   6.587  22.983 -0.1871 -0.1019 -0.2536
37000W        W45600   3.656   7.089  15.102  0.2145  0.1066  0.2256
37001W        W45601  29.214   5.175  21.281 -0.1716  0.0850  0.1024
37002W        W45602  13.302   3.863  19.605 -0.1817  0.3704 -0.0460
37003W        W45603  13.020   4.467   0.845 -0.1038 -0.0167  0.1352
37004W        W45604   6.754   0.506   0.824  0.1868  0.1306 -0.0571
37005W        W45605  15.867   0.421   7.621  0.2058 -0.0321  0.3633
37006W        W45606   4.351   1.706  16.221 -0.3755 -0.1455 -0.1503
37007W        W45607  10.148   5.787  22.689 -0.2136 -0.0886 -0.1578
37008W        W45608  11.399   0.319  17.453 -0.0918 -0.0445 -0.1060
37009W        W45609   8.276   3.642  20.494 -0.2758 -0.1060 -0.0402
37010W        W45610  20.500   3.419  18.131  0.1808  0.1095 -0.0515
37011W        W45611  27.946   0.744   2.024  0.0507 -0.0549 -0.1154
37012W        W45612  19.825   5.272   1.548 -0.1437 -0.0522 -0.1189
37013W        W45613  10.182   3.434   6.172  0.1647 -0.1991 -0.3176
37014W        W45614  14.212   5.100   0.861  0.0158 -0.1029  0.0157
37015W        W45615  12.430   0.017  17.612 -0.0896  0.1843 -0.3488
37016W        W45616  22.041   2.313  24.918  0.1983 -0.0331  0.2195
37017W        W45617   6.102   2.238  19.942 -0.2179 -0.1039 -0.1823
37018W        W45618   4.032   2.299  18.083 -0.0245  0.3921 -0.0832
37019W        W45619  29.733   7.043   7.095 -0.2801  0.2464 -0.1210
37020W        W45620  31.201   3.251   2.093 -0.3916 -0.2328 -0.0352
37021W        W45621  29.625   0.331  17.309  0.0374 -0.1099  0.2164
37022W        W45622  18.448   7.081   9.352  0.0622 -0.1558 -0.0027
37023W        W45623  18.834   3.504  23.759 -0.1090  0.1457  0.2864
37024W        W45624  24.888   5.260  25.045  0.2171  0.0886  0.0087
37025W        W45625   6.339   2.257   8.588 -0.0109 -0.0337 -0.1824
37026W        W45626  12.993   4.146   5.619  0.1719 -0.0540  0.3916
37027W        W45627  24.798   1.747   6.388  0.1416 -0.0130  0.4301
37028W        W45628  20.467   3.214   5.972  0.2387 -0.4612  0.2476
37029W        W45629   9.696   0.746  16.583  0.0144 -0.2674 -0.1660
37030W        W45630  12.552   6.341   8.610  0.0088  0.0807  0.0831
37031W        W45631  12.015   6.138   7.671  0.0400 -0.1896  0.1248
37032W        W45632  26.013   2.037   4.485 -0.0211 -0.1440 -0.1437
37033W        W45633   9.696   0.492  18.820 -0.0747  0.0817 -0.0515
37034W        W45634  16.169   7.503  16.423  0.0442  0.0928 -0.1091
37035W        W45635  30.681   5.049  17.101  0.0659 -0.2100  0.0536
37036W        W45636  22.646   0.348  23.322  0.0475 -0.0253  0.0375
37037W        W45637  20.767   7.785  20.976  0.0400  0.0555 -0.0025
37038W        W45638  11.696   5.004   1.984  0.0187  0.0496  0.0505
37039W        W45639  17.536   5.489  19.015  0.0677 -0.0192  0.3550
37040W        W45640  12.652   4.568  16.641 -0.0610 -0.3282  0.1125
37041W        W45641   0.527   5.081   2.165 -0.0993 -0.0027 -0.0266
37042W        W45642  25.318   6.648   1.323  0.0818 -0.0870 -0.2718
37043W        W45643  28.813   6.859  15.180 -0.0616 -0.2596  0.3219
37044W        W45644  23.915   5.896  25.600 -0.3784  0.1890  0.0813
37045W        W45645  22.664   0.192  22.278  0.0085 -0.6063  0.2160
37046W        W45646  13.987   4.149   3.427 -0.2487  0.3178  0.0991
37047W        W45647  27.410   1.193  18.726  0.1812 -0.2193 -0.0436
37048W        W45648   0.064   6.244  20.516  0.2548  0.1191 -0.0161
37049W        W45649  10.619   2.443   1.373  0.0177  0.0384  0.0975
37050W        W45650   0.730   2.476  18.449 -0.0165  0.1055  0.3154
37051W        W45651   7.290   2.083  18.359 -0.0512 -0.0794 -0.0026
37052W        W45652  15.434   3.109   2.357  0.2108 -0.0966 -0.0562
37053W        W45653  29.314   0.828  20.091  0.0956 -0.4013  0.2470
37054W        W45654   1.113   4.031   7.672  0.1015 -0.0297  0.1606
37055W        W45655  21.833   5.478   7.606 -0.0271 -0.3125  0.3351
37056W        W45656  12.010   4.197  21.839  0.0063  0.0262 -0.0035
37057W        W45657  21.878   3.583  16.226  0.0428  0.1238  0.3353
37058W        W45658  15.431   4.917  10.946 -0.0213  0.1013 -0.1517
37059W        W45659  14.188   6.698  18.576  0.0772  0.2317 -0.0022
37060W        W45660   3.558   4.148   9.309 -0.2617 -0.1902  0.2323
37061W        W45661  22.958   7.319  20.572  0.1686 -0.2833 -0.1276
37062W        W45662   5.731   0.471   0.558 -0.1583  0.1815  0.2252
37063W        W45663  17.271   5.179  15.522 -0.2644 -0.0244  0.2623
37064W        W45664  10.560   0.884  17.623  0.1405  0.0714 -0.1298
37065W        W45665  29.028   3.701   9.845  0.0642  0.1580  0.0387
37066W        W45666  21.289   2.304   2.615 -0.2520  0.3649  0.1162
37067W        W45667   6.999   2.569   3.101  0.1712 -0.2121  0.2877
37068W        W45668  14.437   6.161   7.593  0.1833  0.1302  0.2913
37069W        W45669   9.482   1.193  18.341  0.0632  0.0516  0.2601
37070W        W45670  10.982   0.255   0.438 -0.4471 -0.0326  0.0890
37071W        W45671  11.461   0.829  19.500  0.2394  0.0592  0.0108
37072W        W45672  11.776   1.004  20.370 -0.1369 -0.1961 -0.2595
37073W        W45673   4.194   2.954  25.327  0.0285  0.2644 -0.1896
37074W        W45674  27.924   7.350   0.021 -0.0053  0.0814  0.2038
37075W        W45675   0.039   6.961   7.432 -0.0809 -0.0040  0.2581
37076W        W45676   9.749   7.408  11.245 -0.0439 -0.0790 -0.1279
37077W        W45677  17.428   5.494  20.526 -0.1929 -0.0644 -0.1177
37078W        W45678  19.839   1.463  22.955  0.1273  0.0244 -0.0317
37079W        W45679   1.773   6.855  26.141  0.1365  0.0728  0.0707
37080W        W45680   4.700   5.043   4.162  0.1965  0.1029 -0.0244
37081W        W45681   9.885   0.307  25.424  0.4940  0.2680 -0.3041
37082W        W45682  21.879   6.105   0.363  0.0456 -0.3025  0.0080
37083W        W45683  19.554   4.732  23.347  0.0852  0.1103 -0.1151
37084W        W45684  16.824   0.535  24.277  0.0437 -0.1219  0.0039
37085W        W45685  15.479   5.638   8.664  0.1489 -0.1271  0.1722
37086W        W45686  12.708   5.075   2.028  0.2550 -0.1351  0.0391
37087W        W45687  18.062   6.701  19.596  0.0902 -0.0176  0.1402
37088W        W45688  22.913   0.122  24.444  0.2756  0.1189 -0.3601
37089W        W45689   0.126   7.227  19.721  0.0768 -0.1309 -0.2454
37090W        W45690  18.395   2.312   6.480  0.0360  0.4350  0.3956
37091W        W45691  17.967   6.096  17.026  0.0520  0.1855 -0.0333
37092W        W45692   5.597   7.206  19.902 -0.1291  0.0432 -0.2838
37093W        W45693   9.527   3.742   4.039  0.2937  0.0528  0.0511
37094W        W45694  13.968   5.254   0.246 -0.0913  0.0466 -0.0712
37095W        W45695   5.641   1.536   5.591 -0.3320  0.1162 -0.1306
37096W        W45696  30.962   4.125  17.195  0.1752  0.0175 -0.2913
37097W        W45697  12.197   1.620   9.114  0.1834 -0.0409  0.1382
37098W        W45698   9.152   3.922   7.121 -0.1131  0.0413 -0.1158
37099W        W45699   3.633   4.711  23.298  0.2571  0.2092  0.0037
37100W        W45700  28.281   3.401   2.099 -0.1049  0.2345  0.0134
37101W        W45701  17.156   6.442  10.564 -0.0376  0.1689  0.3970
37102W        W45702   7.758   2.551   0.984  0.0729  0.0078  0.0739
37103W        W45703  21.582   4.857  15.735  0.1617  0.1586  0.1491
37104W        W45704  24.220   2.201   5.021 -0.1636 -0.1585  0.0717
37105W        W45705  30.429   4.114   9.170 -0.0742 -0.0049 -0.1312
37106W        W45706  22.991   3.648  10.277  0.1065  0.0324  0.1367
37107W        W45707  18.561   0.545  17.617 -0.2007  0.1729  0.2248
37108W        W45708   3.541   6.898  20.531 -0.0787  0.0904 -0.1078
37109W        W45709  17.459   1.986  17.281 -0.0872  0.0382 -0.1460
37110W        W45710  18.465   5.991   0.681 -0.0761 -0.0492  0.1448
37111W        W45711  21.842   2.284  22.864  0.2370  0.0090  0.0950
37112W        W45712   1.282   4.586  24.126  0.1057 -0.1748 -0.1834
37113W        W45713   2.849   0.101   2.393  0.0611 -0.0687 -0.1325
37114W        W45714  18.889   6.506  16.922  0.0604  0.3001  0.2309
37115W        W45715   0.842   6.103   1.387  0.2248  0.1805  0.0294
37116W        W45716   5.436   0.689  21.515 -0.1438  0.1172  0.3568
37117W        W45717   0.142   3.339  24.430 -0.3277  0.2033  0.2883
37118W        W45718   4.981   7.074   8.516  0.3486 -0.3435  0.2482
37119W        W45719   4.321   7.537  18.262 -0.2068 -0.1797  0.2575
37120W        W45720  18.081   4.095   9.220  0.0875  0.3260  0.1243
37121W        W45721  19.479   6.446   4.023 -0.2031 -0.2003 -0.2271
37122W        W45722   7.407   6.884   3.974 -0.1124  0.0703 -0.2096
37123W        W45723  13.558   0.220  25.122  0.0538 -0.0114 -0.0941
37124W        W45724   6.466   1.863  21.442 -0.0895 -0.0191 -0.1318
37125W        W45725  29.174   7.672  17.761 -0.1168  0.0879  0.0600
37126W        W45726  18.269   4.054   5.552  0.1642  0.3083  0.0762
37127W        W45727   8.318   1.384   6.394  0.1386  0.1405 -0.1309
37128W        W45728  16.321   0.158   7.168 -0.0934 -0.1552 -0.0159
37129W        W45729   7.478   5.832  21.743 -0.1398  0.4408 -0.2220
37130W        W45730  30.449   4.433  16.541  0.0601  0.0611  0.1598
37131W        W45731   9.854   1.768  10.284  0.4484 -0.0806 -0.1062
37132W        W45732  20.018   6.847   6.191  0.1173  0.3025  0.0765
37133W        W45733  14.923   6.436  10.366  0.1106 -0.2479 -0.1873
37134W        W45734   4.958   2.827   4.332 -0.0476  0.1359  0.1169
37135W        W45735   1.911   0.623  16.113 -0.0145  0.0063 -0.1509
37136W        W45736   1.591   4.014  11.557  0.1374  0.0611  0.0328
37137W        W45737   1.900   6.937   1.437 -0.0242  0.0610 -0.1133
37138W        W45738   0.801   7.613   8.937 -0.1954 -0.3246 -0.1290
37139W        W45739  23.223   1.925   0.357  0.0167 -0.0422  0.1076
37140W        W45740  21.534   3.943   5.665 -0.0362  0.1013  0.2311
37141W        W45741   5.122   3.896   5.344 -0.0589  0.3161 -0.1086
37142W        W45742  25.011   6.576  24.652  0.4468 -0.1157 -0.2201
37143W        W45743   2.746   0.970   0.413  0.0774 -0.1582 -0.0713
37144W        W45744  10.169   7.396   0.548 -0.1966 -0.0156  0.0209
37145W        W45745  24.316   7.715  24.230 -0.0930 -0.0923 -0.0283
37146W        W45746   4.028   7.612   8.613  0.1871  0.3393 -0.0816
37147W        W45747   5.129   1.110  18.812 -0.1681  0.2175  0.1835
37148W        W45748  14.409   5.521  21.546 -0.1722 -0.1027 -0.0129
37149W        W45749   9.135   7.166   6.592 -0.0067  0.3708 -0.0924
37150W        W45750   0.289   4.626  25.553 -0.0845 -0.0680 -0.1349
37151W        W45751   9.212   3.235  24.315 -0.3602 -0.1128 -0.0539
37152W        W45752  19.805   7.370  20.459 -0.1767  0.1828  0.1590
37153W        W45753  21.091   6.111   4.855 -0.3617 -0.0663 -0.2532
37154W        W45754  18.343   1.575   6.812 -0.1177  0.1542 -0.1206
37155W        W45755  21.883   0.898   3.550 -0.1391 -0.0579  0.0282
37156W        W45756   4.962   5.884   1.129 -0.1229 -0.4007 -0.3064
37157W        W45757   4.611   0.716   0.061 -0.2658 -0.0687  0.0007
37158W        W45758  23.625   2.990   9.154  0.2083  0.0368  0.1059
37159W        W45759   3.190   3.527  18.057  0.2677  0.1528  0.2627
37160W        W45760  28.840   4.436  25.441  0.0631 -0.2505  0.2239
37161W        W45761  23.795   5.473   2.586 -0.0617 -0.0076 -0.0790
37162W        W45762  21.448   4.902   7.058 -0.2473  0.0850 -0.0784
37163W        W45763  23.574   5.212  16.478 -0.0818  0.0530  0.0211
37164W        W45764  31.090   5.946   6.628  0.0404  0.0515  0.0096
37165W        W45765   1.533   1.767  16.847 -0.1648 -0.0610 -0.1438
37166W        W45766  30.103   6.791  17.739  0.4054  0.0179  0.1884
37167W        W45767   7.023   6.323  17.083  0.1370  0.3300 -0.2455
37168W        W45768  30.700   2.424  22.472  0.1107  0.1107  0.1744
37169W        W45769   3.405   6.429  20.572  0.0134 -0.1060  0.2567
37170W        W45770  22.390   0.693  19.293 -0.1719 -0.1655  0.2303
37171W        W45771  18.529   6.504  18.255  0.0527 -0.1010 -0.2187
37172W        W45772   2.450   6.274   1.475 -0.0387  0.0167  0.0343
37173W        W45773  25.216   1.579  16.861  0.0123 -0.1167  0.0860
37174W        W45774   2.665   3.852   9.033  0.0528  0.2416  0.1541
37175W        W45775   6.319   0.487   6.847 -0.2128 -0.0609  0.0158
37176W        W45776  28.080   5.074  17.121 -0.0752  0.1287 -0.1558
37177W        W45777   0.218   2.567  16.446  0.0359 -0.1002 -0.1401
37178W        W45778  25.918   0.796   5.127 -0.0733 -0.3179  0.2731
37179W        W45779  30.891   4.135   6.853  0.1055 -0.1258 -0.0085
37180W        W45780  20.027   2.577  23.090  0.2018 -0.0945 -0.1190
37181W        W45781  18.789   4.938   4.656 -0.1288 -0.0440  0.0837
37182W        W45782   7.095   1.602  21.918  0.0417  0.1240 -0.1215
37183W        W45783  16.201   3.393   1.013  0.0867 -0.0993  0.1193
37184W        W45784  23.622   0.109   3.895 -0.1928  0.3764  0.1184
37185W        W45785   5.822   5.289  16.315  0.2759  0.1096 -0.1186
37186W        W45786  24.481   5.641   9.622  0.0658  0.1535 -0.0361
37187W        W45787  24.345   0.522  25.129  0.2546 -0.0140 -0.1384
37188W        W45788  23.372   6.857   8.553 -0.2922 -0.0208 -0.2867
37189W        W45789   6.775   4.942   5.057 -0.2658  0.2578 -0.0095
37190W        W45790   6.769   5.409   8.774 -0.0873 -0.2402 -0.0351
37191W        W45791  15.777   6.429  24.223  0.0708  0.1134 -0.1587
37192W        W45792   8.448   6.948   0.474  0.2838  0.1878 -0.1421
37193W        W45793  14.592   2.812   1.426 -0.0127 -0.1055 -0.2251
37194W        W45794   5.708   1.652  16.211 -0.2194  0.2258 -0.0321
37195W        W45795  27.181   7.259  20.422  0.0859  0.2106  0.1233
37196W        W45796   7.420   6.164  24.633  0.0446  0.0201 -0.3245
37197W        W45797  16.521   2.124   2.660  0.1107  0.0894 -0.2814
37198W        W45798  24.272   6.670  21.699 -0.0894 -0.1570 -0.0686
37199W        W45799  30.783   7.775   3.847  0.3682  0.0282 -0.0890
37200W        W45800  27.907   6.289  16.016  0.0428  0.3068  0.2413
37201W        W45801   3.060   3.104  24.996  0.2041  0.0479  0.0662
37202W        W45802  26.567   5.770  16.803  0.1014 -0.1682  0.3319
37203W        W45803   6.647   4.387  22.993  0.3061  0.0011  0.2133
37204W        W45804  10.743   1.213   4.850  0.4031 -0.2121 -0.2239
37205W        W45805  20.847   1.628   6.044 -0.0246  0.2365  0.1452
37206W        W45806   2.269   6.210   1.960  0.1285 -0.0980  0.0679
37207W        W45807  24.822   0.709  26.403 -0.1048  0.1343 -0.1339
37208W        W45808  30.819   7.343  19.289  0.0047 -0.2433 -0.1165
37209W        W45809  30.911   5.637   8.221 -0.1849  0.2670 -0.1524
37210W        W45810   5.498   5.033  16.018  0.1984  0.0144  0.1448
37211W        W45811   7.886   4.900  20.350  0.1071  0.0671  0.0438
37212W        W45812  10.391   4.926   6.387  0.1575 -0.0341  0.1649
37213W        W45813   7.859   6.113  15.540 -0.0858 -0.0085  0.2295
37214W        W45814  30.087   3.681  17.038 -0.0649  0.1286 -0.2841
37215W        W45815  19.926   4.336  10.503 -0.0208  0.2280 -0.0605
37216W        W45816  21.850   6.729   8.335  0.0159  0.2497  0.3317
37217W        W45817  20.949   5.228   4.393  0.0819 -0.0693  0.1122
37218W        W45818  18.840   7.054  26.262  0.0913 -0.1446  0.2186
37219W        W45819   9.866   4.176  20.272  0.0896  0.3130 -0.2212
37220W        W45820  12.089   2.916  25.418 -0.1608  0.0043  0.0075
37221W        W45821  17.400   5.470  21.872 -0.1492  0.1381  0.0588
37222W        W45822  15.685   7.388  16.039 -0.2025  0.3126 -0.2369
37223W        W45823  13.133   6.655  15.554  0.0906 -0.0503 -0.4225
37224W        W45824  11.941   3.528  22.757  0.1756  0.0088  0.2210
37225W        W45825   9.010   4.366   8.869  0.0385  0.0646  0.0403
37226W        W45826  24.360   3.963  24.681 -0.1583 -0.0379 -0.2415
37227W        W45827  16.953   0.104   6.500 -0.1346 -0.1720  0.3005
37228W        W45828   0.506   2.970   2.657  0.0322 -0.1783  0.0560
37229W        W45829  21.627   7.337   3.738  0.0599  0.2069 -0.1469
37230W        W45830  12.876   6.150  21.583  0.2083  0.0218  0.1503
37231W        W45831  15.229   5.842  17.128  0.2695  0.1570 -0.0528
37232W        W45832  10.189   6.161   7.884  0.0473  0.0013  0.1277
37233W        W45833   2.756   2.748   1.378  0.3780  0.2850  0.1127
37234W        W45834  30.189   5.720  20.241  0.3481  0.1025 -0.3989
37235W        W45835   3.726   1.899  17.381  0.0567 -0.0590  0.1592
37236W        W45836  30.100   3.466  22.058 -0.0416  0.2819 -0.1317
37237W        W45837  13.719   4.151  18.327  0.2272 -0.1568  0.0611
37238W        W45838  22.057   3.135   5.047  0.0021  0.0071  0.1159
37239W        W45839  29.434   4.772  11.321 -0.1273  0.0149  0.1066
37240W        W45840   1.601   6.673  24.126  0.2489 -0.1490 -0.3788
37241W        W45841   4.311   1.897  23.119  0.0995 -0.0280 -0.0751
37242W        W45842  18.798   1.855   9.216 -0.0082  0.0536  0.3219
37243W        W45843  22.244   2.850   0.373 -0.1496 -0.0087  0.0757
37244W        W45844   4.734   6.872  22.511 -0.0696 -0.1654  0.0964
37245W        W45845   7.719   3.304  23.674  0.0785 -0.1425 -0.1388
37246W        W45846  13.388   7.139   1.120  0.1939 -0.4710  0.1017
37247W        W45847  22.637   5.125   4.512 -0.0536 -0.3639  0.0980
37248W        W45848  12.310   6.732   7.027  0.0864 -0.0857  0.2430
37249W        W45849   7.413   2.363   0.065 -0.2647  0.1919  0.2160
37250W        W45850  14.693   1.198  16.825 -0.2464 -0.0689 -0.2418
37251W        W45851   1.959   2.465  11.522  0.1915  0.1910  0.3365
37252W        W45852  12.146   2.773  23.313  0.0766 -0.0452 -0.1965
37253W        W45853  10.390   2.649   8.775 -0.3057  0.0879 -0.1583
37254W        W45854  14.579   0.291  22.947 -0.0379 -0.1178 -0.1077
37255W        W45855   4.112   5.694   3.662  0.0385 -0.3330  0.2063
37256W        W45856  10.826   5.683  20.774  0.0110  0.0942 -0.2860
37257W        W45857  28.739   5.354  21.320 -0.0083 -0.0570 -0.1283
37258W        W45858  13.996   2.441   6.348 -0.0936 -0.0033  0.0837
37259W        W45859  30.661   6.228  24.763 -0.0343  0.0601  0.2069
37260W        W45860  19.954   4.845  21.224  0.1257  0.3113 -0.0161
37261W        W45861  10.239   3.035   6.873 -0.2561 -0.4069 -0.1127
37262W        W45862  20.348   3.146   1.872  0.0001 -0.2240  0.0837
37263W        W45863   9.973   1.277  10.403  0.0141  0.2168 -0.0330
37264W        W45864  16.691   4.863  22.304  0.4873  0.1758 -0.0165
37265W        W45865  26.069   1.706   4.840 -0.2084  0.3449 -0.0531
37266W        W45866   6.932   4.123   5.495  0.0789 -0.3364  0.1376
37267W        W45867   0.024   6.740  25.903 -0.5444  0.1720 -0.1314
37268W        W45868  12.686   1.790   9.592 -0.0228 -0.0153 -0.3284
37269W        W45869  20.764   0.516  22.760 -0.1719  0.1538  0.3194
37270W        W45870  11.369   1.150  24.364 -0.2433 -0.1428  0.1697
37271W        W45871  20.243   1.752  20.894 -0.2010  0.0824 -0.0831
37272W        W45872  30.639   1.438   9.318 -0.1840 -0.1587 -0.0107
37273W        W45873  30.421   1.320  15.820  0.0535  0.1883  0.2030
37274W        W45874  15.995   0.505  15.098 -0.0620 -0.0402 -0.3234
37275W        W45875   0.609   2.645   6.499  0.1803 -0.0488 -0.0342
37276W        W45876  20.244   5.620   7.984 -0.0468 -0.2646 -0.0759
37277W        W45877  18.775   3.170  19.957  0.1781  0.1996  0.0220
37278W        W45878  26.971   3.323   1.627 -0.0409  0.1142 -0.0769
37279W        W45879  29.244   3.466   6.419  0.2439  0.2743  0.2831
37280W        W45880   8.227   7.236  11.077  0.2221 -0.4302  0.0646
37281W        W45881  26.920   2.667  24.906 -0.0597  0.0680  0.3279
37282W        W45882  14.226   2.814  17.519 -0.0335 -0.2906  0.0048
37283W        W45883   7.439   5.917   9.810  0.0581  0.0286  0.0619
37284W        W45884   6.066   2.068  17.109  0.1417  0.0674 -0.1359
37285W        W45885   6.725   4.455   5.156 -0.3426  0.3851  0.3433
37286W        W45886  27.443   4.781  25.333  0.1904 -0.0513 -0.2901
37287W        W45887   5.793   0.595  22.900 -0.0076  0.0940 -0.1084
37288W        W45888  16.097   3.543   9.353 -0.2251 -0.0216 -0.4507
37289W        W45889   8.554   2.246  23.516  0.4679 -0.1374  0.4736
37290W        W45890  15.928   6.399  21.992 -0.0202  0.3233 -0.3396
37291W        W45891  30.574   2.767   6.618 -0.1509  0.2590 -0.2975
37292W        W45892  21.073   6.427  24.135  0.3027 -0.0464  0.1799
37293W        W45893   6.939   7.766   2.174  0.0396 -0.1457 -0.0540
37294W        W45894  12.071   6.069  10.472 -0.3870  0.0795 -0.0745
37295W        W45895  11.253   1.278  24.913 -0.0778  0.1675 -0.0759
37296W        W45896   1.904   1.496  16.736  0.1419  0.2511 -0.1109
37297W        W45897  13.193   3.330  19.693 -0.1654 -0.0510  0.1833
37298W        W45898  27.271   1.632  16.917  0.1796 -0.0899  0.0662
37299W        W45899  27.801   0.263  22.938 -0.0327 -0.2917  0.0110
37300W        W45900  28.919   1.998   8.787 -0.2039 -0.2105 -0.0379
37301W        W45901  30.398   0.915   1.799  0.2999 -0.1187 -0.1511
37302W        W45902   3.119   1.880  20.906 -0.0720 -0.5023  0.0873
37303W        W45903  19.807   5.716  19.208  0.1093  0.2278  0.0518
37304W        W45904  15.588   5.373   4.886 -0.1873 -0.1448  0.0829
37305W        W45905   1.788   3.496   9.983  0.1688  0.1148 -0.1753
37306W        W45906  24.636   2.104  21.927  0.1329 -0.0667  0.2125
37307W        W45907  10.124   2.561   6.657 -0.0776 -0.3705 -0.0076
37308W        W45908   4.222   1.721   2.149 -0.0221  0.2222 -0.1956
37309W        W45909  12.912   0.286   6.761  0.2072  0.0517  0.0372
37310W        W45910  28.915   0.800   8.182  0.0662 -0.0451  0.1897
37311W        W45911   3.394   5.363  18.505  0.1542 -0.1194  0.1468
37312W        W45912  20.771   6.323  21.517  0.0280  0.0367 -0.0691
37313W        W45913  15.238   0.918   8.045 -0.1440 -0.0152 -0.4383
37314W        W45914  29.091   0.972   2.097  0.1314 -0.1789 -0.2249
37315W        W45915  13.353   4.538   3.276 -0.0776 -0.1118 -0.1114
37316W        W45916  26.632   5.382   9.213  0.2083  0.2427  0.2941
37317W        W45917  21.060   6.249   1.110 -0.1652  0.0255 -0.3422
37318W        W45918   6.523   2.174   2.043 -0.1357  0.0654  0.2008
37319W        W45919  19.354   2.492   1.472 -0.0598  0.2461 -0.3055
37320W        W45920   5.996   2.494  22.492  0.1122 -0.0599 -0.2540
37321W        W45921  18.656   6.686  20.265 -0.1698  0.0043  0.0028
37322W        W45922   8.650   0.235  20.850 -0.0643  0.0601 -0.0565
37323W        W45923  29.097   5.842   1.759  0.0147  0.0203  0.1372
37324W        W45924  14.841   1.753  22.267  0.0171 -0.1492  0.1673
37325W        W45925  11.983   5.854  21.055 -0.1752 -0.0717  0.2162
37326W        W45926   5.517   6.884  19.561 -0.3045 -0.0023  0.0843
37327W        W45927  22.047   0.817  19.659 -0.2049 -0.3103  0.0415
37328W        W45928  22.331   1.752  25.292  0.2071  0.1091 -0.0117
37329W        W45929   2.352   1.532  16.978 -0.2114 -0.0240  0.2491
37330W        W45930   0.824   1.750   0.225  0.1025  0.3388 -0.1369
37331W        W45931   8.046   1.322  18.560 -0.0248 -0.1425 -0.1685
37332W        W45932  21.297   2.023  10.341  0.0945 -0.1311 -0.2783
37333W        W45933  28.620   1.059   8.518  0.0008 -0.2469  0.0783
37334W        W45934   6.194   5.348  25.812  0.1446  0.1674  0.3050
37335W        W45935  18.697   6.868  11.381 -0.1748 -0.0292 -0.1431
37336W        W45936  16.268   0.107  24.690 -0.2178 -0.2378 -0.3784
37337W        W45937  25.938   1.812  25.967 -0.3372  0.0374 -0.1833
37338W        W45938   3.748   0.240   0.807  0.1208  0.0250 -0.1570
37339W        W45939  17.517   4.762  21.884  0.1202 -0.2169 -0.2473
37340W        W45940  11.492   0.171   6.658 -0.1331 -0.1787 -0.1000
37341W        W45941  27.000   2.992   9.442  0.0966 -0.0436 -0.1013
37342W        W45942   5.694   0.274  23.904  0.1071  0.0859 -0.3563
37343W        W45943  10.861   5.599   5.266  0.0139 -0.3062 -0.0145
37344W        W45944   0.188   7.371  22.552  0.0922 -0.2227  0.2527
37345W        W45945   7.168   5.400  23.576  0.1522  0.0838 -0.0302
37346W        W45946  24.233   2.553  18.128 -0.2916 -0.0736  0.2892
37347W        W45947  27.908   2.938  18.568 -0.2436  0.0724 -0.0764
37348W        W45948  13.841   5.831  21.161 -0.0715 -0.2542  0.1165
37349W        W45949  28.283   3.950  15.679 -0.1842  0.0831 -0.2307
37350W        W45950  15.205   1.755   1.696  0.0989 -0.2822 -0.0545
37351W        W45951   2.549   5.658   2.852 -0.0095  0.0235  0.1088
37352W        W45952  18.155   3.082  19.139 -0.2585 -0.1120 -0.1815
37353W        W45953   6.588   4.462   2.502 -0.3118 -0.1029  0.0907
37354W        W45954  27.697   1.435   2.494  0.0285 -0.1255 -0.0672
37355W        W45955   2.478   3.153   2.624  0.3005  0.0910 -0.2416
37356W        W45956   2.826   1.398  25.165 -0.1058 -0.0430  0.2028
37357W        W45957  13.158   4.257   2.852 -0.1094 -0.2051 -0.0445
37358W        W45958   2.659   6.541   1.831 -0.1074  0.2106  0.2370
37359W        W45959  12.828   2.328   0.066 -0.3352  0.0988 -0.0413
37360W        W45960   1.662   7.166   3.348  0.0888  0.1681 -0.2879
37361W        W45961  25.718   7.597   0.446  0.0360  0.0949 -0.0224
37362W        W45962   7.992   0.230   4.299  0.1180 -0.1397 -0.0391
37363W        W45963  22.235   5.601   1.058 -0.2286  0.1475  0.1286
37364W        W45964   6.615   2.079   1.351 -0.3119 -0.0151 -0.1030
37365W        W45965  31.033   1.427   1.205 -0.0815  0.0402 -0.1869
37366W        W45966  18.414   3.971  10.171 -0.1349 -0.0531 -0.0334
37367W        W45967  23.910   2.638   7.998 -0.1581  0.0901  0.1983
37368W        W45968  16.600   6.241   7.029 -0.2048  0.0737 -0.0109
37369W        W45969  24.500   4.743  18.342 -0.1326  0.2196 -0.0043
37370W        W45970  10.158   1.772  15.980  0.1676 -0.1880 -0.1159
37371W        W45971  18.126   0.731  16.777  0.0479  0.3194  0.0559
37372W        W45972   0.916   0.065   5.565 -0.0461  0.1467 -0.2811
37373W        W45973   4.555   4.903   4.670  0.0080  0.0448  0.0688
37374W        W45974  15.136   6.690  19.032 -0.0471 -0.0491  0.0859
37375W        W45975  21.841   2.657  16.647 -0.0295 -0.0022 -0.1852
37376W        W45976  10.692   2.058   8.017  0.1063 -0.0335  0.1530
37377W        W45977  30.620   4.905  24.155  0.1593 -0.1028 -0.2813
37378W        W45978  31.155   4.704  23.025  0.0461 -0.4119  0.3495
37379W        W45979  20.478   1.933   5.372 -0.1410 -0.2344  0.1096
37380W        W45980  27.573   2.868   0.248  0.0502  0.0238  0.0133
37381W        W45981   7.698   1.565   1.170 -0.0007 -0.2632  0.0371
37382W        W45982  20.561   1.926  15.627 -0.2663 -0.2226 -0.0289
37383W        W45983  11.491   3.154   1.508 -0.1034  0.0610  0.1899
37384W        W45984  19.833   7.091   7.630 -0.2654  0.1223 -0.0152
37385W        W45985   6.853   0.715  23.194 -0.6189  0.1504  0.4122
37386W        W45986  21.427   0.504  16.065  0.2048 -0.0232 -0.1445
37387W        W45987   6.248   5.069   2.177  0.2532  0.2990  0.1512
37388W        W45988   5.759   6.535   8.923  0.0525 -0.0220  0.0416
37389W        W45989  17.022   5.997   2.539 -0.0044  0.1700 -0.0436
37390W        W45990  16.894   3.692  17.974 -0.1509 -0.2604  0.0596
37391W        W45991  25.314   1.970   2.443  0.0720  0.0627  0.0339
37392W        W45992   9.152   4.079   2.809 -0.1711  0.0657  0.0366
37393W        W45993   0.416   3.241   3.848  0.1207 -0.0602  0.3195
37394W        W45994   8.265   0.632  20.726  0.0575 -0.0509 -0.0885
37395W        W45995   5.662   3.296  10.816 -0.0378 -0.0168  0.0249
37396W        W45996   4.207   6.903  23.431  0.1248  0.1739 -0.1071
37397W        W45997  26.954   2.289  21.237 -0.2480 -0.1300 -0.1075
37398W        W45998   2.582   4.126   2.755  0.1797  0.0608 -0.1677
37399W        W45999  22.163   0.818  23.432 -0.1397  0.2428  0.3153
37400W        W46000  11.258   3.747  20.672  0.0965 -0.1529  0.0664
37401W        W46001   9.856   2.743   1.789 -0.0487  0.0999  0.0255
37402W        W46002   4.415   0.633  19.609  0.0127  0.1509 -0.2640
37403W        W46003  23.002   3.055  20.710 -0.1331  0.0112 -0.1429
37404W        W46004  26.516   0.845   0.128 -0.0435 -0.2527 -0.0445
37405W        W46005  22.350   1.525   7.712 -0.5672 -0.3371  0.0742
37406W        W46006  18.700   1.179   6.039  0.0981  0.2097  0.0092
37407W        W46007  19.103   5.269   4.731 -0.1437  0.3138 -0.1074
37408W        W46008  23.213   1.961   9.367 -0.2232 -0.1808 -0.1085
37409W        W46009  23.724   1.130   2.348 -0.2345  0.0999  0.2151
37410W        W46010  24.172   1.124   1.156 -0.0651 -0.2193 -0.2033
37411W        W46011  23.253   5.662   2.595 -0.1457 -0.1128 -0.1138
37412W        W46012   7.456   0.750  17.946 -0.2893 -0.0772  0.1363
37413W        W46013  11.518   2.222  19.980 -0.1304  0.1990 -0.1450
37414W        W46014  12.414   4.285  17.662  0.0055  0.1662  0.0537
37415W        W46015   6.253   0.878  24.531  0.2576  0.0450 -0.0388
37416W        W46016  23.960   3.304   5.878  0.0550 -0.0611 -0.3257
37417W        W46017  25.626   1.418   3.995 -0.1038 -0.2172 -0.3120
37418W        W46018   0.432   0.963   3.131 -0.1251 -0.1594 -0.1892
37419W        W46019  15.436   6.901   3.595 -0.0165  0.1586 -0.1203
37420W        W46020   6.778   1.876   0.527  0.2040 -0.2305  0.1966
37421W        W46021  12.739   4.611  22.008  0.1916  0.0437  0.0180
37422W        W46022  21.503   7.014  11.182 -0.1642  0.2023 -0.0329
37423W        W46023  10.715   3.855   9.983  0.3327  0.1668  0.0701
37424W        W46024   4.523   0.489   1.229 -0.2312  0.0317  0.1539
37425W        W46025  11.266   6.196   9.983  0.0492  0.4077  0.0864
37426W        W46026   3.797   2.818   3.298  0.0676  0.0300  0.3160
37427W        W46027  24.454   7.378   4.259 -0.2428 -0.0601 -0.1682
37428W        W46028  25.845   6.922   5.652  0.1287  0.2149  0.1806
37429W        W46029  19.837   0.425  15.962 -0.1710 -0.0251 -0.1473
37430W        W46030  26.105   2.138   8.922  0.0835  0.1949 -0.6287
37431W        W46031  30.110   6.750  22.033 -0.1151  0.4360  0.2094
37432W        W46032  29.685   5.404  10.119 -0.1380  0.0848 -0.0134
37433W        W46033  23.453   6.012  22.387 -0.0824  0.1962  0.0945
37434W        W46034   8.107   6.150  23.232 -0.0722  0.1966 -0.0306
37435W        W46035  13.186   2.652  21.605  0.0206  0.1607  0.4776
37436W        W46036  29.546   2.969   4.266  0.2242  0.2295  0.1255
37437W        W46037  30.938   5.512  18.769 -0.0899 -0.2655  0.2886
37438W        W46038  17.646   7.582  15.174  0.1226 -0.1193  0.3557
37439W        W46039  21.642   5.208  16.198  0.2400  0.3724  0.0031
37440W        W46040  23.089   7.600  18.819  0.1659 -0.0224  0.3382
37441W        W46041   9.027   7.657  17.239 -0.0248  0.1668 -0.2488
37442W        W46042   2.109   3.334   8.438  0.4937 -0.0398 -0.0484
37443W        W46043  15.307   4.211  24.061 -0.2786  0.0836  0.0899
37444W        W46044  27.395   6.191   0.500  0.1146  0.0003 -0.4026
37445W        W46045   2.292   4.928  16.993 -0.0051  0.3008 -0.1836
37446W        W46046   8.109   2.645  21.857  0.1492  0.0535 -0.1853
37447W        W46047  22.781   7.292   5.407 -0.0579  0.3214 -0.1510
37448W        W46048  14.857   6.742  23.960 -0.0970 -0.3969 -0.1965
37449W        W46049  12.615   7.620   4.592  0.0346  0.0796  0.1327
37450W        W46050  27.030   1.159  20.425  0.0547 -0.0994  0.1330
37451W        W46051   2.655   4.715   5.285  0.1895  0.1802 -0.0809
37452W        W46052  10.869   4.021  19.861 -0.2169  0.0102 -0.1735
37453W        W46053  12.586   0.342   0.700 -0.2416 -0.0135  0.2257
37454W        W46054  12.755   5.803  26.362 -0.2813 -0.0074  0.1607
37455W        W46055  26.258   5.759   1.039  0.2553 -0.1197  0.0201
37456W        W46056  27.282   3.510   4.637 -0.1969  0.0138 -0.2160
37457W        W46057  29.236   1.671  16.162 -0.1024  0.1085  0.0813
37458W        W46058  19.024   7.407  16.893  0.1046 -0.0697 -0.1569
37459W        W46059  24.909   3.248  24.661 -0.1306  0.1575 -0.0077
37460W        W46060  23.210   1.877  22.800  0.0350  0.1886  0.0624
37461W        W46061  15.254   1.935  14.400 -0.0896  0.0089  0.1025
37462W        W46062   5.916   0.831  21.968 -0.2239  0.1472 -0.1257
37463W        W46063   9.591   4.600   3.136 -0.2849 -0.0036 -0.3700
37464W        W46064  14.825   3.745   9.352  0.2842  0.0708 -0.0699
37465W        W46065  21.966   6.231  17.229  0.0409  0.0143  0.1291
37466W        W46066   4.957   1.981   9.714 -0.0299 -0.1662 -0.1198
37467W        W46067  18.254   6.360   9.759 -0.0504  0.0142 -0.3038
37468W        W46068  26.064   3.093  19.850  0.3326  0.2399 -0.1372
37469W        W46069  16.786   3.315   8.660  0.0779  0.1066 -0.1553
37470W        W46070   5.660   6.825  16.435  0.1717 -0.3614  0.2325
37471W        W46071  11.379   1.408   7.892  0.1933  0.1288  0.0715
37472W        W46072  12.206   0.298  24.718  0.1292  0.1112 -0.2197
37473W        W46073   6.449   3.377  23.749 -0.4180  0.2814 -0.1409
37474W        W46074  27.232   6.447  25.601  0.0591 -0.1834  0.2399
37475W        W46075  20.663   0.708   1.924 -0.1371  0.2561  0.1847
37476W        W46076  11.618   2.658   9.331  0.1338 -0.0550  0.2504
37477W        W46077  17.731   2.320   4.810 -0.2561  0.1103  0.0851
37478W        W46078  25.326   5.967   0.740  0.1952  0.0676 -0.1191
37479W        W46079   2.078   0.575  21.967  0.0483  0.0691  0.1092
37480W        W46080  15.424   4.322  17.766  0.0653  0.0488  0.2086
37481W        W46081  13.204   2.875  16.571 -0.0352 -0.1908 -0.1759
37482W        W46082   4.347   6.134   8.739  0.2344  0.0983 -0.2127
37483W        W46083  24.251   6.638   9.145  0.0347 -0.1963  0.1240
37484W        W46084   3.908   0.079   7.123 -0.2194  0.0733  0.0508
37485W        W46085  23.257   3.523   3.540  0.1427 -0.0443  0.0513
37486W        W46086   4.565   3.332   1.458  0.0095  0.3136 -0.0886
37487W        W46087  10.262   4.148  19.255  0.2111 -0.1183 -0.1709
37488W        W46088  26.111   3.887   8.440 -0.0940  0.0751 -0.1327
37489W        W46089   2.891   5.428   9.763 -0.1764  0.0845  0.0396
37490W        W46090  21.374   3.174  21.413  0.2849  0.1239  0.2579
37491W        W46091  29.648   2.466  17.806  0.1065  0.0981 -0.0525
37492W        W46092  10.409   6.167   7.423 -0.0128  0.1541 -0.1737
37493W        W46093  18.540   4.229  17.128  0.1483 -0.2349 -0.0910
37494W        W46094   0.930   1.830  21.247 -0.0929  0.0087  0.1170
37495W        W46095   1.714   1.986  24.881  0.2632 -0.0712 -0.1597
37496W        W46096  19.454   4.283  23.698 -0.3848 -0.2448  0.0222
37497W        W46097  14.404   2.517  23.947 -0.2829  0.2749  0.0181
37498W        W46098   0.922   0.407   7.251  0.0060  0.2084  0.3284
37499W        W46099  19.875   0.502  18.190 -0.1313  0.0059  0.0868
37500W        W46100  24.283   4.479  24.529 -0.1133  0.1515 -0.2108
37501W        W46101   4.784   1.055  10.280 -0.1852  0.2348 -0.0595
37502W        W46102  13.277   6.593  18.743 -0.0618  0.0068  0.0853
37503W        W46103   8.061   2.515   1.970 -0.0182 -0.0114  0.0818
37504W        W46104  30.362   3.136   0.326  0.2292  0.0240 -0.0075
37505W        W46105   7.705   5.599  20.573  0.0774  0.0071 -0.1036
37506W        W46106   6.184   3.174   7.421  0.0154  0.1179  0.1142
37507W        W46107   5.151   4.690   7.360  0.5244 -0.3305 -0.2619
37508W        W46108   5.655   4.790   2.381  0.2015 -0.0636 -0.0096
37509W        W46109   6.530   1.574   2.805 -0.1844 -0.0730  0.1570
37510W        W46110   7.626   6.314   6.669  0.0436 -0.0391  0.0126
37511W        W46111  17.633   3.884   4.368  0.0599  0.0618 -0.0787
37512W        W46112  26.205   7.611   0.315 -0.0486  0.3192 -0.1172
37513W        W46113  15.348   4.993   0.395  0.0510  0.0140 -0.3594
37514W        W46114  25.030   0.222   2.397 -0.2828  0.0202  0.3854
37515W        W46115   7.777   3.177  20.265 -0.1323  0.0001  0.1413
37516W        W46116  11.502   4.625  22.413 -0.2104 -0.1464  0.1321
37517W        W46117  13.894   7.466  16.988 -0.3150 -0.2805  0.2010
37518W        W46118  10.800   3.741  25.607 -0.1068  0.2778  0.1957
37519W        W46119   1.625   2.183  17.313  0.0982  0.1110  0.4079
37520W        W46120  16.378   3.663   3.524  0.3007  0.0355  0.2135
37521W        W46121  26.721   4.845  15.842 -0.4270  0.1637  0.0900
37522W        W46122  26.884   0.139   6.914 -0.0532 -0.0367  0.2439
37523W        W46123   1.844   2.972   4.327 -0.1804  0.1280 -0.1075
37524W        W46124   7.520   3.197   2.348  0.3660  0.1239  0.3469
37525W        W46125  18.727   6.679  24.937 -0.2339 -0.0584  0.0963
37526W        W46126  29.324   5.092  24.853  0.0920  0.0696 -0.1700
37527W        W46127  22.927   2.744  16.771  0.0068 -0.0008  0.1463
37528W        W46128  17.418   4.750  16.451  0.4596  0.0255 -0.1304
37529W        W46129  16.184   4.682   9.706  0.1184  0.0097 -0.2421
37530W        W46130   7.683   5.945  25.223  0.0974  0.2315 -0.0889
37531W        W46131   1.312   6.352  24.497  0.1627  0.1563 -0.3800
37532W        W46132  24.848   2.134  25.245 -0.2731  0.1497 -0.2044
37533W        W46133  24.272   5.132  18.621  0.2226 -0.1083 -0.1095
37534W        W46134   9.774   1.734  20.733 -0.1126  0.0971 -0.1527
37535W        W46135   1.364   5.908  16.943 -0.3846  0.0285 -0.0795
37536W        W46136   0.475   2.327  22.615 -0.1497 -0.0792 -0.1718
37537W        W46137  18.844   1.654  16.492 -0.3616 -0.0923  0.3248
37538W        W46138  27.599   3.265  11.602 -0.3323 -0.0522 -0.5184
37539W        W46139  13.601   5.727  19.690  0.2878  0.2591 -0.2700
37540W        W46140  22.615   1.343  20.818  0.4155 -0.1847  0.1592
37541W        W46141  28.910   2.838   6.705  0.1682 -0.1933 -0.1417
37542W        W46142  16.640   0.494  25.512  0.2096  0.2166  0.0151
37543W        W46143   8.084   0.748   1.005  0.0420 -0.0601  0.2738
37544W        W46144  21.283   1.946  20.062 -0.1557  0.0254 -0.0534
37545W        W46145  17.845   6.821  16.247 -0.0377  0.2107 -0.1774
37546W        W46146   1.768   1.197   7.822  0.1569  0.0890 -0.1616
37547W        W46147   0.840   1.482  21.662  0.1746  0.1026 -0.1912
37548W        W46148  16.115   1.202  15.748 -0.2237  0.0261 -0.0140
37549W        W46149  17.774   4.492  15.546  0.1022  0.1613  0.0987
37550W        W46150  28.610   2.108   0.111 -0.0725 -0.1125  0.0762
37551W        W46151  14.260   7.078  21.930  0.2056  0.1556 -0.1408
37552W        W46152  22.823   0.430   1.340  0.0170  0.0774  0.0568
37553W        W46153   2.571   6.340  18.353  0.1322  0.3000 -0.1290
37554W        W46154  21.023   0.876  18.015 -0.0541  0.2526  0.2098
37555W        W46155  12.370   2.608   5.904  0.2185  0.1792  0.2033
37556W        W46156  14.879   6.609   9.929  0.1780  0.1435  0.1407
37557W        W46157  24.365   7.364  18.778  0.2923  0.0349 -0.0701
37558W        W46158  26.204   3.241  15.773  0.1864 -0.1242 -0.1157
37559W        W46159   4.211   2.793   1.170 -0.1647  0.0687  0.0242
37560W        W46160  30.119   2.009   6.287  0.1222 -0.1831 -0.1887
37561W        W46161   1.525   1.470  15.104 -0.0961  0.1662 -0.1957
37562W        W46162  22.042   7.358   7.538 -0.3471  0.0239 -0.0796
37563W        W46163   2.267   4.297   3.971 -0.3547 -0.0182  0.1727
37564W        W46164  20.942   1.115  19.773 -0.1493  0.2135  0.0091
37565W        W46165  30.478   6.877  23.288 -0.1802 -0.1681  0.1220
37566W        W46166   1.096   3.460  14.961 -0.0964 -0.0312  0.0111
37567W        W46167  24.753   1.514   5.207  0.0151  0.1750 -0.0451
37568W        W46168  30.507   6.542   3.958 -0.1066 -0.1829 -0.0826
37569W        W46169  11.494   1.438   6.999  0.2277  0.0538 -0.0698
37570W        W46170  22.060   1.467   5.711  0.0915  0.0330 -0.2240
37571W        W46171   0.157   6.155   3.259 -0.0262  0.0824  0.1227
37572W        W46172  19.563   4.100   6.279  0.1011 -0.1883 -0.1808
37573W        W46173  14.072   5.363  10.764 -0.0052 -0.2135  0.2480
37574W        W46174  11.712   0.776  17.550  0.0038  0.0651 -0.3130
37575W        W46175  27.392   7.042   1.658  0.0919  0.0189 -0.1270
37576W        W46176  22.145   6.738  16.257  0.2025 -0.1827 -0.0907
37577W        W46177  12.100   1.238   5.878  0.1962 -0.1241  0.1187
37578W        W46178  28.942   5.751   9.607  0.1308 -0.0854 -0.1908
37579W        W46179  16.357   2.662   2.815 -0.3383 -0.4371 -0.1551
37580W        W46180  19.099   1.960  21.260 -0.2037 -0.0079 -0.0061
37581W        W46181   3.483   1.072  19.904 -0.1930  0.1718 -0.2455
37582W        W46182   6.838   3.027   9.656  0.3219  0.1555 -0.0498
37583W        W46183  21.544   1.131  18.409 -0.2898 -0.2162 -0.3280
37584W        W46184   9.175   1.252   8.217 -0.1367 -0.1282 -0.1717
37585W        W46185   8.174   2.937   1.060  0.0962  0.1582 -0.0541
37586W        W46186   1.839   2.119  15.685 -0.0188 -0.0996  0.0220
37587W        W46187   9.496   5.802   0.520 -0.1644  0.0670  0.1200
37588W        W46188  21.188   3.765   0.997  0.2497 -0.0468 -0.3220
37589W        W46189  14.915   3.975  25.816 -0.1852  0.3635  0.2317
37590W        W46190   4.498   5.593  24.241 -0.1510 -0.0667 -0.3318
37591W        W46191   1.595   6.081   8.440 -0.0076  0.1560 -0.0120
37592W        W46192  10.528   5.045  24.828  0.2448 -0.0887 -0.1539
37593W        W46193   4.364   3.080   3.954  0.1111  0.3341 -0.3118
37594W        W46194   5.714   2.945  17.218 -0.0317  0.1233 -0.0520
37595W        W46195  26.945   0.647  19.551 -0.2210  0.0655 -0.0453
37596W        W46196   9.900   0.992   2.602  0.4762 -0.0158  0.0797
37597W        W46197  21.707   0.518   8.240  0.3800  0.2037 -0.2314
37598W        W46198   0.374   1.657   9.894 -0.1517 -0.3925 -0.1970
37599W        W46199  26.125   0.639  24.285  0.1897 -0.0067 -0.0571
37600W        W46200  12.084   1.908  18.002  0.1247  0.0733  0.0745
37601W        W46201  14.136   4.856   1.457  0.0463  0.0215 -0.3446
37602W        W46202  21.992   5.847   5.825  0.3527 -0.1645 -0.0349
37603W        W46203  10.591   3.156  19.845 -0.1118 -0.1310 -0.2210
37604W        W46204   9.463   2.291  16.577  0.1063 -0.0304  0.0029
37605W        W46205   2.484   3.414  11.456 -0.0989 -0.2823 -0.1320
37606W        W46206  23.222   6.751  22.232 -0.0904  0.0154  0.0161
37607W        W46207  15.345   4.213  20.113  0.3224  0.1285 -0.1602
37608W        W46208  21.304   5.598   1.532  0.0812  0.1132  0.3054
37609W        W46209  13.476   6.520   4.948 -0.2405 -0.0155 -0.0767
37610W        W46210   9.019   1.122   3.976 -0.2390  0.1787 -0.1295
37611W        W46211   0.989   2.806   6.878  0.1396 -0.0689 -0.1391
37612W        W46212  24.366   3.533  16.645 -0.1673 -0.2591 -0.0513
37613W        W46213   1.874   6.746   4.343  0.3774 -0.3037  0.0411
37614W        W46214   5.612   6.772  22.802 -0.1082  0.2948  0.0274
37615W        W46215   6.922   3.013   1.352 -0.0589 -0.1634  0.1278
37616W        W46216  12.138   6.841   4.739  0.1301 -0.0276 -0.3141
37617W        W46217  29.980   6.164  10.026  0.1957  0.2500 -0.1358
37618W        W46218  10.535   3.093  21.631 -0.0102 -0.1910 -0.2273
37619W        W46219  15.717   7.536   6.162 -0.1088 -0.1455 -0.0317
37620W        W46220   9.717   2.310  20.696 -0.2371 -0.2908  0.2744
37621W        W46221  22.976   1.966  22.361  0.1942 -0.0088  0.1908
37622W        W46222  18.409   1.926  24.648  0.0772 -0.0169 -0.1175
37623W        W46223   1.112   0.064   3.352  0.0346 -0.1436 -0.1052
37624W        W46224  20.029   2.919  10.287  0.2940  0.1581 -0.1149
37625W        W46225   6.723   3.100  22.596  0.1906 -0.0859  0.0240
37626W        W46226   9.503   1.695  24.013  0.0210 -0.2709 -0.1694
37627W        W46227  15.832   0.070  16.190 -0.2432  0.1579 -0.0363
37628W        W46228  18.012   4.384  23.597  0.1284 -0.0175 -0.0495
37629W        W46229  12.474   0.258  20.827 -0.0417 -0.0469  0.0133
37630W        W46230   8.127   4.069  21.521 -0.1984 -0.1785 -0.2806
37631W        W46231   1.192   0.537  21.626 -0.1228 -0.0828 -0.0873
37632W        W46232  10.923   2.716  16.741  0.1295  0.2353  0.1940
37633W        W46233  15.522   0.997   2.893  0.1156 -0.2441 -0.0254
37634W        W46234  23.637   3.629  19.493  0.2710 -0.2612 -0.2230
37635W        W46235  25.871   5.125  16.581  0.1897  0.0639 -0.2601
37636W        W46236  29.741   7.627  17.019  0.1761  0.1032  0.3514
37637W        W46237  18.729   5.761   5.430  0.0417  0.1769  0.0080
37638W        W46238  24.517   0.539   6.828  0.1046  0.1199  0.0094
37639W        W46239   8.551   6.438   0.428  0.0834  0.2099  0.0069
37640W        W46240  19.226   5.254  20.938  0.0906 -0.0826 -0.1492
37641W        W46241  14.152   3.210   0.775  0.1524  0.1624 -0.2410
37642W        W46242   7.649   4.905   6.863  0.0514  0.1306 -0.0711
37643W        W46243  10.590   5.734   9.529  0.0432  0.1043  0.2548
37644W        W46244   8.149   1.839   0.353  0.2348  0.1633 -0.1306
37645W        W46245  11.809   4.279   8.414  0.0599  0.0252 -0.0255
37646W        W46246  19.204   4.740  25.614 -0.0133 -0.2950  0.0464
37647W        W46247   5.369   1.352   8.705  0.0615  0.0660  0.1233
37648W        W46248  10.082   7.371  19.607 -0.2176 -0.1216  0.0335
37649W        W46249  27.704   2.774   3.306  0.2403  0.0319  0.1261
37650W        W46250  14.492   2.444   4.084  0.0973 -0.2161  0.0490
37651W        W46251   3.461   0.026  23.557 -0.0437 -0.3637 -0.0907
37652W        W46252  12.472   6.652  10.650 -0.2476  0.1083 -0.1532
37653W        W46253  17.612   1.254  24.186  0.2805 -0.2150 -0.3015
37654W        W46254  24.059   3.463  19.347  0.1568 -0.0543 -0.0819
37655W        W46255   3.094   4.626   3.819 -0.0799  0.2222 -0.0774
37656W        W46256   1.081   5.288  23.598  0.1272  0.3999  0.3809
37657W        W46257   7.280   6.084  17.541 -0.0320 -0.0352  0.0448
37658W        W46258   7.660   1.223   3.978 -0.0504  0.3264 -0.0380
37659W        W46259   2.899   0.373  18.509  0.2567 -0.2946 -0.1980
37660W        W46260  11.772   5.927  23.361  0.1771  0.0953 -0.0488
37661W        W46261   4.804   2.890   8.437  0.0464 -0.1089 -0.2846
37662W        W46262   0.455   3.691   9.811 -0.0576  0.0644  0.3481
37663W        W46263  18.453   0.733  20.517  0.5850 -0.2653 -0.0163
37664W        W46264  19.319   6.979   6.920 -0.0396 -0.0353 -0.1956
37665W        W46265  13.406   3.966   7.050  0.1497  0.1624 -0.3321
37666W        W46266   1.520   5.581   8.354 -0.0562 -0.1875 -0.4824
37667W        W46267  10.218   0.216   6.971  0.2342  0.0175 -0.2378
37668W        W46268  12.274   2.961   7.883 -0.0196 -0.0363 -0.0299
37669W        W46269  13.475   3.721  21.927  0.0367  0.2118 -0.4076
37670W        W46270   9.564   6.709  17.998 -0.1157  0.2314 -0.0982
37671W        W46271  16.933   1.795  19.691  0.2805  0.1591  0.1216
37672W        W46272  14.275   0.653   8.715 -0.1804  0.2502  0.3278
37673W        W46273  30.697   6.054   8.062 -0.2044  0.0069 -0.0397
37674W        W46274  26.661   3.903   1.195  0.2456 -0.2985 -0.0020
37675W        W46275  15.418   2.280  18.509 -0.1210 -0.2646 -0.0718
37676W        W46276   6.577   6.965   9.987 -0.2162  0.0626 -0.0709
37677W        W46277  26.352   0.878  23.381  0.0443  0.3625 -0.0562
37678W        W46278  23.421   1.323   8.325  0.0115  0.1169  0.0037
37679W        W46279  25.850   7.387   8.685  0.2306 -0.3735 -0.1283
37680W        W46280   2.114   6.341   6.022 -0.0349  0.4003  0.2946
37681W        W46281  16.224   5.932  10.308 -0.2549  0.0541 -0.1000
37682W        W46282  13.027   2.868  24.218  0.2224 -0.2893  0.2942
37683W        W46283  16.969   5.284  17.128 -0.0065 -0.2617 -0.0971
37684W        W46284   0.572   2.976   3.207  0.1315 -0.1319 -0.0608
37685W        W46285   4.956   0.750  15.790  0.3522 -0.1099  0.1951
37686W        W46286  20.859   5.283  23.835 -0.0788  0.1019  0.1080
37687W        W46287  11.260   2.273   6.094 -0.2045  0.3362 -0.0352
37688W        W46288  26.115   6.120  21.847 -0.1648  0.0596  0.0096
37689W        W46289  18.827   4.697  19.335  0.2759 -0.1688 -0.2976
37690W        W46290   6.638   7.115   1.382 -0.1458 -0.0149 -0.1673
37691W        W46291  23.020   2.033  25.826  0.0538  0.1844 -0.1558
37692W        W46292   3.470   0.204  21.506  0.1217  0.1329 -0.0030
37693W        W46293  24.925   1.901   4.336 -0.0887  0.3106  0.2591
37694W        W46294  26.063   4.266  16.101  0.0053 -0.0864  0.0584
37695W        W46295   6.773   1.101  25.867  0.3034  0.0467 -0.0648
37696W        W46296  15.749   3.243  25.888  0.3639 -0.4165 -0.1196
37697W        W46297  19.119   5.719  22.034  0.0085  0.0320 -0.1199
37698W        W46298  11.836   0.601  15.471  0.1141 -0.1805  0.0474
37699W        W46299  28.361   1.519   5.719 -0.0996  0.1155 -0.0612
37700W        W46300   9.717   5.893  17.225  0.0565 -0.2614  0.1312
37701W        W46301  10.572   1.702   2.588 -0.2310 -0.0898 -0.0232
37702W        W46302  13.348   6.001  10.236 -0.4022 -0.1070 -0.1415
37703W        W46303   1.914   5.996  15.847 -0.2018 -0.0897 -0.0552
37704W        W46304  31.165   6.612   8.604  0.1577 -0.1201  0.0055
37705W        W46305  17.666   4.597  10.103  0.0180 -0.0826 -0.3752
37706W        W46306  16.320   3.166   1.483 -0.2715  0.0513 -0.0065
37707W        W46307  28.841   4.515  22.930  0.0906 -0.2207 -0.2482
37708W        W46308  17.059   3.646   1.157 -0.3384  0.0836  0.2848
37709W        W46309  10.556   3.383  15.979 -0.0907 -0.0437 -0.2675
37710W        W46310  18.417   0.437  23.009  0.0762  0.2012  0.0538
37711W        W46311  13.531   4.492   0.545  0.1276  0.1563 -0.3371
37712W        W46312   6.569   6.940   0.855 -0.1325 -0.1645 -0.0257
37713W        W46313   0.969   7.244  23.158 -0.1926  0.0369 -0.1546
37714W        W46314   4.388   2.702  24.938 -0.1622  0.0403 -0.0024
37715W        W46315   0.127   0.499   4.468 -0.1327 -0.2466 -0.0492
37716W        W46316  19.944   4.998   5.559  0.2851  0.0777 -0.1299
37717W        W46317  17.030   6.769  10.194  0.4687  0.2070  0.1840
37718W        W46318  14.152   4.111  19.217  0.0246  0.0787  0.0398
37719W        W46319   5.548   4.212  18.940  0.0631  0.1272 -0.0066
37720W        W46320  21.962   0.391  18.077 -0.0848 -0.0827 -0.0480
37721W        W46321  22.884   6.484  17.647  0.1277  0.0226 -0.3941
37722W        W46322  12.641   2.615   0.434 -0.1377 -0.0588 -0.3469
37723W        W46323  22.729   5.384   6.964  0.1961  0.2623  0.0231
37724W        W46324  27.171   3.609  17.841 -0.2806 -0.0236 -0.1962
37725W        W46325  22.955   4.169  21.894  0.3010  0.0767 -0.0259
37726W        W46326  14.013   3.137   2.307 -0.3603 -0.1429  0.0313
37727W        W46327  26.312   2.479  19.326  0.2222  0.1819  0.0132
37728W        W46328  10.216   7.419   6.048  0.1042  0.0934  0.0481
37729W        W46329  12.401   7.668   6.149  0.0650 -0.0942 -0.0897
37730W        W46330  23.985   0.134  19.152 -0.1873 -0.2205  0.2687
37731W        W46331   9.160   0.491   9.446  0.0878  0.2555 -0.1416
37732W        W46332  16.961   6.503  25.804 -0.0414  0.2611  0.2305
37733W        W46333  20.905   0.945  22.967  0.0712 -0.0904  0.0014
37734W        W46334  20.309   3.600   0.171 -0.0969 -0.0669  0.2500
37735W        W46335  11.503   5.860  17.038  0.0537 -0.0097 -0.4143
37736W        W46336  29.526   4.866   3.942  0.2427 -0.3295  0.0430
37737W        W46337  16.034   5.644  17.045  0.2020 -0.0408  0.0982
37738W        W46338  23.534   5.593  20.689  0.0839 -0.0579  0.0259
37739W        W46339  30.585   7.511  23.051 -0.2160 -0.2511 -0.0593
37740W        W46340  24.572   4.266   8.714 -0.0799  0.2069  0.0812
37741W        W46341   5.493   1.559   6.146 -0.0166  0.1798  0.3518
37742W        W46342   5.957   3.712   6.034  0.0208 -0.1116 -0.1273
37743W        W46343  11.503   2.034   6.814 -0.1444 -0.1394  0.0416
37744W        W46344  30.997   0.939  24.066  0.0514 -0.5707 -0.1245
37745W        W46345  18.739   3.317  21.724 -0.1191  0.1283  0.1777
37746W        W46346  24.847   3.359   7.886 -0.2324 -0.0549 -0.1259
37747W        W46347  15.013   2.149   0.156 -0.1587 -0.2676 -0.1142
37748W        W46348  25.181   3.135   8.198  0.0104 -0.2226 -0.0812
37749W        W46349  25.340   7.388   9.837  0.1231 -0.2882  0.1741
37750W        W46350   4.267   4.570  16.437  0.1620  0.0118 -0.1383
37751W        W46351  15.145   0.221   1.214  0.0437  0.1177 -0.1207
37752W        W46352  10.083   0.127  20.585  0.2709 -0.1935 -0.0602
37753W        W46353  28.849   7.367  10.259  0.3250  0.3671 -0.1326
37754W        W46354  14.032   6.586   6.143  0.1664  0.0794  0.1288
37755W        W46355  28.447   2.465   2.090 -0.2643 -0.0647  0.0457
37756W        W46356  29.718   1.905   1.079 -0.0865 -0.2778  0.1686
37757W        W46357   6.638   5.273  17.208 -0.1166 -0.1179  0.0761
37758W        W46358  21.522   3.882   7.160 -0.1959 -0.0670 -0.0161
37759W        W46359  25.136   1.310  16.411 -0.2062  0.1910  0.1661
37760W        W46360  25.868   7.163   6.070 -0.0541 -0.1739 -0.1646
37761W        W46361  28.974   4.691  24.006  0.2684 -0.2042 -0.2986
37762W        W46362   0.918   6.211   3.839 -0.2022 -0.1719  0.0016
37763W        W46363  24.401   2.501   1.477  0.1391  0.1783 -0.1837
37764W        W46364  26.868   3.980   9.899 -0.2373 -0.2184 -0.4534
37765W        W46365   3.589   2.903   2.101  0.2257  0.3148 -0.0955
37766W        W46366   6.705   5.943   6.288  0.1419  0.0343  0.0955
37767W        W46367  22.449   1.830  21.595 -0.1034  0.0116  0.0188
37768W        W46368  28.062   7.608   1.124 -0.2484 -0.2840 -0.0522
37769W        W46369  28.004   0.071  19.931 -0.1683  0.0991 -0.2094
37770W        W46370  23.644   4.337  17.837 -0.1480 -0.2826 -0.1763
37771W        W46371   2.741   1.105  20.437 -0.2352 -0.1007 -0.4184
37772W        W46372  11.509   2.322  20.458 -0.2118  0.1672  0.2256
37773W        W46373  21.660   5.108   3.970 -0.2793 -0.2008 -0.1335
37774W        W46374  27.825   4.565   8.325  0.3677  0.0987 -0.0763
37775W        W46375   3.572   2.284   1.528  0.0382 -0.2935  0.0924
37776W        W46376  21.996   2.156  19.258 -0.0273 -0.2674  0.2904
37777W        W46377  29.386   4.971  17.234  0.1063 -0.3545 -0.0762
37778W        W46378  22.241   6.321  23.007 -0.0127 -0.1674 -0.1260
37779W        W46379   2.015   4.504   8.010  0.1576  0.0286 -0.0833
37780W        W46380  10.563   4.434   0.792 -0.1474  0.3943  0.1048
37781W        W46381   7.143   5.283   5.203  0.2175  0.0552  0.0898
37782W        W46382   1.162   7.031  10.162 -0.1696 -0.0922  0.2134
37783W        W46383  24.366   5.535  17.935 -0.1841 -0.3487  0.0346
37784W        W46384   9.320   6.438  18.421  0.0015 -0.0954 -0.2405
37785W        W46385  25.237   5.680  16.116 -0.1572  0.0987  0.0290
37786W        W46386   0.876   1.053   6.406 -0.0923  0.0594 -0.2284
37787W        W46387  25.366   7.593  18.882 -0.0586  0.0519  0.1212
37788W        W46388   1.423   4.407   6.637  0.0354 -0.0835  0.1619
37789W        W46389   7.240   1.365   1.694 -0.0421 -0.1947 -0.0837
37790W        W46390  18.037   4.891   6.913  0.2887 -0.3136  0.0977
37791W        W46391  19.490   2.911  24.298  0.0283  0.0478 -0.0129
37792W        W46392  14.525   0.261  10.034  0.1221 -0.2232  0.1360
37793W        W46393   4.260   4.442   7.054 -0.1166  0.1323 -0.1747
37794W        W46394  21.160   2.965  25.415 -0.2490 -0.4049  0.1540
37795W        W46395  11.194   7.610  25.471 -0.1734 -0.1517  0.1031
37796W        W46396   2.033   0.424  19.040  0.0490 -0.1585 -0.2051
37797W        W46397  27.426   6.794   8.576  0.2406 -0.2948  0.0786
37798W        W46398  26.059   5.319  16.147 -0.2830  0.0823  0.1344
37799W        W46399   9.446   2.457   2.217 -0.3440 -0.0368 -0.0406
37800W        W46400  17.830   3.793   1.611 -0.1541  0.0951 -0.0500
37801W        W46401  10.996   3.942   9.529  0.2617 -0.0159 -0.2440
37802W        W46402   9.290   1.057  17.896  0.0890 -0.1183 -0.0741
37803W        W46403  28.210   2.800   2.994 -0.1464  0.2205 -0.0237
37804W        W46404  15.390   5.835   0.219  0.2455  0.3155 -0.0943
37805W        W46405  28.005   2.235   3.121 -0.1501 -0.0827  0.1022
37806W        W46406   2.791   5.466   5.988  0.1645  0.0236 -0.1385
37807W        W46407   0.172   2.501   9.754 -0.0427  0.3382  0.0654
37808W        W46408  14.700   3.788  20.559  0.0102 -0.0308  0.0867
37809W        W46409  28.207   3.785  23.881  0.1712 -0.1591  0.2002
37810W        W46410  15.159   7.447   7.397 -0.1063  0.0498  0.0063
37811W        W46411  29.584   1.588   3.385  0.0543 -0.0205  0.3662
37812W        W46412  12.990   3.531  21.448 -0.0921 -0.0297 -0.1930
37813W        W46413  19.461   2.375   4.322  0.2685 -0.0064 -0.0676
37814W        W46414   0.369   2.817   6.973 -0.0017  0.0516 -0.0647
37815W        W46415   7.887   5.273   3.170 -0.0188 -0.1853 -0.0555
37816W        W46416  24.753   4.342  24.950  0.0970  0.1281 -0.2601
37817W        W46417  29.355   7.059  10.728  0.1571  0.2184  0.2081
37818W        W46418   2.314   6.720   1.281  0.2721 -0.1359  0.1760
37819W        W46419  28.122   4.632  21.222  0.2911  0.1327  0.4041
37820W        W46420  11.418   5.042   6.308  0.1604 -0.1606  0.0472
37821W        W46421  10.028   7.146  16.917 -0.1263  0.1337 -0.0665
37822W        W46422   5.731   3.664  10.416  0.1531  0.1661  0.0854
37823W        W46423  17.461   7.269  23.690 -0.0396 -0.0171 -0.5050
37824W        W46424  21.566   2.038   0.369 -0.2574  0.1159  0.2375
37825W        W46425  23.925   0.681   5.965  0.0824 -0.2333 -0.0847
37826W        W46426  25.859   6.234  20.141 -0.0201  0.1014 -0.1668
37827W        W46427   2.014   5.199  24.444 -0.0953  0.0575 -0.1159
37828W        W46428  21.733   4.209  23.940 -0.0993  0.3711  0.1195
37829W        W46429  29.567   2.686   0.940  0.0531  0.0314 -0.0548
37830W        W46430  19.706   7.108  18.878 -0.2149 -0.2161  0.1139
37831W        W46431  24.472   3.117  15.370 -0.3424 -0.3205  0.2290
37832W        W46432   9.910   5.147  16.256  0.0169 -0.0709  0.1081
37833W        W46433  25.379   1.152  17.154 -0.1801  0.0867 -0.1306
37834W        W46434  28.794   1.979   8.002 -0.2796  0.0549  0.0583
37835W        W46435  27.563   2.766  18.993 -0.1742 -0.3782  0.0598
37836W        W46436  23.240   3.914  10.605 -0.1397  0.0530  0.2281
37837W        W46437  16.728   5.236  19.335 -0.3365 -0.1504 -0.0557
37838W        W46438   6.442   5.369  26.284  0.1392 -0.1104  0.1487
37839W        W46439   3.160   0.216   8.417  0.2029 -0.0398 -0.0645
37840W        W46440   5.341   3.041   6.967 -0.2802 -0.2610 -0.0561
37841W        W46441  19.299   4.033  10.513  0.2132  0.4262  0.1660
37842W        W46442  29.521   1.203  17.269  0.0876  0.0702 -0.0796
37843W        W46443  19.847   4.639  10.053  0.0840  0.0162 -0.2376
37844W        W46444  23.034   1.516   1.960 -0.1023  0.3999 -0.1231
37845W        W46445   9.256   2.018  18.199  0.1011  0.2774 -0.0869
37846W        W46446  17.375   7.171  18.561  0.2563  0.2066 -0.0470
37847W        W46447  30.258   2.402  25.238 -0.1723  0.2649 -0.0141
37848W        W46448   1.472   1.106   9.243  0.2955 -0.2047 -0.0736
37849W        W46449   5.396   7.252   8.995  0.0938  0.0268  0.2410
37850W        W46450   7.182   3.384  19.781 -0.1385  0.0286  0.0238
37851W        W46451   2.008   0.178   3.668 -0.0656 -0.0193 -0.2180
37852W        W46452  18.341   5.938   8.652  0.2726  0.0145 -0.0501
37853W        W46453  16.125   0.759  24.247 -0.2328 -0.0449  0.1791
37854W        W46454  30.289   1.137  14.954 -0.1659  0.1439 -0.0777
37855W        W46455   1.345   6.643  14.889  0.0235 -0.1494  0.2495
37856W        W46456  22.943   0.305   5.947  0.1841 -0.0598  0.1388
37857W        W46457   4.925   2.656  21.532  0.0621  0.0762 -0.3492
37858W        W46458  12.737   7.713   0.293  0.0871  0.3853  0.4400
37859W        W46459  13.330   2.295  20.250 -0.0028 -0.0776  0.3633
37860W        W46460  11.567   2.269   0.712 -0.1487  0.0120  0.1805
37861W        W46461   3.125   3.655  26.261  0.0509 -0.0882 -0.3422
37862W        W46462  23.558   5.535  25.486 -0.2270 -0.0205  0.1515
37863W        W46463  12.882   7.037   0.922  0.0325  0.1170  0.2032
37864W        W46464  22.855   7.145   0.590  0.0952 -0.1608  0.1808
37865W        W46465   3.054   3.001   8.560  0.0212 -0.1926 -0.1994
37866W        W46466   0.184   1.549  25.490 -0.0100 -0.0565  0.5242
37867W        W46467  15.584   2.438   2.861  0.0309  0.1953  0.0613
37868W        W46468  17.659   2.979  18.155  0.2026  0.2260  0.0223
37869W        W46469  14.372   4.608   2.482  0.3169 -0.1202  0.1405
37870W        W46470   4.882   6.157  24.868  0.0306 -0.0691 -0.1328
37871W        W46471  29.714   0.405  21.978 -0.1069  0.1966 -0.0818
37872W        W46472  28.624   7.753  10.534 -0.2634  0.1711 -0.0263
37873W        W46473  29.812   4.976  21.856  0.1143 -0.2597  0.0203
37874W        W46474  16.805   4.243  23.568 -0.0323 -0.0128 -0.0462
37875W        W46475   6.003   2.835   1.957  0.0654  0.0252 -0.2467
37876W        W46476   4.633   4.961  19.036  0.1324  0.2206 -0.0018
37877W        W46477  11.579   0.132   7.845  0.0735 -0.0294 -0.0419
37878W        W46478  20.496   3.436   7.641  0.1745 -0.0461  0.2574
37879W        W46479   9.623   6.867  15.685  0.1336 -0.1548 -0.2080
37880W        W46480  13.665   7.230  18.224 -0.2569 -0.1388 -0.3055
37881W        W46481  27.361   2.826  26.112  0.1357  0.0993 -0.0326
37882W        W46482  26.622   5.025  23.282 -0.1622  0.1966  0.0208
37883W        W46483  18.501   2.019  10.076  0.1385  0.0023 -0.1659
37884W        W46484   8.784   6.291  15.906 -0.1518 -0.1435 -0.2260
37885W        W46485  16.792   0.291  21.113  0.2002 -0.2111 -0.1818
37886W        W46486  16.907   1.431   9.055 -0.0074 -0.1193 -0.2788
37887W        W46487  12.174   0.555   6.532 -0.1121 -0.2546  0.1261
37888W        W46488   1.213   6.372  22.280 -0.0152 -0.2742 -0.1238
37889W        W46489  10.957   7.058   1.747 -0.1962 -0.0560 -0.3859
37890W        W46490   9.512   1.322  16.523  0.0204  0.0279  0.1397
37891W        W46491  21.970   3.891  11.628  0.1192 -0.2473 -0.0276
37892W        W46492   8.731   1.041   7.970 -0.3525  0.0089 -0.0929
37893W        W46493  15.665   0.780  18.258 -0.0132 -0.0868  0.2300
37894W        W46494  22.387   2.929  18.287 -0.0925  0.2118 -0.0995
37895W        W46495  24.430   3.251  21.206 -0.1271 -0.3217 -0.0808
37896W        W46496  25.522   1.244  24.338  0.0624 -0.2398  0.2575
37897W        W46497   9.759   1.658  22.174 -0.3474  0.3471  0.1373
37898W        W46498   8.729   3.847  20.352  0.2063  0.5208 -0.1192
37899W        W46499  16.826   4.244  15.292 -0.0928  0.1550 -0.1558
37900W        W46500  27.433   2.398  15.782  0.1952 -0.3084  0.4680
37901W        W46501  14.888   0.028  24.441  0.0616 -0.0418 -0.1047
37902W        W46502   2.587   0.567  22.035  0.2452  0.1046 -0.0117
37903W        W46503   5.611   7.220  15.914 -0.1658 -0.0679  0.0678
37904W        W46504  30.868   4.460  25.972 -0.0553 -0.0734 -0.0520
37905W        W46505  24.687   1.649   6.991 -0.2013  0.2148  0.3585
37906W        W46506  17.675   0.187   5.559 -0.0554  0.0164  0.1432
37907W        W46507  24.827   5.339  10.438  0.0251  0.1976 -0.1303
37908W        W46508   4.802   2.089   7.808  0.1181 -0.1130 -0.2415
37909W        W46509  19.688   0.315  22.203 -0.1231 -0.0024 -0.1696
37910W        W46510   6.520   4.465   7.608 -0.1840 -0.2396 -0.2326
37911W        W46511  10.904   1.886   4.580  0.0621 -0.2891 -0.0550
37912W        W46512   2.141   6.297   9.171  0.1095 -0.2340  0.0236
37913W        W46513  24.763   2.851  23.301 -0.0592 -0.0972  0.0675
37914W        W46514  28.364   1.539  10.294 -0.0221  0.1760  0.0494
37915W        W46515   4.431   3.303   5.088 -0.1674  0.0487 -0.0277
37916W        W46516   0.848   7.640  15.178  0.1502  0.0077 -0.1646
37917W        W46517  24.739   7.574  16.868 -0.0574  0.1183  0.0189
37918W        W46518  13.479   4.280  20.842 -0.1147  0.2436 -0.1892
37919W        W46519   4.477   4.473  19.783 -0.3698  0.2015 -0.0966
37920W        W46520   2.001   5.694  22.092  0.1666 -0.4377 -0.2839
37921W        W46521  11.386   2.314  11.094  0.0940 -0.1664  0.2588
37922W        W46522   8.452   3.178   1.570  0.2308  0.0138  0.1957
37923W        W46523  21.448   7.630   9.799 -0.1919 -0.1622  0.1167
37924W        W46524  24.266   5.301   2.693 -0.2365 -0.0821  0.0077
37925W        W46525   0.049   4.541   8.797 -0.0548 -0.1392 -0.0397
37926W        W46526  19.858   5.890  10.504 -0.2011  0.1712  0.0217
37927W        W46527  25.400   4.557  17.464 -0.1520  0.2207  0.0657
37928W        W46528  29.045   4.402   1.388  0.0546 -0.2223  0.0588
37929W        W46529  27.410   4.237   2.934 -0.1438  0.0190  0.3198
37930W        W46530   0.574   3.923  21.468  0.0013 -0.0943  0.1046
37931W        W46531  25.493   7.300   7.183 -0.2534 -0.0573 -0.2844
37932W        W46532  18.100   3.094  10.837 -0.0594  0.0078  0.2170
37933W        W46533   6.489   3.516   0.307  0.0712 -0.1155 -0.0570
37934W        W46534  14.873   5.955   1.781  0.0928  0.1134  0.1171
37935W        W46535  21.605   5.968  17.677  0.1339 -0.0706 -0.1393
37936W        W46536  15.294   1.320  25.002  0.0463  0.0850  0.2597
37937W        W46537   1.638   0.486  17.854 -0.3115  0.0458  0.0765
37938W        W46538   5.087   3.253   6.150  0.2908  0.1577 -0.0008
37939W        W46539   9.142   2.507   4.293  0.1803 -0.0562  0.1775
37940W        W46540  19.047   1.569  17.042 -0.1054 -0.1797 -0.0676
37941W        W46541   9.871   6.986  21.084 -0.1111 -0.1848  0.1938
37942W        W46542  26.915   7.224  19.015  0.1022  0.1124  0.0338
37943W        W46543   5.446   4.717  18.907  0.0382  0.0443  0.0768
37944W        W46544  30.582   4.637   2.072  0.1948 -0.0277  0.2893
37945W        W46545   2.409   6.085   8.633  0.2587 -0.1170  0.0939
37946W        W46546   9.612   2.056   0.362  0.3947  0.0497 -0.1058
37947W        W46547   5.146   0.918  17.099  0.1585 -0.2988  0.2280
37948W        W46548   4.195   0.900  11.437 -0.3167 -0.3149  0.1469
37949W        W46549  25.152   2.226  15.396  0.0223  0.0126 -0.1457
37950W        W46550  15.343   5.006   0.866  0.0517 -0.1076 -0.3001
37951W        W46551   9.340   1.223   4.869  0.1398  0.0222  0.0234
37952W        W46552  27.010   0.651  16.151 -0.2250 -0.1535 -0.3007
37953W        W46553  17.156   6.486   9.700  0.3671  0.2705  0.0229
37954W        W46554   0.574   2.639  23.642 -0.1782  0.1116  0.1582
37955W        W46555   0.817   1.324   3.674  0.1599  0.1006 -0.1308
37956W        W46556   6.874   3.480  20.279  0.0107  0.1045 -0.2230
37957W        W46557   6.134   4.127   1.818 -0.2903 -0.3198 -0.1654
37958W        W46558   0.514   4.835   8.735 -0.0866  0.1910 -0.0054
37959W        W46559  12.184   7.169  15.742 -0.1624  0.1702  0.2324
37960W        W46560  15.199   6.512   6.964  0.3585  0.1879  0.1198
37961W        W46561   2.395   5.013  23.610  0.0428 -0.2613  0.2980
37962W        W46562  15.066   6.615  17.824  0.0290  0.0648  0.0139
37963W        W46563  29.116   3.725   3.250 -0.1683  0.0598 -0.0761
37964W        W46564  17.147   0.456  17.890  0.1133 -0.1221 -0.0409
37965W        W46565  26.329   6.543  19.820 -0.2686  0.2047 -0.2026
37966W        W46566  22.109   4.634  16.112  0.0579 -0.1846 -0.1460
37967W        W46567  20.549   3.792   1.290  0.1726 -0.1366 -0.0622
37968W        W46568  21.902   0.190   1.276 -0.1222  0.1540  0.1869
37969W        W46569   2.916   2.003   2.455 -0.1120  0.0071 -0.0064
37970W        W46570  29.196   3.546   1.800  0.0757  0.1055  0.1951
37971W        W46571   4.114   7.152   8.400 -0.1813 -0.0237  0.1706
37972W        W46572   5.861   3.839  17.784 -0.2226 -0.1669  0.0041
37973W        W46573   5.908   3.401  25.947  0.0860 -0.1108 -0.3982
37974W        W46574   6.486   5.324   6.205  0.0822  0.0974  0.2540
37975W        W46575   0.566   0.107   9.323 -0.1140 -0.0544  0.0082
37976W        W46576   1.833   3.299  25.450  0.0930  0.0030  0.2243
37977W        W46577   2.156   4.513   3.585 -0.3315  0.0645 -0.0342
37978W        W46578  23.444   1.653   3.339 -0.2392  0.0729  0.0441
37979W        W46579  14.228   0.866  23.508  0.3074  0.0171 -0.1155
37980W        W46580  22.702   1.937  20.081  0.0138  0.1116 -0.0040
37981W        W46581  25.467   0.180   3.176 -0.0068  0.2311 -0.1093
37982W        W46582  20.045   7.168  10.735  0.1373  0.3153 -0.0407
37983W        W46583  18.752   0.850  21.245  0.1732  0.1613 -0.1087
37984W        W46584  31.007   7.737  10.094  0.0929  0.1862  0.1058
37985W        W46585  23.326   1.420  21.176 -0.1646 -0.1581 -0.1205
37986W        W46586  24.048   0.685   8.778  0.0635  0.0939  0.0713
37987W        W46587  21.523   2.817   7.841 -0.1337 -0.5303  0.2192
37988W        W46588  12.858   3.595   0.950  0.0122 -0.0397 -0.1105
37989W        W46589   6.817   4.700  17.870 -0.2063 -0.1039  0.2227
37990W        W46590  27.906   3.243   8.421 -0.0384  0.1072 -0.0684
37991W        W46591  17.870   5.114  15.456 -0.1521  0.1498 -0.2665
37992W        W46592   0.581   2.089  23.177  0.0231 -0.2416 -0.4099
37993W        W46593  15.416   6.983  26.131 -0.1036 -0.0599 -0.2875
37994W        W46594  15.319   3.090   1.849  0.3003 -0.3897 -0.0181
37995W        W46595  14.284   6.865  17.170  0.0221 -0.1973  0.1931
37996W        W46596  18.511   3.196  17.365 -0.0856  0.1289 -0.0112
37997W        W46597   9.026   6.214   9.993  0.0582  0.1493 -0.1099
37998W        W46598  11.128   6.546  18.448 -0.0647  0.1050 -0.0579
37999W        W46599  12.721   0.257  15.150 -0.0775  0.0645 -0.1260
38000W        W46600  24.556   0.509  19.348  0.2431 -0.0985 -0.0703
38001W        W46601  29.566   2.036   7.451 -0.0419  0.1094 -0.0244
38002W        W46602   2.764   7.374  19.574 -0.0544  0.0174  0.1130
38003W        W46603  22.948   0.230  17.975 -0.0222 -0.2846 -0.1926
38004W        W46604  16.344   1.915  18.176  0.1257  0.2117 -0.0870
38005W        W46605   0.342   6.481  23.553  0.0737 -0.3537  0.1192
38006W        W46606  18.042   7.338   6.097  0.2942  0.2313  0.0739
38007W        W46607  23.972   3.069   7.682  0.1676  0.1104 -0.0030
38008W        W46608  25.548   0.242  23.569  0.1155 -0.3514 -0.0868
38009W        W46609  24.101   5.064   0.871  0.1323  0.1125  0.0247
38010W        W46610   6.910   4.143   8.321 -0.0246  0.2400  0.1545
38011W        W46611   0.564   2.853  16.683  0.0756  0.0862 -0.1265
38012W        W46612   3.810   2.736   4.340 -0.3070  0.2216 -0.0047
38013W        W46613   6.234   6.720   8.167  0.0626  0.1477  0.1486
38014W        W46614   0.958   0.943  25.990  0.2655  0.1830  0.2572
38015W        W46615  29.632   6.210  15.701 -0.2219 -0.0932 -0.1217
38016W        W46616  22.259   5.985   0.033 -0.0510  0.0886 -0.1143
38017W        W46617  21.831   0.230  16.898  0.0585 -0.1839  0.0392
38018W        W46618  19.460   2.515   2.935 -0.1285 -0.0494 -0.0503
38019W        W46619  11.135   3.610  10.931  0.0133  0.0823 -0.0114
38020W        W46620  24.901   3.379   2.599  0.0537  0.0762  0.2646
38021W        W46621  10.427   2.380  22.896  0.0563  0.0382  0.0627
38022W        W46622  25.671   4.551   0.943  0.0801  0.2188 -0.0374
38023W        W46623  28.598   3.564  23.074  0.1441 -0.0697  0.2687
38024W        W46624   9.878   4.651  20.901 -0.0111  0.0246 -0.1531
38025W        W46625   0.908   5.141   3.285 -0.0066  0.0862  0.0198
38026W        W46626   0.028   1.821  17.518  0.4680  0.0332  0.1160
38027W        W46627  29.413   0.628   7.621  0.0421  0.2882 -0.0446
38028W        W46628  23.961   6.418   3.922  0.0084 -0.0531  0.2464
38029W        W46629  22.438   4.555  19.979 -0.1689 -0.0671 -0.0279
38030W        W46630   4.478   7.777  20.780  0.2150 -0.2871  0.5056
38031W        W46631  23.422   2.746  23.010  0.0007 -0.0227 -0.0871
38032W        W46632  22.732   6.785  10.510  0.0102  0.0366 -0.1629
38033W        W46633  27.473   1.314  23.484  0.1761  0.1350 -0.2530
38034W        W46634  12.983   1.786   5.790  0.0585 -0.0248 -0.2630
38035W        W46635   6.937   4.977   6.075 -0.1691 -0.0683 -0.1336
38036W        W46636  29.585   2.621  14.816  0.4684 -0.1294  0.1406
38037W        W46637  15.129   0.938  22.728 -0.0235  0.1775  0.1150
38038W        W46638   4.697   3.966   3.444 -0.3638  0.2599  0.2512
38039W        W46639  23.410   2.449  24.055  0.3484  0.0911 -0.2150
38040W        W46640  19.557   4.359  17.253 -0.1469 -0.1811  0.3001
38041W        W46641   0.109   6.364   5.848 -0.0389  0.2520 -0.0600
38042W        W46642  17.754   3.845   8.390 -0.1885 -0.0409  0.1779
38043W        W46643  30.383   1.264   3.033  0.2327 -0.2143 -0.1173
38044W        W46644  20.305   3.811   8.593 -0.4666 -0.0340 -0.0355
38045W        W46645   4.700   1.022  22.080 -0.0850  0.0509 -0.0081
38046W        W46646  28.776   5.176  18.547 -0.2441 -0.1614  0.0450
38047W        W46647  11.225   1.821   1.952 -0.3817 -0.2848 -0.1172
38048W        W46648  12.921   4.985  22.346  0.2550 -0.1176  0.1003
38049W        W46649   7.403   2.407  17.332 -0.1183  0.0184  0.0303
38050W        W46650  19.787   0.155   5.799  0.2210  0.0011 -0.0163
38051W        W46651   0.489   6.139   1.082 -0.1437 -0.2517 -0.2387
38052W        W46652  10.302   4.842  20.782 -0.0910 -0.0299 -0.0770
38053W        W46653  20.016   0.470   0.730 -0.0573  0.0237 -0.2085
38054W        W46654  22.736   3.664  21.680  0.1290 -0.1671  0.1150
38055W        W46655   2.098   4.624  26.133  0.2083 -0.1263 -0.1424
38056W        W46656  24.234   4.156  17.136  0.2026  0.0449 -0.0807
38057W        W46657   3.200   0.787  25.487  0.3814 -0.1110  0.3847
38058W        W46658  23.738   7.291   0.447 -0.1520 -0.1557  0.2345
38059W        W46659  23.259   2.229   4.450 -0.2079  0.1628  0.2153
38060W        W46660   1.647   3.382   3.002  0.1665 -0.1198  0.1981
38061W        W46661  10.404   4.533  10.018 -0.3673  0.1217 -0.0597
38062W        W46662  13.230   4.356  21.875 -0.0491  0.2331  0.1006
38063W        W46663  22.572   4.130   3.370  0.1661  0.2696 -0.0402
38064W        W46664   6.134   5.833  18.926 -0.1613  0.0311 -0.2307
38065W        W46665  29.526   2.887  23.122  0.3131  0.0458  0.0643
38066W        W46666  24.747   4.202  16.023  0.2659 -0.1998  0.2262
38067W        W46667   8.981   4.450  25.101  0.0235 -0.2470  0.0452
38068W        W46668   2.542   4.955   4.021  0.0329  0.0484 -0.1225
38069W        W46669  29.517   5.677   5.632  0.3510 -0.3991  0.0131
38070W        W46670   0.478   6.101   5.253  0.1946 -0.1895 -0.2312
38071W        W46671   2.097   0.784   1.135 -0.1080 -0.1934  0.1359
38072W        W46672  16.727   0.919   2.065  0.0334 -0.0045  0.0300
38073W        W46673  21.084   4.029   9.746 -0.0001  0.0799  0.2530
38074W        W46674  29.779   2.883   3.295  0.0256 -0.0084  0.2330
38075W        W46675   5.395   5.345  24.475 -0.1942  0.1468 -0.0714
38076W        W46676  24.172   0.518   6.446  0.3783  0.1554 -0.0700
38077W        W46677  26.929   5.984  22.216  0.1791 -0.1722 -0.3685
38078W        W46678   9.242   3.378   3.140 -0.1105 -0.1250  0.2689
38079W        W46679  16.521   2.342   8.794  0.3952 -0.0056  0.0326
38080W        W46680   6.992   1.885   8.408  0.0172  0.2060  0.0631
38081W        W46681   7.743   1.518   8.321 -0.1543  0.2058 -0.0584
38082W        W46682  10.849   6.308   7.009  0.2647 -0.0104  0.0276
38083W        W46683  17.564   6.006  10.314 -0.0281  0.1115  0.2849
38084W        W46684  14.726   2.550  16.271 -0.0492  0.2109  0.3807
38085W        W46685  14.534   3.226  17.321 -0.0144  0.2170  0.0160
38086W        W46686  21.732   7.316  23.695 -0.0903 -0.2523  0.3133
38087W        W46687  12.614   4.452  20.497  0.0033 -0.1037  0.0338
38088W        W46688  21.224   4.970  19.843 -0.0514 -0.2428 -0.0178
38089W        W46689   6.907   1.660   7.986 -0.0541 -0.1723 -0.2157
38090W        W46690  17.826   0.478  26.041 -0.0865  0.2094  0.2455
38091W        W46691  29.123   4.046   2.033 -0.2691  0.0671  0.1093
38092W        W46692   4.535   7.370   9.627  0.0165  0.0255 -0.0127
38093W        W46693  30.105   7.334  25.973 -0.0705  0.0827 -0.3436
38094W        W46694  16.140   5.455  22.867 -0.0451  0.2352  0.2218
38095W        W46695   3.364   5.607   3.298 -0.3091  0.0207 -0.3384
38096W        W46696  24.536   4.779  24.864  0.2230  0.3618  0.2078
38097W        W46697  19.658   6.611   6.874 -0.1781  0.1152 -0.0220
38098W        W46698   8.793   6.907   3.918  0.0704  0.0222 -0.0713
38099W        W46699   7.805   7.128  19.395 -0.1468 -0.3044 -0.1259
38100W        W46700  24.350   1.383  10.290 -0.1819  0.1236  0.1895
38101W        W46701  13.247   4.959   1.795  0.3066 -0.0402  0.0126
38102W        W46702  28.486   2.627  24.769  0.2225  0.2068  0.0834
38103W        W46703  26.335   2.182  17.196 -0.2092 -0.2451  0.2192
38104W        W46704  24.974   7.631  10.916 -0.0378 -0.1318  0.0608
38105W        W46705   2.418   3.544   7.044  0.0529  0.1268  0.0304
38106W        W46706   2.475   7.234   9.390 -0.1843 -0.1717  0.1154
38107W        W46707  29.176   4.303   7.756  0.1737 -0.0903  0.2200
38108W        W46708  23.253   4.598  21.694  0.3713  0.1799 -0.4383
38109W        W46709   6.429   5.419  18.858  0.1706  0.0149  0.2921
38110W        W46710  22.592   6.477   1.733 -0.1276 -0.1175  0.3984
38111W        W46711  26.377   4.028   1.838  0.2188 -0.1761 -0.4625
38112W        W46712   1.233   3.079  15.682  0.0982  0.2803  0.0232
38113W        W46713  21.414   2.217  23.759  0.1124 -0.2695  0.2798
38114W        W46714   6.287   7.147  23.460  0.4325 -0.0034  0.2476
38115W        W46715  22.715   2.992   7.320  0.1834  0.1689 -0.0248
38116W        W46716  10.012   5.506  15.250 -0.0744 -0.1238  0.0118
38117W        W46717  19.193   6.270  19.471 -0.2367 -0.0890 -0.1754
38118W        W46718  13.247   7.152   3.689  0.0866 -0.0185  0.1690
38119W        W46719  23.333   5.146  10.763 -0.0946 -0.0083 -0.1443
38120W        W46720   8.060   0.552  21.745 -0.0419 -0.0018  0.2727
38121W        W46721   1.529   2.248  15.352 -0.1443  0.0508 -0.0190
38122W        W46722  22.781   7.779   5.154  0.0212 -0.2632 -0.0711
38123W        W46723   9.779   0.035  10.377  0.1401  0.1045 -0.2622
38124W        W46724  26.220   2.044  19.552 -0.0197 -0.0869  0.1461
38125W        W46725   1.760   5.532  18.195  0.0600  0.1125  0.3688
38126W        W46726   6.002   3.205  24.094  0.1241  0.1125 -0.0132
38127W        W46727  26.943   4.970  22.848 -0.0718 -0.3554  0.1533
38128W        W46728   7.650   0.195   2.141 -0.0898  0.0911  0.3554
38129W        W46729   9.218   2.864   9.188  0.0957  0.1337  0.0805
38130W        W46730  10.035   3.662   7.695  0.1381 -0.1310 -0.0775
38131W        W46731  29.537   1.112   7.411 -0.0097  0.0268 -0.0881
38132W        W46732  23.616   0.126  18.462 -0.0168 -0.0484 -0.0750
38133W        W46733  30.902   5.626   0.659  0.0420 -0.1288 -0.0583
38134W        W46734  28.745   2.734  18.346  0.1632  0.0158 -0.0798
38135W        W46735  29.739   6.958   4.445  0.1153  0.1563 -0.0413
38136W        W46736   3.566   6.819  21.039 -0.1869  0.1066 -0.1621
38137W        W46737   9.330   2.817  23.559  0.0947 -0.2944  0.0292
38138W        W46738  23.226   1.724   5.311 -0.0914 -0.1750  0.1290
38139W        W46739  12.918   6.631  10.292  0.0825 -0.0499  0.0053
38140W        W46740  26.157   2.724   6.694 -0.2541  0.0398  0.1321
38141W        W46741  16.226   1.299  10.344  0.4300 -0.2032 -0.2857
38142W        W46742  15.704   2.891   0.397  0.0952 -0.0765 -0.2012
38143W        W46743  27.155   3.061  19.013  0.0031  0.1489 -0.1003
38144W        W46744   6.627   7.693  24.064  0.0168  0.1567  0.4275
38145W        W46745  11.622   0.472   0.738 -0.4742  0.0168  0.1126
38146W        W46746  17.559   5.050  20.465 -0.0365  0.0140  0.0221
38147W        W46747   9.596   5.653  20.624  0.0357  0.0542  0.1697
38148W        W46748   6.009   4.755  22.405  0.0902 -0.1204  0.1420
38149W        W46749   2.029   7.076  18.440 -0.2057  0.0811 -0.0950
38150W        W46750  11.019   5.413   7.440 -0.0577  0.1415  0.3768
38151W        W46751  21.498   7.190   9.618  0.1149  0.0227 -0.0325
38152W        W46752   6.948   6.482   2.196  0.0395 -0.0074  0.2922
38153W        W46753   0.082   4.150  21.631  0.3009 -0.0326 -0.0106
38154W        W46754  22.720   6.483  22.881 -0.1026  0.0660  0.1829
38155W        W46755  12.895   0.162   3.068  0.1231  0.0291  0.0472
38156W        W46756   4.700   3.226   5.840 -0.1944  0.0553 -0.0736
38157W        W46757  12.279   6.730  15.540 -0.0695  0.0587 -0.0970
38158W        W46758  19.567   4.469  21.606  0.2786  0.0318  0.1896
38159W        W46759   2.127   5.138  20.778 -0.0530  0.0310 -0.0249
38160W        W46760  21.579   3.343   2.620 -0.0751 -0.2772  0.0904
38161W        W46761  16.323   3.387   6.425  0.0833  0.1901 -0.2596
38162W        W46762  17.501   0.070  25.877 -0.1535 -0.2796 -0.2512
38163W        W46763   1.971   2.752  20.997 -0.0065  0.1759 -0.2614
38164W        W46764   2.141   4.442   1.513 -0.0442  0.4669  0.3002
38165W        W46765  26.626   0.541   1.068 -0.3463 -0.1452 -0.0170
38166W        W46766  17.759   1.229   2.969 -0.2049 -0.1611 -0.1323
38167W        W46767  25.659   0.765   6.305 -0.0321 -0.0878  0.0340
38168W        W46768  28.543   6.310   5.228  0.1037  0.1954 -0.1304
38169W        W46769   1.087   6.997   3.370  0.2461 -0.2284 -0.0224
38170W        W46770  24.579   2.279  18.602  0.0995  0.1542  0.2628
38171W        W46771   0.449   5.197   1.293  0.0941  0.0749 -0.0729
38172W        W46772  16.649   0.439  19.717  0.2305  0.0352  0.0377
38173W        W46773  17.042   4.678   7.357  0.0931 -0.1335  0.0010
38174W        W46774   2.907   5.356  10.677 -0.1945 -0.0359 -0.0257
38175W        W46775   6.944   0.607  22.668  0.1058  0.1617  0.2460
38176W        W46776  28.108   2.852   4.211  0.1651  0.0701  0.1189
38177W        W46777  22.316   0.192  21.893  0.0487  0.0637 -0.0246
38178W        W46778  28.133   6.123   5.095 -0.1383  0.0215  0.0928
38179W        W46779  23.528   1.743   3.817 -0.0044 -0.2493 -0.1669
38180W        W46780  29.349   4.826  15.613  0.2361  0.0482 -0.1084
38181W        W46781  18.164   1.639  21.465  0.1312 -0.0063  0.0930
38182W        W46782   9.174   7.091   5.182 -0.3306 -0.2922  0.1693
38183W        W46783  12.860   5.908  16.912 -0.0607  0.3103 -0.2159
38184W        W46784  12.084   4.640   8.702  0.1256  0.0905  0.2705
38185W        W46785  30.104   7.671  24.536 -0.1908 -0.1539 -0.0606
38186W        W46786   8.401   6.669  25.544 -0.3715 -0.0905 -0.2941
38187W        W46787   8.623   7.711  18.283  0.1379 -0.0886 -0.1909
38188W        W46788   1.318   2.319   5.397  0.0318 -0.1397  0.1697
38189W        W46789  23.508   4.885  18.338  0.1590 -0.0818 -0.1952
38190W        W46790   6.770   3.833  17.841 -0.1206  0.2934  0.1727
38191W        W46791  20.435   4.539   1.767 -0.1506 -0.1387 -0.0994
38192W        W46792  11.779   0.264  20.180 -0.0491 -0.1127  0.1737
38193W        W46793  24.557   2.791   9.216 -0.1877  0.0218  0.0644
38194W        W46794   9.609   5.286  21.736 -0.3156  0.0362  0.0102
38195W        W46795  13.684   2.368   1.166  0.0114 -0.0024  0.0113
38196W        W46796  18.557   1.264  15.053 -0.1700  0.2595  0.0417
38197W        W46797   2.800   4.826   7.228 -0.0448 -0.1884  0.1702
38198W        W46798   2.485   7.609  15.473 -0.0898 -0.1956 -0.0508
38199W        W46799  20.998   3.146   6.078 -0.2270  0.2437  0.3498
38200W        W46800  15.668   0.425  26.383  0.1351 -0.0466 -0.0842
38201W        W46801   2.409   7.681   3.276 -0.0080  0.0883 -0.2963
38202W        W46802  21.445   1.482   1.060 -0.0868 -0.0416 -0.1794
38203W        W46803  14.613   7.455   7.941  0.1882  0.0549 -0.2221
38204W        W46804   4.016   4.963  26.179  0.2484  0.0876  0.2606
38205W        W46805  30.136   7.794   4.513  0.2057  0.0155 -0.0439
38206W        W46806   1.785   6.474   9.940  0.2459 -0.0348  0.0818
38207W        W46807  26.236   7.432   6.832 -0.1793 -0.4016 -0.0492
38208W        W46808  27.278   4.233  16.901 -0.1871  0.4311 -0.1383
38209W        W46809   1.441   3.127   6.643 -0.3078 -0.2879  0.1018
38210W        W46810  24.856   2.151   7.140 -0.0203  0.0481  0.1773
38211W        W46811   6.941   3.103   4.736  0.2201 -0.2257  0.0025
38212W        W46812  13.036   6.829   5.066 -0.1960  0.1836 -0.2155
38213W        W46813  11.490   0.691  23.275  0.3094  0.2943 -0.0936
38214W        W46814  30.245   6.691   6.590 -0.0238 -0.2828 -0.1308
38215W        W46815   9.548   3.199   8.756 -0.2162 -0.2405 -0.2582
38216W        W46816  19.339   6.925   5.820  0.3365  0.0594  0.0542
38217W        W46817  31.008   1.372   6.847  0.0910 -0.0978 -0.0282
38218W        W46818   7.235   4.125  22.106  0.0701 -0.0189 -0.0429
38219W        W46819   3.962   0.829  22.588  0.1765  0.1932 -0.2532
38220W        W46820  19.373   1.076  18.898 -0.0303 -0.0555  0.0403
38221W        W46821   6.453   3.308  10.227 -0.0640 -0.5454 -0.0937
38222W        W46822   6.802   0.589   3.139  0.1872  0.1262  0.0083
38223W        W46823  13.154   3.853   3.930  0.2627  0.0488 -0.0641
38224W        W46824  13.521   7.006   1.801  0.0316 -0.1360  0.3539
38225W        W46825   7.651   6.685   9.204 -0.2242  0.1803  0.1464
38226W        W46826  24.170   6.821  18.286  0.2332 -0.1701 -0.1622
38227W        W46827  28.029   6.821  22.822  0.3046 -0.0083  0.2331
38228W        W46828   2.123   0.180   4.548 -0.0709  0.0664 -0.3386
38229W        W46829  27.363   1.845  22.855  0.2110 -0.0178 -0.1386
38230W        W46830   1.731   6.463  24.755 -0.0814 -0.0938  0.1672
38231W        W46831   4.053   5.833   0.781 -0.2924 -0.4418 -0.3730
38232W        W46832   1.974   3.449  18.479  0.2858  0.2472  0.0416
38233W        W46833  23.350   0.485  15.872  0.1385 -0.0916  0.0411
38234W        W46834  16.204   0.551   6.807  0.1386  0.2218 -0.0921
38235W        W46835  12.420   3.828   8.782  0.0128 -0.1702  0.0869
38236W        W46836   0.223   5.179   6.177  0.2982  0.0110  0.0885
38237W        W46837   3.098   4.726  15.127  0.1787  0.1300 -0.0936
38238W        W46838   5.334   6.520  10.082 -0.3504 -0.0474 -0.2584
38239W        W46839  27.608   4.173   0.129 -0.0328 -0.0121 -0.1178
38240W        W46840  16.575   1.262   0.353 -0.1923  0.2608 -0.1601
38241W        W46841  28.955   2.998  24.897 -0.2415  0.1815  0.3211
38242W        W46842  24.350   1.588  21.006 -0.1309 -0.2923  0.1945
38243W        W46843  12.970   5.628  18.841 -0.0252 -0.2247  0.2626
38244W        W46844   4.013   7.071   3.997 -0.0424 -0.1625 -0.3620
38245W        W46845   4.444   0.830   3.645  0.3918  0.1192 -0.3035
38246W        W46846   1.201   6.111   9.102 -0.3100 -0.1129 -0.1486
38247W        W46847  30.612   7.103   4.664  0.0657  0.0790  0.2624
38248W        W46848  13.204   3.746  24.686  0.1101 -0.1178 -0.0632
38249W        W46849  29.380   0.116  21.662  0.0585 -0.1350 -0.1548
38250W        W46850  19.772   6.282  17.574  0.0315 -0.1003  0.3870
38251W        W46851  10.377   7.448  25.252 -0.0098 -0.0623  0.2463
38252W        W46852  30.424   3.389  20.209  0.1499 -0.1939 -0.0326
38253W        W46853   9.175   5.959  26.231  0.3088 -0.0185 -0.3339
38254W        W46854  29.196   5.801  25.803  0.0459  0.1133  0.1881
38255W        W46855  10.113   3.534   8.206 -0.2031 -0.0778  0.0358
38256W        W46856   9.091   4.764   6.370 -0.0118 -0.2624 -0.0730
38257W        W46857   2.259   3.178  17.905  0.0577  0.0460  0.1217
38258W        W46858  18.259   7.653   3.416  0.1036  0.2938  0.0434
38259W        W46859   1.630   6.981   9.977 -0.2141 -0.2372 -0.2466
38260W        W46860  19.804   4.591  24.495 -0.0759  0.3710  0.0076
38261W        W46861  15.515   7.684  22.862 -0.2342  0.3469  0.1305
38262W        W46862  14.778   6.277  20.147 -0.0062 -0.0023  0.4414
38263W        W46863  19.794   0.689  24.257 -0.3099  0.2117  0.1795
38264W        W46864  24.800   2.134  18.057 -0.0228  0.0882 -0.0359
38265W        W46865  17.775   4.415  16.117  0.2624  0.1780  0.0720
38266W        W46866  12.238   2.085   4.656 -0.0227  0.2002 -0.0438
38267W        W46867  24.676   5.140   9.369  0.3947  0.0077 -0.2408
38268W        W46868   5.589   4.869  18.364  0.2919  0.1282 -0.2568
38269W        W46869   0.602   0.286  20.726  0.0485  0.0155 -0.2712
38270W        W46870  30.576   5.138   7.689 -0.2614  0.1797 -0.1536
38271W        W46871   6.438   6.864  26.203  0.2906 -0.5590  0.2185
38272W        W46872  11.690   2.046   6.356  0.0407  0.2124  0.0852
38273W        W46873  18.089   6.036  24.458  0.1585  0.1811 -0.0101
38274W        W46874  10.063   4.860  18.959  0.0558  0.1618  0.2369
38275W        W46875   0.505   2.289   2.063 -0.1676 -0.0604  0.4228
38276W        W46876  15.777   3.633  19.541 -0.1328 -0.2402 -0.0020
38277W        W46877  11.307   0.096  24.045  0.3044  0.0896  0.1846
38278W        W46878  12.207   6.628  19.848 -0.1133 -0.2379 -0.0785
38279W        W46879  15.390   0.189   5.228 -0.0155 -0.1669  0.0213
38280W        W46880   9.049   4.656  16.651  0.0480  0.2494  0.0923
38281W        W46881  10.445   7.030  17.199  0.2680 -0.3426  0.0853
38282W        W46882  28.187   2.838   0.027  0.1453  0.0042  0.2695
38283W        W46883  18.183   6.351   2.442  0.1297 -0.0461  0.0273
38284W        W46884  19.143   7.271  11.412  0.0631 -0.1516  0.2302
38285W        W46885  15.260   7.550  24.209 -0.1674 -0.1394 -0.2381
38286W        W46886  30.781   7.359  17.564 -0.3275 -0.1792 -0.0455
38287W        W46887   9.415   6.867  18.766  0.3294  0.0777  0.2608
38288W        W46888  20.251   1.301  17.723 -0.0018  0.3245 -0.0305
38289W        W46889  17.459   1.706  20.256 -0.2302  0.2637  0.2295
38290W        W46890  20.360   7.069   7.080 -0.0275 -0.0886  0.2729
38291W        W46891  24.774   6.609   1.394  0.4030  0.0273 -0.0198
38292W        W46892  15.379   6.890   3.090 -0.0316 -0.0574 -0.0904
38293W        W46893  18.779   4.019  19.816 -0.1182  0.1071  0.2744
38294W        W46894   2.810   4.927  25.738  0.2568 -0.0544 -0.1135
38295W        W46895   3.323   0.725  17.057  0.0360 -0.2067 -0.1018
38296W        W46896  18.793   3.415   4.689  0.0869 -0.0829  0.2578
38297W        W46897  15.972   1.691  14.876 -0.1877 -0.0816  0.1232
38298W        W46898   6.018   2.608   1.142  0.2097 -0.0821 -0.1048
38299W        W46899  11.281   3.906  25.493  0.0221  0.1838  0.0472
38300W        W46900  27.708   6.169   7.483 -0.0359  0.1801 -0.0365
38301W        W46901  26.565   5.325  20.338 -0.0707 -0.0901 -0.1922
38302W        W46902  20.627   7.254  19.847 -0.0286  0.1228 -0.1448
38303W        W46903  26.568   0.965   6.753 -0.2427 -0.0976  0.4078
38304W        W46904  13.042   0.462   9.834  0.0572  0.1253  0.3639
38305W        W46905   8.000   1.149  18.133 -0.0362 -0.1348 -0.1799
38306W        W46906  13.280   3.671   1.292  0.1456  0.0863 -0.0768
38307W        W46907   1.116   0.904   5.289 -0.3555 -0.0642  0.2526
38308W        W46908  22.713   3.168   0.429 -0.1077 -0.1504 -0.1741
38309W        W46909  25.745   6.040   2.719  0.2170 -0.2249  0.0994
38310W        W46910  17.384   4.907  23.710  0.2782 -0.0536 -0.4991
38311W        W46911  16.049   0.052  20.794 -0.0528 -0.3192 -0.2957
38312W        W46912   0.888   5.097   3.894  0.0359 -0.0429  0.1856
38313W        W46913  19.175   5.426  10.795 -0.1102  0.0339  0.0446
38314W        W46914   5.327   4.556   7.812 -0.1203 -0.2977  0.1254
38315W        W46915  20.958   5.388  22.089  0.2826  0.0356 -0.2046
38316W        W46916   3.332   0.989  16.599  0.0561  0.2071  0.0901
38317W        W46917  20.447   1.146   2.527 -0.0040  0.1458  0.0902
38318W        W46918  20.234   3.106  20.362 -0.0124  0.1751 -0.0995
38319W        W46919  17.839   4.140   7.346  0.0192 -0.2520 -0.2259
38320W        W46920  28.865   6.775   8.642  0.0349 -0.2461  0.0636
38321W        W46921  26.413   6.362  11.463  0.0715 -0.0115  0.0235
38322W        W46922   9.397   0.542   5.954 -0.1104  0.0465 -0.0501
38323W        W46923  22.783   2.763   3.623  0.0230  0.0374  0.0983
38324W        W46924  14.128   3.673  18.942  0.1591  0.1595  0.2831
38325W        W46925  14.093   3.570  24.903  0.0345  0.2398  0.1583
38326W        W46926  19.485   2.569   8.058  0.0180 -0.1055  0.2126
38327W        W46927   5.086   0.159  14.964  0.0639  0.1960 -0.1604
38328W        W46928   4.214   6.613  22.688  0.0608  0.3707  0.0141
38329W        W46929  15.193   6.749  23.104  0.1028  0.1992 -0.0755
38330W        W46930  30.661   0.431   1.044 -0.0389 -0.1458  0.1499
38331W        W46931  29.459   4.810   2.668 -0.1362 -0.0676 -0.1294
38332W        W46932   0.599   7.047  24.485 -0.1519 -0.3619 -0.1048
38333W        W46933  18.099   7.801   2.881 -0.0455  0.0969  0.0450
38334W        W46934  21.205   1.809   9.487  0.0814 -0.0116 -0.0499
38335W        W46935  20.704   6.489  19.212 -0.2122  0.2094  0.3379
38336W        W46936   4.025   7.238   1.109  0.0003  0.0732  0.1769
38337W        W46937  17.763   6.586  22.176 -0.1128 -0.1368 -0.2415
38338W        W46938   3.890   4.689   5.950  0.2090 -0.2160 -0.1766
38339W        W46939  18.349   6.398   2.876 -0.1543 -0.4401  0.0497
38340W        W46940   9.191   2.109   0.194  0.3478 -0.0460  0.0176
38341W        W46941   4.187   4.680  24.849  0.0272 -0.0131 -0.0792
38342W        W46942  23.835   5.020  10.071 -0.2882 -0.0752  0.0207
38343W        W46943  27.779   4.482  17.775  0.0958  0.0368  0.4074
38344W        W46944   5.272   3.149  16.506  0.1900  0.2737  0.1215
38345W        W46945  20.242   3.323  10.573  0.0393 -0.1489 -0.1285
38346W        W46946  27.572   7.669  18.823  0.0767  0.0475 -0.0980
38347W        W46947  10.855   5.582   2.994 -0.0949 -0.0124 -0.1305
38348W        W46948   4.846   1.448  24.327 -0.1236 -0.1366 -0.4247
38349W        W46949  30.254   7.131   5.852 -0.0635  0.0393  0.1447
38350W        W46950  21.149   7.659   4.038  0.2114  0.0145  0.0075
38351W        W46951  11.872   0.675   4.340  0.1540  0.0978  0.2030
38352W        W46952   0.656   3.397   1.457  0.4668  0.1408 -0.1462
38353W        W46953   7.900   4.399  10.270  0.0188 -0.2521  0.1704
38354W        W46954  22.259   0.778  10.041  0.0692  0.1715  0.0187
38355W        W46955   8.084   2.107  23.871  0.0027  0.2238  0.1796
38356W        W46956   8.650   6.433   6.550  0.1442 -0.1762 -0.0487
38357W        W46957  10.503   1.984   1.390  0.0904  0.0192 -0.2561
38358W        W46958  15.542   0.703  22.974  0.0155 -0.2453 -0.1302
38359W        W46959  13.656   2.245   0.703  0.3283  0.0818  0.1976
38360W        W46960   0.478   1.062  18.283  0.2077 -0.1521 -0.1504
38361W        W46961  18.598   0.178   0.819 -0.2164  0.0123  0.0371
38362W        W46962  17.326   3.799  16.487  0.0285 -0.0282 -0.1018
38363W        W46963   6.478   6.036   9.568  0.2134 -0.3305  0.1303
38364W        W46964  21.999   0.610  16.505  0.0670 -0.1412  0.0576
38365W        W46965  19.443   2.141  22.041  0.3193 -0.2269  0.1231
38366W        W46966   3.522   3.080  16.100 -0.0562  0.0449 -0.0260
38367W        W46967   2.518   5.990   8.134 -0.0697  0.1468  0.3420
38368W        W46968   6.489   4.932  25.830  0.0622  0.0402 -0.1886
38369W        W46969  10.729   7.549  17.479 -0.3012  0.0127 -0.0987
38370W        W46970  16.673   1.806   8.431  0.0487  0.2003  0.1531
38371W        W46971   3.348   6.277  19.579 -0.0657  0.1518 -0.0334
38372W        W46972   0.177   5.404   6.622 -0.1434 -0.0124  0.0833
38373W        W46973  24.806   5.655  16.750 -0.0535 -0.2857 -0.0161
38374W        W46974  28.105   2.107  17.809 -0.0513 -0.1434 -0.2778
38375W        W46975  27.940   1.684  17.549 -0.2536  0.2693 -0.2131
38376W        W46976  27.165   4.356  10.556  0.1745 -0.2334  0.0987
38377W        W46977   6.669   6.573  24.155 -0.3775 -0.0344 -0.3040
38378W        W46978  26.672   1.706  11.126  0.2163  0.1009  0.1886
38379W        W46979  20.135   5.520  20.621 -0.1414 -0.3910 -0.0341
38380W        W46980  15.146   2.456  20.277 -0.1434  0.1788  0.0364
38381W        W46981  28.521   6.179  16.237  0.3978 -0.1917  0.0926
38382W        W46982   7.509   7.402  20.511  0.1225 -0.0138  0.0469
38383W        W46983  30.201   3.224   2.251  0.1101 -0.2997 -0.0583
38384W        W46984  25.058   3.274   3.169  0.0856 -0.0528  0.1921
38385W        W46985   9.221   5.987  18.175 -0.1813  0.3380 -0.0029
38386W        W46986   5.872   7.041   8.886 -0.1588  0.0408  0.1539
38387W        W46987  22.314   1.892  16.729 -0.0622 -0.1220 -0.0811
38388W        W46988   3.043   5.884  24.937  0.1852  0.2487  0.1697
38389W        W46989  16.409   3.745   2.993  0.0431 -0.0297 -0.0176
38390W        W46990  21.619   0.420   5.751 -0.0377 -0.1532  0.0315
38391W        W46991  13.011   2.164  18.180  0.0654  0.1688 -0.0265
38392W        W46992  13.228   0.309  22.511  0.1416 -0.1567  0.0156
38393W        W46993   8.047   4.185  19.770  0.1304  0.0482  0.0073
38394W        W46994  29.688   7.690  10.170 -0.0769 -0.0628  0.0106
38395W        W46995  19.787   6.270  22.660  0.1028  0.0154 -0.3166
38396W        W46996   9.947   6.210  23.837  0.0751 -0.0894 -0.2983
38397W        W46997   5.004   7.272   6.198 -0.0454 -0.1878 -0.4429
38398W        W46998   9.041   6.914  10.635 -0.0341 -0.4603  0.0594
38399W        W46999  20.814   1.131  22.214  0.2935  0.1040  0.2168
38400W        W47000  10.124   1.152  17.625  0.0840  0.0423 -0.3608
38401W        W47001  27.868   5.400   2.853  0.3394 -0.2144 -0.1741
38402W        W47002  17.468   5.794   1.016  0.1003 -0.2882 -0.0875
38403W        W47003   6.295   3.743  25.086  0.0991 -0.3949  0.0634
38404W        W47004   2.300   5.341  23.205  0.1835  0.3672 -0.2171
38405W        W47005   2.042   1.910   2.647 -0.2040 -0.1943  0.0859
38406W        W47006  18.346   7.030   1.793 -0.2751 -0.0699 -0.1246
38407W        W47007  16.558   5.409   2.788 -0.0630  0.3903 -0.0385
38408W        W47008  11.320   5.824   0.550  0.0851 -0.2321 -0.2619
38409W        W47009  26.613   4.671   0.286  0.2371 -0.0752  0.2908
38410W        W47010  15.146   2.473  19.053  0.2758 -0.2143  0.2883
38411W        W47011  11.701   3.345   1.125 -0.1656 -0.1122  0.2469
38412W        W47012  28.950   7.607  22.893 -0.0980  0.2756  0.1311
38413W        W47013   3.206   3.432   6.218 -0.0603  0.1884 -0.0316
38414W        W47014   2.444   2.167  19.739 -0.0708 -0.3650  0.0062
38415W        W47015  12.996   0.556   5.278  0.3779 -0.0130 -0.1323
38416W        W47016  10.347   7.590   2.124 -0.0512 -0.1016  0.1370
38417W        W47017  21.209   6.740   5.359  0.1797 -0.2136 -0.0630
38418W        W47018   0.731   6.196  16.892  0.2214 -0.1095 -0.0188
38419W        W47019  24.258   3.662   5.768  0.2194  0.1473  0.0591
38420W        W47020  19.016   2.470  24.319 -0.0442 -0.1496  0.2512
38421W        W47021   7.368   0.462   5.581  0.0836 -0.0163 -0.4535
38422W        W47022  27.378   1.821  17.484  0.0347 -0.0412 -0.2759
38423W        W47023  14.823   4.918  18.446  0.2590 -0.1047 -0.1376
38424W        W47024  23.934   2.898   5.125  0.1115  0.0211  0.2155
38425W        W47025  18.780   0.944   1.423 -0.0102  0.0103  0.2126
38426W        W47026   5.928   6.036  20.888 -0.0007  0.3213 -0.2295
38427W        W47027  10.803   7.522   7.548 -0.0995 -0.1746  0.0659
38428W        W47028  11.585   0.048   7.204  0.3425  0.2838 -0.0145
38429W        W47029  28.234   4.510  11.330 -0.0513  0.0272 -0.1397
38430W        W47030   5.453   1.206   1.813  0.2282 -0.0143  0.0771
38431W        W47031  10.400   1.911  10.288 -0.3095 -0.0792  0.0101
38432W        W47032  12.461   0.687  23.777 -0.2106 -0.1192 -0.3748
38433W        W47033  11.117   3.562   8.450  0.0217  0.0441  0.4341
38434W        W47034  24.151   3.318  11.272 -0.2680 -0.2561 -0.1091
38435W        W47035  19.003   2.425   4.156  0.1029  0.0250 -0.2582
38436W        W47036   0.050   3.112   2.574  0.1183 -0.0220 -0.1368
38437W        W47037   6.764   0.450   9.921  0.0470  0.2345  0.1219
38438W        W47038   2.332   4.358   5.139  0.1279 -0.2510 -0.2341
38439W        W47039  16.573   3.483   0.702 -0.1593  0.1670 -0.2321
38440W        W47040  23.268   1.817   8.821 -0.0815 -0.1373  0.0302
38441W        W47041  10.049   0.004  15.102 -0.1443  0.2152 -0.2613
38442W        W47042  19.010   7.637  20.351  0.3261  0.1484 -0.2325
38443W        W47043   0.809   0.686  23.551 -0.0286 -0.1811  0.2919
38444W        W47044  25.604   3.057   5.872 -0.2521  0.1477  0.1991
38445W        W47045  19.868   3.587   2.475  0.0192 -0.2638  0.0612
38446W        W47046   1.752   3.541  24.477  0.1473 -0.1227 -0.0531
38447W        W47047  12.720   3.199   0.109 -0.0573  0.0811 -0.1494
38448W        W47048  20.520   3.521   8.107  0.0679 -0.1025 -0.2639
38449W        W47049  19.291   7.112  25.985  0.0492  0.0556 -0.1238
38450W        W47050  14.997   5.428  21.441  0.0889 -0.0408  0.4215
38451W        W47051  17.626   0.218  10.868  0.1497 -0.1385  0.0411
38452W        W47052   5.566   4.425  15.610 -0.0012 -0.1375  0.0528
38453W        W47053  27.228   6.490  17.728  0.1467 -0.2738 -0.1078
38454W        W47054  29.481   7.696   8.500  0.0671 -0.1431  0.0868
38455W        W47055  28.511   4.643  26.332 -0.1901 -0.0748 -0.0263
38456W        W47056  20.339   6.770  18.373  0.1175 -0.0302  0.2713
38457W        W47057  31.192   2.792  24.142 -0.2027 -0.0914 -0.0310
38458W        W47058  22.706   3.611  18.893  0.0962 -0.1702  0.1894
38459W        W47059   4.167   3.163   7.887  0.0903  0.1935  0.0440
38460W        W47060  30.515   1.277   7.038 -0.1179 -0.0377 -0.0301
38461W        W47061   8.031   1.832   8.553 -0.1178 -0.0693  0.0541
38462W        W47062  21.310   2.274   8.518  0.1219 -0.1686  0.0633
38463W        W47063  17.178   7.119  20.955  0.0996 -0.2154  0.2745
38464W        W47064  12.196   6.365   4.614 -0.0033  0.0560 -0.3454
38465W        W47065   8.114   4.145   9.241  0.0092  0.2328  0.2508
38466W        W47066  19.149   3.900   2.084  0.2687 -0.3426 -0.2103
38467W        W47067  19.868   0.071  16.910  0.0857  0.0815 -0.0636
38468W        W47068   2.774   1.344  18.286 -0.0973  0.0172  0.0676
38469W        W47069  29.719   2.871   7.814  0.2686 -0.2065  0.1104
38470W        W47070  23.137   4.194  25.847  0.1992  0.0475 -0.0763
38471W        W47071  20.495   1.279  18.593 -0.4338 -0.2205 -0.0536
38472W        W47072  27.089   7.494  20.937  0.0068 -0.3702 -0.1519
38473W        W47073   4.115   6.778  17.100 -0.1172  0.0460  0.0905
38474W        W47074   4.511   7.421  17.103  0.0073 -0.1093 -0.3603
38475W        W47075   6.471   0.032   3.741 -0.1462  0.0223 -0.3070
38476W        W47076   7.102   5.691   9.502  0.0697 -0.0999 -0.0047
38477W        W47077  24.530   2.389  24.923 -0.0587  0.0106 -0.2359
38478W        W47078  28.074   2.788   1.986 -0.1450 -0.3208 -0.0853
38479W        W47079  16.002   7.437  22.218  0.0052 -0.0194 -0.0645
38480W        W47080  20.203   4.597  24.793  0.2296  0.0151 -0.1278
38481W        W47081  11.877   3.809  10.247 -0.0123  0.1980  0.1216
38482W        W47082   2.539   3.789   3.105 -0.1369  0.1048  0.1771
38483W        W47083   2.890   0.935   9.756  0.4876  0.2342 -0.0291
38484W        W47084  11.234   4.652  19.207  0.0352 -0.1471  0.0777
38485W        W47085  16.271   3.621   6.900  0.2318 -0.1327 -0.1695
38486W        W47086  11.888   4.891   6.098 -0.2812  0.3267  0.3138
38487W        W47087   6.464   6.343   6.032  0.1687  0.1601 -0.0100
38488W        W47088  11.254   7.166  22.379 -0.0715 -0.0067 -0.2003
38489W        W47089  18.491   4.808   2.244 -0.4155 -0.0613  0.0150
38490W        W47090   2.344   4.047   9.879 -0.0031  0.0201 -0.1296
38491W        W47091  17.288   5.318   9.130  0.3556 -0.0804 -0.1804
38492W        W47092  10.051   1.046   2.081  0.0707 -0.1804 -0.2332
38493W        W47093   6.857   7.798  20.138 -0.1590  0.1507 -0.1411
38494W        W47094  13.143   5.296  21.565  0.2313  0.1148 -0.0036
38495W        W47095  25.571   6.982   9.749  0.3500 -0.2377  0.2387
38496W        W47096  18.350   3.487   9.855 -0.1285 -0.0882  0.0146
38497W        W47097  11.700   4.973  16.233 -0.0305 -0.0613  0.1395
38498W        W47098  24.094   0.062   2.193 -0.0176  0.2128  0.1287
38499W        W47099  17.823   0.964   6.347 -0.1329 -0.1662 -0.0737
38500W        W47100  15.230   6.013  16.553 -0.2962 -0.2835 -0.2011
38501W        W47101  10.825   6.786  17.001  0.0282 -0.2370 -0.0442
38502W        W47102  26.002   2.308   6.396  0.0928  0.1262 -0.1315
38503W        W47103  12.923   4.772  18.272 -0.0862 -0.1313 -0.1463
38504W        W47104   5.377   6.001   1.807  0.0799 -0.1118  0.4128
38505W        W47105  11.686   7.577  11.375  0.0820  0.2622  0.0102
38506W        W47106   4.887   4.177   4.356 -0.0335 -0.0797  0.0045
38507W        W47107  18.558   1.923  21.897 -0.1266 -0.2406 -0.0751
38508W        W47108  21.071   1.660   7.361  0.1205  0.1982  0.2419
38509W        W47109  15.645   3.552   7.779 -0.0543 -0.2222  0.2610
38510W        W47110  14.872   4.530   8.082  0.0836 -0.1265 -0.1918
38511W        W47111  11.826   0.058  15.347  0.0403  0.2913 -0.1575
38512W        W47112  26.378   1.494   8.295 -0.1740  0.0419  0.1331
38513W        W47113  19.786   2.920   7.050  0.2230  0.0945 -0.3499
38514W        W47114  27.106   5.719  16.076 -0.1202  0.0857 -0.0379
38515W        W47115  26.243   7.043  21.419  0.0171 -0.2600  0.2014
38516W        W47116  17.929   7.403   2.463 -0.1584 -0.1546  0.0720
38517W        W47117   1.471   2.931   7.192 -0.0723  0.0199  0.0926
38518W        W47118  12.117   1.652  15.143 -0.2290 -0.1842 -0.2140
38519W        W47119  20.324   6.704   2.758 -0.1667 -0.0051 -0.2677
38520W        W47120   2.242   4.040   1.861  0.3136  0.1435  0.2378
38521W        W47121  23.088   3.671   9.259 -0.0689  0.0516 -0.2736
38522W        W47122  12.128   0.111   0.545  0.0362  0.0753 -0.4906
38523W        W47123  21.285   0.173   2.179  0.2603  0.1043 -0.1424
38524W        W47124  26.819   5.080  10.961  0.0862 -0.0049 -0.1797
38525W        W47125   1.158   7.289  19.845  0.0001  0.4133  0.0145
38526W        W47126  28.589   4.214  20.754  0.0358 -0.2139  0.1371
38527W        W47127  13.257   4.549  23.191 -0.4307 -0.0654  0.1137
38528W        W47128  21.838   1.063  24.683 -0.1794  0.0516 -0.1150
38529W        W47129  25.856   6.289  23.106 -0.2281 -0.0646  0.0394
38530W        W47130  12.167   7.243   3.745  0.2252  0.0423 -0.1205
38531W        W47131  29.995   7.501   8.456  0.0315  0.0609 -0.0462
38532W        W47132   2.271   6.554  16.091 -0.0905 -0.1014 -0.0443
38533W        W47133  15.198   2.199  23.276  0.3490 -0.1541  0.1877
38534W        W47134  24.821   3.586  21.339  0.0838  0.4066 -0.0306
38535W        W47135  27.058   6.593   3.772  0.0478 -0.2733 -0.0845
38536W        W47136  12.655   6.971  15.731 -0.2291  0.3928  0.2054
38537W        W47137  13.388   4.994  18.636 -0.2397  0.2714  0.0358
38538W        W47138  30.481   0.233   9.654  0.2645  0.2323  0.1632
38539W        W47139   4.589   5.502  15.520  0.0313 -0.0601  0.4708
38540W        W47140   7.568   2.612   3.370  0.0536  0.0219 -0.0293
38541W        W47141  25.353   0.850   6.705  0.1304 -0.1936  0.1645
38542W        W47142  25.281   5.533  20.960 -0.0742  0.1810  0.0167
38543W        W47143   7.169   7.635   7.136  0.0826  0.1672 -0.1925
38544W        W47144  25.752   0.848  25.998 -0.1191 -0.0029  0.0155
38545W        W47145  10.358   6.470  10.652 -0.0590 -0.1958  0.2427
38546W        W47146   4.000   6.539  16.646 -0.0682  0.3703 -0.0602
38547W        W47147  27.379   6.750   9.125 -0.0409  0.1026  0.1193
38548W        W47148  18.593   3.509  19.649  0.1496  0.0706  0.0617
38549W        W47149   4.266   1.842  21.430 -0.0418  0.1771 -0.0922
38550W        W47150  23.690   0.409  20.822  0.3937  0.2435 -0.1396
38551W        W47151  22.035   1.540  24.862  0.0466  0.0343 -0.1474
38552W        W47152  24.773   4.158  23.793 -0.0276  0.2182 -0.3301
38553W        W47153  21.221   1.053  26.221 -0.1229 -0.1316 -0.0095
38554W        W47154  25.809   6.183  16.705  0.1033 -0.0509 -0.0575
38555W        W47155  30.792   3.121  10.955 -0.3339  0.0870 -0.1503
38556W        W47156  14.329   3.938  11.373  0.2115 -0.1126 -0.0982
38557W        W47157  16.900   0.823  25.983 -0.0106 -0.0543 -0.1591
38558W        W47158  27.366   0.085   9.989 -0.0389 -0.4893 -0.2476
38559W        W47159   0.768   0.861  18.600 -0.1211 -0.1392 -0.2898
38560W        W47160  18.804   2.563  23.838 -0.0545 -0.1755  0.1422
38561W        W47161  14.305   1.190   4.407 -0.2049 -0.1972  0.1708
38562W        W47162   8.579   4.323  15.917 -0.2586  0.0856 -0.0556
38563W        W47163   8.383   0.084   1.226  0.0152 -0.1093  0.0297
38564W        W47164  14.898   5.784  16.175  0.3134  0.2117  0.2487
38565W        W47165  22.458   2.361  21.599 -0.0066 -0.1547 -0.0343
38566W        W47166  12.020   5.934   4.270  0.2483  0.1511  0.0979
38567W        W47167  29.207   4.527  22.632 -0.1943 -0.1229  0.0330
38568W        W47168   4.271   3.788   4.966 -0.1985  0.0167 -0.0623
38569W        W47169  27.516   1.046   9.283  0.5082  0.0535 -0.0858
38570W        W47170   3.088   5.779   7.408  0.1894 -0.0358  0.1057
38571W        W47171  13.056   4.098   4.384 -0.0135 -0.0417  0.2842
38572W        W47172   0.010   0.158   7.222 -0.1796 -0.0515 -0.2678
38573W        W47173  10.584   0.348  21.195 -0.0227 -0.2357  0.0335
38574W        W47174  23.040   2.570   5.277  0.0028 -0.0767  0.0869
38575W        W47175  13.814   3.584  19.777  0.4288 -0.0657 -0.1614
38576W        W47176  30.651   5.965  23.412  0.2510 -0.4234 -0.0383
38577W        W47177   5.794   6.351  19.634  0.2698  0.1222 -0.0762
38578W        W47178  26.606   4.436  23.885 -0.0629  0.0593  0.1169
38579W        W47179  10.424   5.452  22.042 -0.0822  0.1376  0.1135
38580W        W47180   6.260   0.523   8.600  0.1567 -0.0826  0.2104
38581W        W47181   0.011   5.346  10.201  0.3310  0.1683  0.2799
38582W        W47182   7.457   3.076  18.538  0.0192 -0.3569  0.0943
38583W        W47183  25.208   5.644  24.064 -0.1885  0.1990  0.0790
38584W        W47184  29.201   6.382  10.399  0.0101  0.1651 -0.0202
38585W        W47185   1.998   6.837   3.631 -0.1340 -0.3114  0.3168
38586W        W47186   3.199   6.406  10.476 -0.2224  0.0894  0.1102
38587W        W47187  23.019   4.026   2.469 -0.1992  0.0555  0.2966
38588W        W47188  21.520   6.050   7.106  0.1650  0.0101 -0.0596
38589W        W47189   3.718   6.425  25.497  0.2362 -0.1723  0.0185
38590W        W47190  20.669   3.243  16.824  0.0584 -0.3482 -0.1297
38591W        W47191   7.438   1.074  21.301 -0.1242  0.0276 -0.0971
38592W        W47192   3.293   2.399  23.308 -0.0003 -0.3652 -0.2541
38593W        W47193  16.100   2.540  15.707  0.1687  0.0210 -0.0210
38594W        W47194   9.247   7.737  22.162 -0.0505 -0.1328  0.4308
38595W        W47195   2.937   5.176   9.314  0.0811  0.0767  0.0885
38596W        W47196  20.089   2.924  21.416 -0.0600  0.1566 -0.0552
38597W        W47197  10.682   2.122   8.512  0.0479  0.1695 -0.0467
38598W        W47198  17.656   6.809   7.603  0.0009  0.3254  0.0117
38599W        W47199  18.351   2.059  19.358 -0.0067 -0.0485  0.1903
38600W        W47200  23.461   1.374   6.454 -0.0184  0.1431 -0.1395
38601W        W47201  28.467   1.700   7.753  0.1675  0.1924  0.1916
38602W        W47202   7.054   7.633  25.667 -0.2624 -0.0025  0.2200
38603W        W47203   7.357   6.027  10.327  0.2591  0.0996  0.1510
38604W        W47204   2.426   1.080  23.868  0.0293 -0.2992  0.0119
38605W        W47205  26.427   3.695  26.225 -0.1795  0.0475 -0.0418
38606W        W47206  28.727   6.931  20.496  0.0822 -0.0348 -0.0520
38607W        W47207   0.889   5.104   0.437  0.0908  0.1585  0.4877
38608W        W47208  11.566   6.140   7.516 -0.0300  0.0171 -0.0276
38609W        W47209   5.483   3.668  25.916 -0.0087 -0.2824 -0.2428
38610W        W47210   3.578   6.969  10.285 -0.0181 -0.1319  0.1808
38611W        W47211  26.767   4.880  20.250 -0.1935 -0.1711  0.0726
38612W        W47212   4.975   6.592   7.732  0.4232 -0.2050  0.0781
38613W        W47213   0.916   7.647  18.635  0.0985  0.2183 -0.1259
38614W        W47214  27.380   4.262  22.858  0.1102  0.1065 -0.0654
38615W        W47215  14.966   3.798   3.079 -0.0295 -0.2044  0.0599
38616W        W47216  28.278   3.697  26.164 -0.0030  0.1076 -0.1489
38617W        W47217  15.548   2.014  25.904  0.0786  0.0823  0.2738
38618W        W47218  30.216   1.775   0.153 -0.3538 -0.3557 -0.0110
38619W        W47219   1.027   4.675  26.083  0.2711  0.0025  0.0510
38620W        W47220  16.691   7.200  10.077 -0.1211 -0.1367  0.1783
38621W        W47221  11.908   7.495   9.292  0.1390 -0.0573 -0.0823
38622W        W47222   9.067   2.579  25.253 -0.3813  0.3583 -0.1905
38623W        W47223  26.619   7.741  15.775  0.1931  0.1577 -0.2498
38624W        W47224  13.179   2.421  26.070  0.1187  0.1892 -0.0920
38625W        W47225  29.599   6.760   4.013  0.0218 -0.1198 -0.0737
38626W        W47226  16.457   1.323   3.041 -0.3459 -0.1032 -0.0004
38627W        W47227  11.261   0.570  16.799  0.1786 -0.2045 -0.2788
38628W        W47228   1.539   0.394   8.101 -0.1184 -0.1381 -0.0751
38629W        W47229  26.051   5.192   7.858  0.2126  0.1760 -0.1506
38630W        W47230  17.050   1.246   5.374 -0.1800  0.1439 -0.2733
38631W        W47231  21.020   4.417   8.225 -0.0643  0.1399 -0.2715
38632W        W47232  26.446   6.095   6.151  0.0777 -0.1750  0.0133
38633W        W47233  14.751   6.983   5.128  0.1106 -0.1815 -0.0337
38634W        W47234  24.148   5.975  24.251  0.1757 -0.0779 -0.0511
38635W        W47235  19.137   6.828  19.415  0.1981 -0.2668  0.3032
38636W        W47236   8.125   1.475   5.948 -0.1634 -0.1443 -0.2157
38637W        W47237  19.914   6.926   0.621  0.0744 -0.2611  0.0922
38638W        W47238  16.922   3.530  17.148  0.1516 -0.0739 -0.1347
38639W        W47239  21.978   4.810  20.649 -0.3491  0.1456  0.2894
38640W        W47240  12.936   1.068  26.028  0.0578  0.0394  0.1425
38641W        W47241  14.234   6.603   2.155  0.1244 -0.0348 -0.0500
38642W        W47242  27.916   2.532   0.310  0.1731 -0.0433 -0.0215
38643W        W47243  25.945   5.029   4.411  0.0513  0.0283  0.0424
38644W        W47244  10.480   6.361   5.528  0.3066 -0.0202  0.0178
38645W        W47245   6.615   5.949  16.721  0.2792  0.3550 -0.2230
38646W        W47246   9.813   0.778  18.316  0.0601 -0.1090 -0.0011
38647W        W47247  30.445   3.185   9.283 -0.0142  0.3038  0.2038
38648W        W47248   0.001   6.075  26.364 -0.1554  0.0359 -0.2311
38649W        W47249  28.040   5.426   8.492  0.1111 -0.0279 -0.1970
38650W        W47250  22.515   3.195  23.721  0.2086  0.1684  0.0577
38651W        W47251  20.333   2.663  17.611  0.2595 -0.1374  0.0586
38652W        W47252  26.091   2.682   3.225  0.0883 -0.1268  0.2581
38653W        W47253  26.591   4.493   8.717 -0.0803  0.1018  0.0798
38654W        W47254  22.421   7.763   3.437 -0.1999  0.0373  0.0623
38655W        W47255  19.042   1.041  16.472  0.0215  0.0082 -0.1644
38656W        W47256  25.927   5.513   7.013  0.3401  0.0258  0.0863
38657W        W47257  27.685   0.506   4.911 -0.1692 -0.0058 -0.0580
38658W        W47258   4.007   1.931  18.830 -0.0883  0.0995  0.1374
38659W        W47259  29.918   4.501   6.864  0.1983  0.0102 -0.0688
38660W        W47260  18.269   0.930   1.781  0.1806 -0.2608  0.0671
38661W        W47261   2.124   0.779  25.595 -0.1322  0.1401 -0.0849
38662W        W47262   6.511   3.287  24.340  0.0088  0.0837  0.0815
38663W        W47263  13.241   3.112  16.043 -0.0127  0.1904  0.0742
38664W        W47264  25.294   2.832   4.542  0.1989 -0.4174  0.1710
38665W        W47265   8.996   6.562   9.611  0.0854  0.1526 -0.0176
38666W        W47266  18.670   3.156  26.280 -0.3048 -0.0728 -0.0723
38667W        W47267  13.143   5.867   8.091 -0.1500 -0.0030 -0.0369
38668W        W47268  11.192   1.774  26.110 -0.0101  0.0417  0.2797
38669W        W47269   9.640   4.709  19.309  0.1724 -0.0501  0.0805
38670W        W47270   9.222   2.197  17.266 -0.1457 -0.0521  0.0517
38671W        W47271   1.017   1.267   1.944  0.0472  0.1961  0.0025
38672W        W47272  26.434   2.095  21.927 -0.0638  0.2200  0.0956
38673W        W47273  17.545   5.501  22.894  0.0731  0.2739 -0.0222
38674W        W47274   8.064   5.535  17.679 -0.2790  0.0034  0.0242
38675W        W47275  22.281   1.656  18.334 -0.2527 -0.0041 -0.2102
38676W        W47276  23.930   3.482   4.763  0.1437 -0.1603 -0.1732
38677W        W47277  28.389   6.382  10.793 -0.1833  0.0684  0.1620
38678W        W47278   3.181   0.003  10.401 -0.0946 -0.0016 -0.2966
38679W        W47279  11.708   5.150   0.802 -0.1582 -0.1759  0.1139
38680W        W47280  16.723   3.658  22.810 -0.4583 -0.2469 -0.3268
38681W        W47281   1.409   4.919  23.261  0.0266  0.1241  0.0181
38682W        W47282  15.709   5.089  26.246 -0.0308 -0.3335 -0.0194
38683W        W47283  15.445   1.618   4.196 -0.0406 -0.1309 -0.2032
38684W        W47284   3.782   5.932  22.431  0.1423  0.0303  0.0537
38685W        W47285  24.212   2.025  20.205  0.3504 -0.1417  0.1238
38686W        W47286   1.148   1.823   0.602  0.1181 -0.1230  0.0503
38687W        W47287  19.109   4.879  23.610  0.2820 -0.1601 -0.0922
38688W        W47288  24.484   5.752  10.590 -0.1015  0.0158  0.3857
38689W        W47289  22.082   5.555   9.416 -0.0751 -0.2548 -0.2341
38690W        W47290   6.915   2.516  19.104  0.0744  0.1327  0.0837
38691W        W47291   6.559   1.495  18.191  0.0456 -0.0758  0.0424
38692W        W47292  15.137   0.683   1.556 -0.0732 -0.1345 -0.0550
38693W        W47293   6.188   1.209  15.628  0.0038  0.1666  0.2610
38694W        W47294  19.227   0.933   4.087  0.0545 -0.3372 -0.1897
38695W        W47295  16.037   6.890   6.314 -0.0344 -0.1982 -0.1354
38696W        W47296   6.106   4.666   6.282 -0.2279  0.0962  0.0526
38697W        W47297  18.721   0.264  19.346  0.0871 -0.1734 -0.0414
38698W        W47298  16.854   5.728  16.334 -0.0523  0.0238 -0.1051
38699W        W47299  15.355   2.792  21.177 -0.3402  0.1535 -0.0905
38700W        W47300  16.013   2.245   4.883 -0.1384  0.1072 -0.1467
38701W        W47301   3.282   7.149  21.858  0.1414 -0.0264  0.1833
38702W        W47302  26.317   6.599   8.484  0.1534  0.3511  0.3528
38703W        W47303  20.071   6.839   6.720  0.3622  0.0735 -0.0810
38704W        W47304   0.638   6.003   6.946  0.1983 -0.2892  0.1379
38705W        W47305   4.800   1.565  16.103 -0.1084  0.1342  0.0820
38706W        W47306  25.364   1.788  22.532 -0.2732  0.0859 -0.3775
38707W        W47307  13.983   4.612   9.574  0.1637  0.2520 -0.1188
38708W        W47308   7.322   0.009  15.528 -0.1254 -0.0291  0.0345
38709W        W47309   1.611   4.047  18.037  0.0455  0.2653  0.1696
38710W        W47310   2.908   7.470  15.232 -0.3224  0.0189  0.1387
38711W        W47311  25.963   0.340   1.452  0.1255  0.0727  0.0602
38712W        W47312   4.607   5.947  10.507  0.2326  0.0027  0.0988
38713W        W47313  11.880   5.276   6.577  0.2897 -0.2333 -0.2403
38714W        W47314   8.546   5.008   2.490  0.0866  0.0716 -0.1710
38715W        W47315   2.947   3.309   3.487 -0.1358  0.0784  0.1215
38716W        W47316   6.382   1.362   5.230  0.1476 -0.1088  0.1402
38717W        W47317   8.302   5.391   2.267  0.1995 -0.2237 -0.3475
38718W        W47318   5.203   1.297   8.046  0.2370 -0.0815  0.0774
38719W        W47319  27.659   4.008  20.564 -0.0669 -0.0032 -0.1597
38720W        W47320   0.616   4.764   9.292  0.2223 -0.2102  0.2890
38721W        W47321  14.184   2.414  22.011  0.0560  0.0302 -0.2533
38722W        W47322  26.054   5.693  20.064  0.1086 -0.0993  0.2158
38723W        W47323   0.588   2.575   1.636 -0.1824  0.0785  0.0234
38724W        W47324  19.219   3.865   0.268  0.0746  0.1438  0.2244
38725W        W47325  27.437   5.374   1.812  0.0593  0.1863  0.1486
38726W        W47326   6.751   6.158   3.618 -0.0606 -0.1465  0.0090
38727W        W47327  27.978   2.507  19.311  0.0028  0.1547 -0.0895
38728W        W47328  26.215   1.307  20.643  0.2057 -0.1775 -0.2531
38729W        W47329   9.799   5.280   0.529 -0.0716 -0.2263 -0.0046
38730W        W47330   1.209   1.182   7.864  0.0346 -0.1366 -0.0364
38731W        W47331  12.663   7.108  23.903 -0.0396  0.0610  0.1763
38732W        W47332   1.587   6.913   7.127  0.0013 -0.0329  0.1739
38733W        W47333  14.310   0.990   3.079 -0.3179  0.0422 -0.3470
38734W        W47334  22.514   6.206  16.274 -0.1404 -0.0859  0.3202
38735W        W47335  26.237   5.443   3.286  0.3097  0.0848  0.0755
38736W        W47336   8.943   2.400  21.309 -0.2330 -0.1289  0.1067
38737W        W47337  18.548   5.004   5.798 -0.0880  0.1300  0.1963
38738W        W47338  30.225   0.182   0.783 -0.2702  0.1191  0.1078
38739W        W47339  28.319   2.275  22.851 -0.0542  0.4484  0.1098
38740W        W47340  13.562   0.688  17.401 -0.0219  0.0903 -0.1900
38741W        W47341  12.304   5.744   9.326  0.3272  0.2578 -0.3263
38742W        W47342  18.836   4.988   5.243 -0.2137  0.0472 -0.0530
38743W        W47343  24.442   0.577  25.882  0.2820 -0.2012  0.0641
38744W        W47344  28.266   5.613  15.567 -0.2087  0.0485 -0.1224
38745W        W47345  30.157   1.478  19.168 -0.3931 -0.0019  0.0788
38746W        W47346   7.926   5.657  22.024 -0.0489 -0.2107  0.1154
38747W        W47347   9.686   2.085  19.750  0.1567 -0.1035  0.3836
38748W        W47348   2.863   0.141   5.115  0.1183 -0.1020  0.1356
38749W        W47349  27.179   4.539  19.023 -0.0123  0.1035 -0.1195
38750W        W47350   4.734   0.378  20.963 -0.0095 -0.0164  0.1825
38751W        W47351  25.233   3.880  11.312 -0.1509  0.2700  0.0585
38752W        W47352  30.244   2.406  15.503 -0.1452  0.0451  0.1623
38753W        W47353  12.128   1.046  17.301 -0.2340  0.0185 -0.1091
38754W        W47354  25.322   5.652  16.667 -0.3819 -0.0292 -0.0673
38755W        W47355  21.421   5.781  10.347 -0.2764 -0.2735 -0.1357
38756W        W47356  22.761   0.167  18.880 -0.1285 -0.2702  0.1100
38757W        W47357   9.478   0.317  23.764  0.1145 -0.0554 -0.2639
38758W        W47358  11.431   6.531  18.829  0.2596  0.2115  0.0400
38759W        W47359   8.609   0.656  24.848 -0.1223  0.3241  0.1133
38760W        W47360  20.299   7.756  21.814 -0.3562  0.1016  0.0702
38761W        W47361  12.512   5.432   3.315 -0.3111  0.2301  0.0542
38762W        W47362  13.144   5.382   3.668 -0.4263 -0.0140 -0.3442
38763W        W47363  21.010   2.599   6.551 -0.0550 -0.0556 -0.0259
38764W        W47364  19.340   4.223   4.332  0.2950  0.0241 -0.0390
38765W        W47365  19.616   0.291  25.555  0.1587 -0.3380 -0.1814
38766W        W47366  14.381   3.491  26.201  0.0250 -0.0333 -0.0819
38767W        W47367  12.200   2.088   0.849 -0.0596  0.1388 -0.1216
38768W        W47368   5.215   3.213  19.120 -0.2458 -0.1750  0.0533
38769W        W47369  30.874   1.633  21.505  0.1597  0.2425 -0.0388
38770W        W47370  15.315   5.001  23.593 -0.1441 -0.0849  0.2091
38771W        W47371  15.280   3.711  17.676 -0.0780  0.2123 -0.0678
38772W        W47372   5.449   1.095  19.842 -0.1030 -0.0939  0.0550
38773W        W47373   3.605   0.090  25.990  0.1500  0.2637 -0.0039
38774W        W47374  29.910   0.539   1.018 -0.0344 -0.1209  0.2158
38775W        W47375   8.359   7.282  20.969 -0.1396 -0.1556 -0.0415
38776W        W47376  14.923   6.998   7.852  0.1325  0.0703  0.0352
38777W        W47377   8.649   3.238   5.884  0.1472 -0.1048 -0.1148
38778W        W47378  19.159   2.115  17.137 -0.0075  0.1208  0.2838
38779W        W47379   9.209   1.415  17.537 -0.2136 -0.1538  0.5195
38780W        W47380   6.395   2.080   2.793  0.2416  0.1000  0.2487
38781W        W47381   8.113   1.129  24.274  0.2807  0.0411  0.2586
38782W        W47382  26.945   2.237   8.361 -0.0731  0.3642  0.2963
38783W        W47383  21.290   5.917  11.503  0.2465 -0.3370  0.1534
38784W        W47384   2.402   5.528   5.654  0.0063  0.0853  0.0919
38785W        W47385  24.766   5.704  22.224 -0.0444 -0.1062  0.0462
38786W        W47386  28.550   5.076  17.494 -0.0429 -0.0529  0.2060
38787W        W47387   1.247   3.005   4.338  0.1452 -0.0723  0.3591
38788W        W47388   1.145   4.465  15.887  0.0926  0.2310 -0.2924
38789W        W47389   3.417   4.267  22.276  0.0158 -0.0464 -0.0627
38790W        W47390  23.801   2.514  23.231 -0.3234 -0.1767  0.2633
38791W        W47391   9.464   2.450   5.301  0.3485 -0.0667 -0.0166
38792W        W47392  30.837   5.310  21.788 -0.1463 -0.0179  0.1179
38793W        W47393  24.278   0.318  22.223  0.2984  0.2808 -0.0594
38794W        W47394   2.977   0.118   1.860 -0.3339  0.0771  0.1657
38795W        W47395  23.469   5.082   3.105  0.1846  0.0119 -0.2556
38796W        W47396  24.322   6.873   4.344  0.2852  0.2431  0.2896
38797W        W47397  30.430   1.768   2.883 -0.3019  0.2440  0.0842
38798W        W47398  11.085   5.514   8.622 -0.1192 -0.0387  0.0868
38799W        W47399  16.434   1.709  22.122 -0.0521 -0.0769  0.1539
38800W        W47400   2.397   1.405   7.247  0.3929  0.1594 -0.2597
38801W        W47401  25.659   2.607   9.152  0.1552  0.1353 -0.1486
38802W        W47402  19.291   7.230  17.333  0.1591  0.1000 -0.0528
38803W        W47403   6.485   7.686   1.878 -0.0221  0.0637 -0.3191
38804W        W47404  19.027   2.091  10.055 -0.2886  0.0631 -0.4059
38805W        W47405  24.887   1.150  16.839  0.0756  0.1683 -0.1371
38806W        W47406   4.974   0.359   5.600  0.0375 -0.0167 -0.0723
38807W        W47407   2.023   2.950   2.784  0.1013  0.0024 -0.0367
38808W        W47408  23.168   1.160  24.257 -0.4599  0.2295 -0.0824
38809W        W47409  28.406   1.032  18.312  0.2054 -0.0789  0.0031
38810W        W47410   1.678   6.730  18.676 -0.0750 -0.0581 -0.1782
38811W        W47411  25.241   3.240   4.276  0.0114  0.1665  0.0105
38812W        W47412  30.082   1.719   4.930 -0.1336 -0.0937  0.0609
38813W        W47413   4.106   3.183  17.448 -0.0380  0.0533  0.0899
38814W        W47414  29.471   5.684  15.873 -0.3502  0.0243  0.0212
38815W        W47415  10.860   7.643  15.433  0.0872 -0.2330 -0.4961
38816W        W47416   5.607   3.745  23.180  0.1725  0.1731  0.0134
38817W        W47417  19.516   5.241   6.367 -0.1996  0.0853  0.1723
38818W        W47418   2.845   5.469   5.452 -0.0296 -0.2627  0.5494
38819W        W47419  22.472   3.082   6.190 -0.2295 -0.4613 -0.0109
38820W        W47420  29.001   4.354  21.666 -0.2855  0.0884 -0.0229
38821W        W47421  17.510   1.082  17.567 -0.1324  0.1055  0.0273
38822W        W47422   6.284   2.986   1.563  0.4232  0.2721 -0.0119
38823W        W47423  19.028   2.136   8.838  0.0197 -0.1303 -0.0802
38824W        W47424  24.603   0.390   1.573 -0.0487  0.1760  0.1696
38825W        W47425  24.795   7.475   2.993 -0.1737 -0.1278  0.0991
38826W        W47426  22.514   2.434  16.721  0.4320  0.0196 -0.1453
38827W        W47427  14.139   4.998  10.416  0.0057  0.1985  0.0214
38828W        W47428  18.832   3.042   7.543  0.4012 -0.0249 -0.2029
38829W        W47429   7.316   4.831  25.270  0.1589  0.0797 -0.2253
38830W        W47430  24.003   5.081   7.059 -0.0993  0.1248 -0.1679
38831W        W47431  28.025   0.203   8.424 -0.0384  0.0164 -0.2950
38832W        W47432  19.133   2.229   2.647 -0.0001  0.2803 -0.0056
38833W        W47433   9.961   3.547  10.574 -0.0130  0.0751  0.0874
38834W        W47434  17.527   4.297  21.003  0.0265 -0.0884 -0.1242
38835W        W47435  11.123   5.979  18.471  0.0280 -0.0534 -0.1202
38836W        W47436   7.802   2.522  18.881 -0.1020  0.1174  0.0462
38837W        W47437  30.288   3.178  10.178 -0.0135 -0.2388  0.2749
38838W        W47438   6.510   3.944  22.688  0.2226 -0.1858 -0.2179
38839W        W47439  16.580   1.089  15.493  0.0627  0.0118  0.1826
38840W        W47440  15.527   3.987   7.591  0.1885 -0.0025 -0.0572
38841W        W47441  20.076   4.758   1.498  0.0147  0.1311  0.0926
38842W        W47442  29.294   0.683  17.140 -0.0913  0.1675  0.1819
38843W        W47443  14.727   5.498   4.577  0.3139 -0.0953  0.3343
38844W        W47444   9.022   1.418  16.570 -0.1406 -0.4880 -0.1051
38845W        W47445  18.191   6.952  21.425  0.0040 -0.0549 -0.2039
38846W        W47446   2.350   7.583  25.443  0.2634  0.1897 -0.1803
38847W        W47447  18.408   7.529   0.532  0.2967 -0.3233  0.5042
38848W        W47448  19.495   0.883  20.272 -0.2812 -0.0735 -0.1416
38849W        W47449  11.611   0.042  17.118 -0.3219 -0.2149  0.1170
38850W        W47450   7.185   1.616  18.073 -0.2005  0.4020  0.1535
38851W        W47451   7.773   4.133  15.570  0.1975 -0.3870 -0.0543
38852W        W47452   0.494   2.091  17.323 -0.1167 -0.0622  0.0651
38853W        W47453   9.064   2.747  20.004  0.3781  0.1719  0.2341
38854W        W47454  23.050   0.026   8.444  0.0249 -0.2295 -0.0021
38855W        W47455  26.960   1.632   2.054  0.0793 -0.0238 -0.1538
38856W        W47456   4.953   4.852   3.014 -0.0627  0.1236  0.0326
38857W        W47457   9.559   4.170   9.446  0.0990  0.2210 -0.0994
38858W        W47458   4.779   1.081   7.811 -0.2392  0.0967 -0.0592
38859W        W47459  17.001   6.651  21.529 -0.2045 -0.3833 -0.3533
38860W        W47460   6.300   0.404  17.417 -0.3713 -0.0071 -0.2512
38861W        W47461  11.171   4.751  21.172 -0.0262 -0.0784  0.0440
38862W        W47462   5.023   1.901   9.231  0.0135 -0.1595 -0.0383
38863W        W47463  19.537   3.320  24.050 -0.1875  0.2482  0.0054
38864W        W47464  28.441   7.314  18.821 -0.0708  0.1212 -0.0100
38865W        W47465  29.858   4.783  24.053  0.3280  0.0700 -0.0043
38866W        W47466  26.957   1.200   0.798 -0.1989 -0.0502 -0.1398
38867W        W47467   3.350   7.748   1.445  0.2346 -0.1537  0.1579
38868W        W47468  14.535   0.142   9.490 -0.2296 -0.0523  0.0852
38869W        W47469   2.973   0.184  21.351  0.0690 -0.1409  0.0670
38870W        W47470  27.479   5.675  18.707  0.1070  0.2082 -0.2552
38871W        W47471  10.127   4.510   2.418 -0.0824  0.3599  0.1665
38872W        W47472  27.046   7.788   2.383  0.2689  0.4134  0.0038
38873W        W47473  29.631   5.384   0.628 -0.1280 -0.0809 -0.0664
38874W        W47474  25.144   4.460   8.633  0.1273 -0.3497  0.2961
38875W        W47475  27.825   6.312  21.858  0.0232 -0.0700 -0.2164
38876W        W47476   3.744   3.491  20.888 -0.2280 -0.0182 -0.3140
38877W        W47477   2.656   0.379  15.615 -0.0405 -0.1627 -0.2002
38878W        W47478   0.877   5.213  24.900  0.1510 -0.1922  0.2159
38879W        W47479  28.698   1.321  10.649 -0.1033 -0.0491 -0.1138
38880W        W47480  16.722   2.883   8.941 -0.0282  0.1333  0.1227
38881W        W47481   6.486   0.945   8.358  0.3564  0.1594 -0.1265
38882W        W47482  25.307   7.344  24.672 -0.0908 -0.2723 -0.1845
38883W        W47483  14.842   6.189   6.098 -0.3761 -0.2201  0.1508
38884W        W47484  24.446   0.074  24.675 -0.3350  0.0327  0.1899
38885W        W47485   2.405   0.461   9.065  0.0857 -0.0587 -0.1884
38886W        W47486  30.978   5.643  26.248 -0.2639 -0.2341  0.2071
38887W        W47487  10.134   1.863   1.704  0.0287 -0.0937 -0.2973
38888W        W47488  10.886   5.148   6.110  0.1625  0.1176 -0.0208
38889W        W47489   5.823   7.146  20.364 -0.1365  0.0449 -0.2007
38890W        W47490   8.984   0.979  10.680 -0.0037  0.1907 -0.1369
38891W        W47491  17.517   0.320   9.127 -0.1212 -0.2019 -0.1023
38892W        W47492   0.726   1.875   2.727  0.1876  0.0093 -0.0640
38893W        W47493  16.573   7.180   0.161  0.0205 -0.1304 -0.3742
38894W        W47494   7.804   0.821  20.553 -0.1105  0.1579 -0.1175
38895W        W47495  16.281   5.756  23.817  0.0995  0.2009 -0.0228
38896W        W47496  21.099   0.199   0.104  0.0773 -0.0684 -0.0364
38897W        W47497  13.247   5.839   3.421  0.0061 -0.1152  0.1586
38898W        W47498   2.917   5.345  24.358  0.2138 -0.5808 -0.0219
38899W        W47499   0.874   4.962   4.973 -0.0416  0.1614 -0.2377
38900W        W47500  28.842   1.096  16.515  0.1094  0.1988  0.1687
38901W        W47501   4.391   0.214  16.281 -0.0394 -0.1390  0.0074
38902W        W47502   8.467   5.750  18.685  0.2102 -0.2087 -0.1115
38903W        W47503  22.328   6.430  23.953  0.0837 -0.0455  0.2396
38904W        W47504  10.803   6.090   5.884  0.0222 -0.3269 -0.3961
38905W        W47505   4.838   4.410  18.209  0.1903  0.0750  0.0700
38906W        W47506  18.956   1.625   9.834  0.1786  0.0271  0.2304
38907W        W47507  29.611   4.225   9.509  0.0841  0.2684  0.2801
38908W        W47508  10.379   0.558   8.224 -0.1313  0.0465  0.0957
38909W        W47509  25.059   5.388   1.446  0.0471  0.1397 -0.2624
38910W        W47510  28.305   5.456  17.316 -0.0567 -0.1201  0.1399
38911W        W47511  28.385   6.948   0.540 -0.2170 -0.3212 -0.1065
38912W        W47512   3.527   2.527   6.372 -0.2143 -0.1738  0.2375
38913W        W47513   1.151   4.078  10.888 -0.0013 -0.0772  0.0924
38914W        W47514  11.253   2.705  11.439  0.0726  0.2985  0.2514
38915W        W47515   8.152   0.143  16.072  0.0194  0.1120 -0.3318
38916W        W47516  13.295   0.676   8.940 -0.0193  0.0658 -0.3269
38917W        W47517   6.184   7.296   2.725 -0.1853 -0.2874 -0.0385
38918W        W47518   6.297   4.563   9.635 -0.1928 -0.1687  0.2068
38919W        W47519  18.995   2.497  21.263  0.1792  0.0470  0.1056
38920W        W47520  25.769   3.786   3.779 -0.0474  0.0104  0.2048
38921W        W47521   1.000   2.771  21.551 -0.3587 -0.0317  0.0035
38922W        W47522   0.830   0.691  11.532 -0.1701  0.0692 -0.3054
38923W        W47523   5.362   7.363  17.707 -0.0955 -0.0603 -0.1752
38924W        W47524   2.877   3.527  23.782 -0.0416  0.2271  0.0158
38925W        W47525  17.196   1.181   6.696  0.1113 -0.0257  0.0796
38926W        W47526   0.119   2.588  10.455  0.0327  0.1771 -0.0069
38927W        W47527  22.067   1.767   9.954  0.1816  0.1726  0.2644
38928W        W47528  26.439   3.548   8.053  0.0145  0.1736 -0.0648
38929W        W47529  29.356   4.141   3.418 -0.1357 -0.1710 -0.0306
38930W        W47530  20.553   0.102   5.722  0.1173 -0.1196 -0.1163
38931W        W47531  29.056   5.816  16.223  0.0988 -0.0250  0.3386
38932W        W47532   4.938   2.306   1.268 -0.0152 -0.1127  0.1580
38933W        W47533   2.582   5.561  23.617  0.0747  0.1639 -0.1318
38934W        W47534  22.621   2.495   7.481  0.1354  0.1025 -0.0168
38935W        W47535  25.038   6.612  16.734  0.0582  0.1388  0.0811
38936W        W47536  16.866   4.762   9.184 -0.1256  0.2353 -0.1386
38937W        W47537  24.644   4.766   3.416  0.3440  0.2208  0.0192
38938W        W47538  11.454   3.347   2.683  0.1870  0.0451  0.0573
38939W        W47539   8.167   7.298  19.699 -0.1631 -0.1796 -0.0249
38940W        W47540  28.140   0.743  24.017  0.1218  0.2646  0.1139
38941W        W47541  15.503   3.958   8.739  0.0075  0.0043  0.2298
38942W        W47542  12.208   4.507   9.917 -0.0269  0.0488 -0.4435
38943W        W47543  20.367   1.979   3.602  0.1925  0.1077  0.0804
38944W        W47544  25.745   7.645   4.891  0.2041 -0.2508  0.1224
38945W        W47545  15.299   5.365   9.881  0.1707 -0.3300  0.0555
38946W        W47546  30.392   1.069  23.192 -0.1278 -0.0480  0.0232
38947W        W47547   3.786   5.477  10.982 -0.2851 -0.2070  0.2170
38948W        W47548  26.572   5.482  22.230 -0.0720  0.0495 -0.2442
38949W        W47549  13.550   1.274  18.666  0.3889  0.0348  0.2518
38950W        W47550  29.233   2.887   6.199 -0.0155 -0.0215  0.1842
38951W        W47551  13.016   7.207   7.777 -0.0395  0.2737 -0.0545
38952W        W47552  25.950   7.031  24.603 -0.1245 -0.0748  0.0036
38953W        W47553  22.232   7.231  24.345  0.0109  0.0238 -0.2557
38954W        W47554  26.298   3.622  14.965  0.0238 -0.0165 -0.2036
38955W        W47555   3.201   5.271   4.144  0.2033 -0.1526  0.3347
38956W        W47556  17.731   4.721   5.540 -0.1934 -0.0310  0.3694
38957W        W47557   2.058   2.136  24.038 -0.1808  0.2528 -0.0613
38958W        W47558   5.661   0.008   0.304 -0.1183  0.2174 -0.0963
38959W        W47559  22.481   5.735  23.391  0.2822  0.3664 -0.0353
38960W        W47560  14.829   3.334  21.489  0.0445 -0.1343  0.1052
38961W        W47561  29.795   4.895   9.330  0.1712  0.2106 -0.1032
38962W        W47562  24.319   3.351  23.884  0.2152  0.0625 -0.2781
38963W        W47563  25.552   4.632   8.374 -0.0078 -0.2466 -0.1556
38964W        W47564  24.344   1.066   6.591  0.2267 -0.3687 -0.0303
38965W        W47565  12.043   1.365  20.160  0.1298 -0.0929  0.2719
38966W        W47566  26.973   0.498  21.403 -0.1327  0.1421 -0.0407
38967W        W47567   1.661   5.637   1.529  0.4308 -0.2289  0.0654
38968W        W47568  16.343   7.068   1.839 -0.0182  0.2245 -0.0939
38969W        W47569   9.772   4.274  11.103 -0.1660  0.0998 -0.2850
38970W        W47570  24.618   4.288  16.547 -0.1427 -0.1217  0.0438
38971W        W47571   1.088   1.704   5.024 -0.0518 -0.0934 -0.0820
38972W        W47572  27.836   2.853   1.482 -0.0020  0.1740  0.0974
38973W        W47573  20.965   4.573  16.369  0.0143  0.0495 -0.0622
38974W        W47574  15.886   7.165   8.436 -0.0175 -0.1652 -0.1629
38975W        W47575  30.158   2.268  22.906 -0.0188 -0.1382 -0.0356
38976W        W47576  30.941   0.572   9.321  0.1594  0.1611  0.0643
38977W        W47577  27.046   3.560  24.338 -0.0536 -0.1830  0.0466
38978W        W47578  30.911   5.786  24.429 -0.2325  0.1229 -0.0491
38979W        W47579  15.355   1.622   5.205  0.0763 -0.2967  0.1484
38980W        W47580  20.800   4.278   1.957 -0.0563  0.1645 -0.1609
38981W        W47581  20.481   0.838   6.643  0.0668  0.0054  0.0167
38982W        W47582  17.227   0.682   2.304 -0.1859 -0.3089  0.0712
38983W        W47583  29.897   7.329  10.819  0.0866  0.1308 -0.0692
38984W        W47584  27.102   5.802  24.270  0.1242 -0.1251  0.0727
38985W        W47585  21.352   5.770  10.967  0.0150  0.3019 -0.0921
38986W        W47586  29.701   7.223  23.448 -0.0881 -0.1158 -0.0685
38987W        W47587  28.743   7.225  18.409  0.3123  0.0417  0.0907
38988W        W47588   0.729   1.903   6.028 -0.2462 -0.0552 -0.0027
38989W        W47589   3.479   1.706  21.629 -0.0789 -0.2350 -0.3046
38990W        W47590  29.727   5.578  23.160 -0.0625  0.1363 -0.1411
38991W        W47591  14.913   2.486  23.965 -0.2110  0.3366  0.1174
38992W        W47592  27.363   7.320  19.155  0.0050 -0.0572 -0.0868
38993W        W47593  25.728   4.235  17.738 -0.2416 -0.4241 -0.0106
38994W        W47594   8.530   6.076   3.065  0.0227 -0.1439 -0.1995
38995W        W47595  22.979   6.964   8.934  0.2315 -0.1242  0.1221
38996W        W47596  20.271   7.677  17.986 -0.0328 -0.1278  0.2693
38997W        W47597  26.514   1.804  22.703  0.0426 -0.2114 -0.3512
38998W        W47598   1.844   3.875   1.246 -0.0873  0.1050  0.1859
38999W        W47599  12.258   4.848  17.423 -0.1031  0.1108  0.1329
39000W        W47600  12.831   4.259  23.101  0.1561  0.0496 -0.0274
39001W        W47601  12.774   5.074   3.847  0.0159  0.2161  0.2096
39002W        W47602  25.576   5.969  15.860 -0.0194  0.2033 -0.1071
39003W        W47603   6.925   0.482  19.655 -0.1246 -0.1704 -0.2038
39004W        W47604   3.103   0.303   5.538 -0.4115  0.0011 -0.2617
39005W        W47605   6.612   5.550   3.757  0.3165  0.0693 -0.0589
39006W        W47606  18.268   4.498   1.085  0.2744 -0.0468 -0.3819
39007W        W47607  10.340   4.021   5.660 -0.0047 -0.1437 -0.2307
39008W        W47608  28.454   4.952  22.450 -0.2388 -0.0737 -0.0143
39009W        W47609  23.239   7.583  23.381 -0.0754 -0.2870  0.1700
39010W        W47610  14.161   0.863  24.845  0.1997  0.1573 -0.0717
39011W        W47611  26.960   5.673   1.602 -0.1655  0.1989 -0.2012
39012W        W47612  21.227   1.523  10.429  0.3226  0.1082  0.2673
39013W        W47613  20.820   6.309  18.550 -0.0043  0.0261  0.2247
39014W        W47614   5.052   2.101  25.910 -0.0592 -0.1085 -0.2197
39015W        W47615  11.737   4.583  10.471 -0.1242  0.0818 -0.1420
39016W        W47616   8.868   3.771  16.443  0.1755 -0.0016 -0.0158
39017W        W47617  10.049   4.120   3.656 -0.1573 -0.2197  0.1366
39018W        W47618   0.054   2.564  21.192 -0.2929  0.0596 -0.0833
39019W        W47619   8.312   2.720  10.738 -0.1038  0.1380 -0.1248
39020W        W47620  28.749   2.944   9.192  0.3391  0.1974 -0.1057
39021W        W47621  26.746   4.181   3.548 -0.2948  0.0380 -0.0539
39022W        W47622  27.713   4.825   7.897 -0.0212 -0.0153 -0.0484
39023W        W47623  24.593   3.683   8.190 -0.0387  0.0721  0.1272
39024W        W47624  26.910   5.468  21.787 -0.4443 -0.1211  0.0453
39025W        W47625  27.516   2.150   4.794  0.0491 -0.0081  0.2113
39026W        W47626  19.016   0.078  18.457 -0.0151  0.1859  0.0453
39027W        W47627  18.112   3.902  23.325 -0.0259 -0.0396 -0.1807
39028W        W47628   7.759   3.213  24.592  0.0282  0.3271  0.0638
39029W        W47629  16.271   6.762  15.840 -0.2742  0.0160  0.4080
39030W        W47630  26.815   3.280   0.237  0.2957 -0.0262  0.2987
39031W        W47631   1.389   3.060   0.823 -0.1872  0.0411 -0.1814
39032W        W47632   8.216   2.502  19.138  0.0592 -0.0141 -0.0541
39033W        W47633  29.862   6.242  26.200  0.1663 -0.1602 -0.3676
39034W        W47634  23.453   5.900  10.236  0.1731  0.1362 -0.0729
39035W        W47635  23.253   3.952  17.858  0.1748 -0.0947  0.2046
39036W        W47636   1.643   6.005   2.439 -0.1377 -0.1485  0.1286
39037W        W47637  12.918   5.354  10.055 -0.1118  0.0814 -0.3156
39038W        W47638  22.202   7.628   7.044  0.0124 -0.0708 -0.2015
39039W        W47639   5.611   1.290   0.614  0.0955 -0.1127  0.1129
39040W        W47640  11.956   2.478  17.113  0.0876  0.1350 -0.2217
39041W        W47641  30.917   6.083   4.650  0.0882  0.0621  0.5263
39042W        W47642  11.599   7.014  25.267  0.2798  0.1825 -0.0095
39043W        W47643   1.196   4.074  19.238 -0.0421 -0.0842 -0.2180
39044W        W47644  29.379   5.695   2.748  0.0615  0.0685  0.2246
39045W        W47645  19.563   3.572  24.498  0.2284 -0.4625 -0.1316
39046W        W47646   7.308   0.050  18.384  0.1920 -0.0233 -0.2679
39047W        W47647  20.275   5.678  22.790  0.2197 -0.0613  0.0493
39048W        W47648   5.638   4.694  20.109 -0.2473  0.2329 -0.1898
39049W        W47649   8.961   7.479  22.454  0.0388  0.0342 -0.0283
39050W        W47650  15.453   2.436  16.835  0.0375 -0.0717  0.1511
39051W        W47651  30.261   6.838   9.116 -0.0369  0.0527  0.3038
39052W        W47652  24.637   0.718  20.960 -0.3291  0.0057 -0.2727
39053W        W47653  17.693   1.745   3.740 -0.0047  0.2147 -0.0325
39054W        W47654   3.949   4.990  10.899  0.0564  0.1485 -0.1540
39055W        W47655  13.141   0.874  21.182 -0.0640  0.1564  0.5761
39056W        W47656  30.428   0.736  21.827  0.1026  0.1078  0.1404
39057W        W47657  27.369   0.937  21.874 -0.0154 -0.2764 -0.0024
39058W        W47658  16.755   6.621   9.334  0.0059 -0.1391 -0.4180
39059W        W47659  12.064   7.678  23.397 -0.2726  0.0423 -0.0869
39060W        W47660  17.538   3.315   3.511  0.3662  0.2102 -0.2072
39061W        W47661   2.979   7.497  25.995 -0.0966 -0.1453 -0.3008
39062W        W47662  22.209   6.426   8.444  0.2320 -0.1871  0.3176
39063W        W47663  16.942   3.307  23.871 -0.1358  0.0836 -0.0303
39064W        W47664  11.700   7.088   1.063  0.2182  0.1329  0.2078
39065W        W47665  10.360   4.685   7.654  0.2178 -0.0478 -0.0719
39066W        W47666  21.898   5.326  20.102 -0.2528  0.2250 -0.1475
39067W        W47667   9.476   4.453  17.582  0.2295  0.1297  0.0398
39068W        W47668   7.064   5.038   4.677  0.0066 -0.4168 -0.0432
39069W        W47669   8.475   4.515   2.193 -0.0126  0.3272  0.1176
39070W        W47670   0.047   2.203   5.477 -0.1824  0.1322 -0.0211
39071W        W47671  16.252   2.304  23.475  0.1321 -0.1142 -0.1040
39072W        W47672   7.769   4.769   8.126  0.2252  0.0185  0.1417
39073W        W47673  30.869   5.895  23.921 -0.1349  0.2361  0.3491
39074W        W47674   4.579   5.523  18.262  0.1109 -0.4037 -0.0174
39075W        W47675  11.682   5.055   3.710 -0.2024  0.1832  0.1672
39076W        W47676  11.942   2.208   1.822 -0.0112  0.1638 -0.0801
39077W        W47677  30.400   4.596  21.701  0.0036  0.0027 -0.0140
39078W        W47678   1.229   2.756  10.297 -0.0858 -0.1950  0.1007
39079W        W47679   6.799   2.622  24.852 -0.1125  0.1239  0.0751
39080W        W47680   5.385   7.731   8.700  0.0487  0.1912  0.2322
39081W        W47681  30.936   3.718  17.547 -0.4058 -0.0792 -0.0747
39082W        W47682  26.733   3.562  22.632  0.2113  0.0539 -0.0451
39083W        W47683  21.209   0.222  18.780 -0.1242 -0.0155 -0.0252
39084W        W47684  20.923   5.964   6.902 -0.0260 -0.1589  0.1803
39085W        W47685  23.288   6.304   9.985 -0.0148 -0.0483 -0.1172
39086W        W47686  10.751   3.277  23.369 -0.3133 -0.4199  0.1586
39087W        W47687   2.819   7.269   3.343 -0.2854 -0.3372 -0.0139
39088W        W47688  10.345   0.285   8.958  0.0431 -0.1285 -0.0572
39089W        W47689  21.716   3.659   2.965 -0.1592 -0.1909  0.1378
39090W        W47690  25.920   0.105   8.527 -0.0846 -0.2432 -0.1986
39091W        W47691  23.531   0.390   3.360 -0.0404  0.0857  0.0051
39092W        W47692  25.869   4.957   6.891 -0.0077  0.0160  0.0905
39093W        W47693   7.054   5.426  15.478 -0.0744 -0.0335 -0.0382
39094W        W47694  10.407   2.705   6.001  0.3460  0.2495  0.1101
39095W        W47695  16.275   4.296  19.586 -0.1716 -0.1253 -0.1418
39096W        W47696  11.032   7.769   6.633 -0.1138  0.1009 -0.0727
39097W        W47697  19.301   3.157   7.846  0.0046 -0.2058  0.1986
39098W        W47698  22.466   2.889   4.925  0.0434  0.2559 -0.1929
39099W        W47699  17.873   6.489  10.001 -0.1120  0.1903 -0.2124
39100W        W47700  25.858   3.213   0.770  0.0663 -0.0193  0.0800
39101W        W47701   8.601   5.137  22.725 -0.0040 -0.1652 -0.0019
39102W        W47702   0.371   5.677   3.140  0.1063  0.1551 -0.0870
39103W        W47703   8.540   4.590  24.768 -0.0768 -0.1386 -0.0342
39104W        W47704  12.108   1.280  25.564 -0.0247 -0.0195  0.2334
39105W        W47705  25.431   6.556   7.112  0.1747 -0.2831  0.1256
39106W        W47706   1.369   0.003   1.682 -0.0677 -0.0713 -0.0979
39107W        W47707   5.158   1.853   1.246  0.3671 -0.0213 -0.2660
39108W        W47708   2.736   3.784  19.081 -0.1061 -0.0850  0.0406
39109W        W47709   1.037   0.426   3.760  0.3221  0.1719  0.2629
39110W        W47710  17.570   2.843  15.058 -0.1616  0.1862  0.2506
39111W        W47711  18.988   0.056  21.314  0.0417 -0.1157  0.0439
39112W        W47712   8.475   4.576   1.718 -0.1046  0.2567 -0.1357
39113W        W47713   6.479   4.256  23.928  0.0260  0.1069  0.1774
39114W        W47714  25.065   2.411  18.555  0.0732 -0.1997  0.1182
39115W        W47715  23.438   2.926  25.903 -0.0903  0.3759 -0.2357
39116W        W47716  10.635   4.145  16.875  0.1230 -0.1721 -0.2287
39117W        W47717  28.694   3.455   5.537 -0.2197 -0.1479 -0.0936
39118W        W47718  29.465   5.174   7.909  0.0612  0.1691  0.1095
39119W        W47719   5.448   3.792  18.476 -0.0454  0.0059 -0.2337
39120W        W47720  26.534   0.624   7.202  0.0905  0.1242 -0.0903
39121W        W47721   8.591   4.489  16.714  0.0200  0.1096 -0.1110
39122W        W47722   1.381   6.401  23.032 -0.0752 -0.1682  0.2027
39123W        W47723   2.556   3.881  23.769 -0.4605  0.0341  0.0254
39124W        W47724   8.691   0.575  20.429  0.3718  0.1391  0.4548
39125W        W47725  14.714   3.931  21.518 -0.0081 -0.2575  0.4926
39126W        W47726  24.939   5.322  23.688  0.0198 -0.2451 -0.2599
39127W        W47727  15.367   6.343   5.942  0.3087 -0.0691  0.0657
39128W        W47728   3.765   1.881  16.856  0.0562  0.1194  0.2337
39129W        W47729  16.639   3.130   1.050 -0.0804 -0.1474 -0.1207
39130W        W47730   6.671   1.236  16.204  0.2126 -0.1562 -0.1758
39131W        W47731  11.396   3.095   9.176  0.0821  0.0535  0.4050
39132W        W47732  11.027   3.150   2.778  0.0625 -0.1060  0.2500
39133W        W47733   5.879   3.232   3.741 -0.0490  0.0475 -0.0363
39134W        W47734  13.115   2.446  25.452  0.3551  0.1379  0.0435
39135W        W47735  25.532   7.206   5.037  0.2369  0.0821  0.0735
39136W        W47736   8.128   0.397  24.078  0.3033 -0.2793  0.0290
39137W        W47737   1.139   5.468  20.243 -0.2777  0.1656  0.1336
39138W        W47738   9.514   3.292   2.364 -0.0520  0.1096 -0.1336
39139W        W47739  26.710   2.156  19.243  0.1660  0.0411  0.1297
39140W        W47740  30.074   7.626  23.499 -0.0676  0.0873 -0.0396
39141W        W47741  22.788   7.398   4.862  0.1096 -0.1308 -0.2449
39142W        W47742  24.354   0.741  23.707  0.3592 -0.1111 -0.1468
39143W        W47743  17.459   2.244  21.289 -0.2402  0.0437  0.0414
39144W        W47744  26.638   4.176   4.070  0.1681  0.2181  0.1208
39145W        W47745   0.618   5.129  14.877  0.1762 -0.2106  0.0397
39146W        W47746   1.698   5.814  18.838 -0.0455  0.0368  0.0445
39147W        W47747  16.382   2.809   7.880  0.4075  0.0363  0.1028
39148W        W47748   0.606   7.462  11.058  0.1218  0.4636  0.3697
39149W        W47749  24.024   0.209  26.352 -0.0966 -0.1237 -0.1605
39150W        W47750  28.584   4.745  23.314 -0.0047 -0.0079 -0.0416
39151W        W47751   6.107   4.681   3.926  0.1927 -0.1022 -0.2364
39152W        W47752  11.372   6.811   4.659  0.4964 -0.0383 -0.2744
39153W        W47753   3.804   0.751  16.989  0.2117  0.2171  0.0962
39154W        W47754   4.192   7.348   3.614 -0.1102  0.0104 -0.1631
39155W        W47755  23.692   7.213   8.448 -0.2135 -0.2270  0.1950
39156W        W47756  20.206   3.145  16.071  0.1653 -0.1257  0.2851
39157W        W47757  22.208   0.852  24.424  0.0924  0.1445 -0.0872
39158W        W47758  20.341   0.193  24.046 -0.3365  0.0006  0.1432
39159W        W47759  15.494   4.037  17.362 -0.0777 -0.0665  0.3022
39160W        W47760  11.370   4.695  17.880  0.1093 -0.1725  0.0412
39161W        W47761   3.358   7.283  23.586 -0.2625  0.1000 -0.0526
39162W        W47762  11.150   6.609  21.985 -0.0866 -0.2176 -0.3174
39163W        W47763   8.084   4.016   4.053 -0.0181  0.1808  0.0153
39164W        W47764   8.030   1.582  22.654  0.1715 -0.4177  0.1129
39165W        W47765  10.791   1.437  24.821 -0.1098 -0.3992 -0.0399
39166W        W47766  22.475   3.381  20.732  0.1950 -0.2554  0.0021
39167W        W47767   2.987   6.315  16.779  0.1267  0.3788  0.2930
39168W        W47768   9.962   4.417  10.198  0.3215  0.3128 -0.0113
39169W        W47769   6.496   3.257  20.798  0.1858 -0.6827 -0.1015
39170W        W47770  21.015   7.735  26.100  0.3174  0.1041  0.0412
39171W        W47771  28.977   2.505   3.178  0.1222  0.0358 -0.5117
39172W        W47772   4.161   6.315   0.649 -0.1444 -0.0845 -0.0883
39173W        W47773   7.960   6.468   5.989 -0.2455  0.1013 -0.0568
39174W        W47774  25.235   6.495   3.712 -0.0824 -0.3570 -0.0937
39175W        W47775  27.554   7.791  16.028 -0.3368 -0.2721 -0.3527
39176W        W47776  11.255   0.119  24.997  0.0807  0.1344  0.2387
39177W        W47777  16.967   0.366  26.266  0.1550 -0.0941  0.1049
39178W        W47778   9.460   4.484   7.870 -0.3236  0.1432  0.0841
39179W        W47779   7.199   1.073   4.790 -0.0379  0.2614  0.0958
39180W        W47780   6.561   7.755   9.160 -0.1588 -0.4111  0.0183
39181W        W47781   9.239   1.548   4.370 -0.0843 -0.1772  0.0573
39182W        W47782  25.965   6.895   9.997  0.1635 -0.4357 -0.1324
39183W        W47783   6.300   7.515  18.274 -0.4512  0.0076 -0.1061
39184W        W47784   8.785   2.615  16.163 -0.1523 -0.4268 -0.0640
39185W        W47785  24.108   3.944   9.487 -0.1143 -0.1140 -0.0062
39186W        W47786  26.146   0.961   9.578 -0.2448 -0.2513 -0.0610
39187W        W47787  24.838   0.648   2.270  0.1182 -0.1687 -0.0978
39188W        W47788  27.158   5.541  25.158  0.2696 -0.0832  0.0588
39189W        W47789  26.387   7.590  21.486  0.3082 -0.2606 -0.0289
39190W        W47790  20.695   6.851  16.756  0.0880 -0.2372  0.0346
39191W        W47791  28.546   0.319  19.183  0.3145 -0.2072  0.0134
39192W        W47792   7.792   1.248   2.659  0.4855 -0.3618 -0.1771
39193W        W47793  16.522   0.435  26.063 -0.1199 -0.5157  0.1115
39194W        W47794   9.515   0.094   8.362 -0.0203  0.2114  0.2310
39195W        W47795   7.990   3.923  17.368 -0.1447 -0.1339  0.3762
39196W        W47796   0.523   2.211   8.841 -0.0479 -0.0726 -0.2001
39197W        W47797   5.953   5.789  19.543 -0.0379  0.2039 -0.0920
39198W        W47798  22.908   4.842   9.823 -0.1522  0.1413 -0.0338
39199W        W47799   2.431   2.645  20.829 -0.0460  0.2029 -0.2326
39200W        W47800  26.709   1.186   4.035  0.2530  0.0677 -0.0433
39201W        W47801  16.637   7.343  19.347 -0.1569 -0.0121 -0.1171
39202W        W47802  16.749   4.869  20.359 -0.3329 -0.3785 -0.1426
39203W        W47803  23.244   4.510  11.349  0.0555 -0.0372  0.1145
39204W        W47804  27.268   4.847  24.383 -0.3622 -0.2971  0.1198
39205W        W47805  27.847   4.204   3.274 -0.0984  0.4847  0.0023
39206W        W47806  27.085   4.099  25.047 -0.0588 -0.2001  0.0237
39207W        W47807  15.602   6.146   2.264  0.0405 -0.1096 -0.1054
39208W        W47808  10.869   3.410  24.742  0.1648 -0.1683  0.0988
39209W        W47809   3.473   3.217  17.656 -0.0403  0.0539 -0.0288
39210W        W47810   9.792   3.260   6.695 -0.1245  0.0461 -0.1063
39211W        W47811  15.282   0.190   7.207 -0.0006 -0.3555  0.0453
39212W        W47812  21.220   3.997   1.859  0.2843  0.1028  0.0150
39213W        W47813  13.812   2.679  19.936  0.1707 -0.0424 -0.0834
39214W        W47814  15.403   7.007   7.910  0.0383  0.2055  0.1218
39215W        W47815   4.212   2.916  25.871  0.2823  0.2960 -0.0904
39216W        W47816   0.959   1.869   4.556 -0.4136 -0.0970 -0.0625
39217W        W47817   8.490   0.676   3.472  0.3091  0.1856  0.1266
39218W        W47818  13.641   3.821  25.014  0.3426 -0.2408  0.0111
39219W        W47819  14.792   1.175   2.267  0.2802  0.0187 -0.1446
39220W        W47820   2.131   1.184  19.559  0.2062 -0.1888 -0.2213
39221W        W47821  25.879   1.725  21.254 -0.1386  0.0452 -0.1466
39222W        W47822  25.644   2.755  19.016 -0.0422 -0.1866 -0.0474
39223W        W47823   5.760   5.634  10.191 -0.0667 -0.0309 -0.0578
39224W        W47824  18.249   2.314  18.415  0.2402 -0.1644  0.0561
39225W        W47825  28.534   0.796   7.414  0.1544 -0.0180  0.0028
39226W        W47826  13.198   7.168  19.962 -0.2110  0.1623  0.0520
39227W        W47827   1.042   6.933  15.820  0.2271  0.2680 -0.0589
39228W        W47828  15.649   5.789   4.621  0.2073 -0.3404  0.2093
39229W        W47829  15.132   0.199   3.423 -0.0870  0.0578 -0.0584
39230W        W47830  30.107   2.357  17.781  0.0762 -0.1149 -0.0148
39231W        W47831   0.789   4.549   7.402  0.2930  0.2263  0.1378
39232W        W47832  23.483   4.237   5.581 -0.0326 -0.3108 -0.0879
39233W        W47833  16.546   2.087  24.225  0.1103  0.0730 -0.2693
39234W        W47834  24.547   0.187   2.432  0.2740  0.4849 -0.0373
39235W        W47835   0.375   2.656  19.283 -0.0482  0.3099  0.1329
39236W        W47836  18.861   0.922  22.375  0.3791  0.0189  0.1290
39237W        W47837   7.348   6.416   9.960 -0.0646 -0.1254  0.1147
39238W        W47838  18.283   3.074  20.083  0.0748 -0.0177 -0.1841
39239W        W47839  29.204   7.247   8.418 -0.1257 -0.0751  0.0311
39240W        W47840   2.318   7.394  22.899  0.0503 -0.1019 -0.0351
39241W        W47841  25.613   1.720  11.669 -0.0304  0.0731 -0.0501
39242W        W47842  27.516   2.898   1.110  0.0360  0.0912  0.1345
39243W        W47843  16.841   6.897  22.629 -0.0330 -0.1764 -0.2354
39244W        W47844  20.733   6.745  22.431 -0.1024  0.0789  0.0769
39245W        W47845   9.375   6.804  20.996 -0.0385  0.0791  0.3771
39246W        W47846  30.469   2.885  26.125 -0.2187  0.4632 -0.0078
39247W        W47847   1.625   6.072   4.576  0.2480 -0.3625  0.3912
39248W        W47848  12.526   3.397   5.324  0.3852 -0.0462 -0.2347
39249W        W47849   4.982   4.283  19.589  0.2992 -0.1332  0.0688
39250W        W47850   3.559   0.853   0.340  0.0098 -0.0577  0.1137
39251W        W47851  19.070   3.480  24.235  0.0019 -0.0152 -0.1497
39252W        W47852   1.551   3.411  15.872 -0.0454  0.0202  0.0403
39253W        W47853  21.131   7.458  21.137  0.1977  0.0260 -0.2637
39254W        W47854  14.106   7.540   7.683 -0.0061 -0.3258  0.2809
39255W        W47855  16.100   4.947  15.381 -0.0373  0.2130 -0.1734
39256W        W47856  15.320   5.315  21.102  0.1530  0.0875  0.3681
39257W        W47857  19.979   1.265  18.732 -0.1049  0.0321 -0.1834
39258W        W47858  25.337   7.792   1.132  0.3349  0.0728  0.1131
39259W        W47859   7.807   0.316  20.767 -0.0814 -0.2424  0.2298
39260W        W47860   4.004   0.721  19.290  0.0029  0.0225 -0.0420
39261W        W47861  22.445   7.673  19.276  0.2170  0.0302 -0.0018
39262W        W47862  25.479   1.763   1.267  0.1709 -0.2238  0.1014
39263W        W47863  25.918   7.573  22.367 -0.0106  0.0329 -0.2257
39264W        W47864   1.534   2.250  23.381  0.2284  0.1388 -0.0307
39265W        W47865  25.130   3.236   3.716  0.1070  0.1449 -0.2367
39266W        W47866   7.548   4.897  19.225  0.0108  0.2542 -0.0851
39267W        W47867  20.105   4.160   7.629 -0.1297 -0.0127 -0.1166
39268W        W47868   6.165   5.744   4.352  0.1053  0.0902  0.3683
39269W        W47869   7.973   4.900   4.150  0.1454 -0.2322  0.2345
39270W        W47870   6.767   4.280  23.427 -0.0285 -0.3839 -0.1335
39271W        W47871  24.811   0.925  10.494  0.1518  0.0639 -0.0398
39272W        W47872  23.466   7.110   0.093 -0.0484 -0.1229 -0.1597
39273W        W47873  16.770   0.227  17.519  0.1869  0.0486 -0.1246
39274W        W47874  16.336   5.465  19.192 -0.3981 -0.0848  0.2409
39275W        W47875   7.819   3.134  25.676 -0.2633  0.1004  0.0308
39276W        W47876  21.083   0.033  15.566  0.0315  0.1079 -0.1490
39277W        W47877  17.721   5.281  24.453 -0.4308 -0.0386 -0.0810
39278W        W47878   5.972   5.674  22.493 -0.0996  0.0351 -0.1294
39279W        W47879  21.263   3.726  24.664  0.4493 -0.0874  0.2061
39280W        W47880  26.261   2.278  17.746 -0.1100  0.1190  0.1652
39281W        W47881   8.291   3.158  25.447 -0.3897  0.0502 -0.3061
39282W        W47882  17.877   2.863   5.631  0.0348 -0.0711  0.3747
39283W        W47883  14.434   7.733   8.343 -0.0509  0.3645 -0.2601
39284W        W47884  14.630   7.514   5.870  0.0433  0.1415  0.0249
39285W        W47885  17.388   1.196   4.963 -0.1040 -0.3410 -0.2082
39286W        W47886  15.062   0.631  26.097  0.0352  0.1144  0.4250
39287W        W47887   9.654   6.187   9.201  0.2557 -0.1705 -0.3480
39288W        W47888  19.722   6.071   3.385 -0.1744  0.0336  0.0598
39289W        W47889   9.273   7.248   0.277 -0.2683  0.2549 -0.1025
39290W        W47890  23.643   1.230  25.109  0.0505  0.0272 -0.0441
39291W        W47891  18.212   3.661   0.193  0.0651  0.2917 -0.0828
39292W        W47892  14.454   2.913  24.348 -0.0141 -0.0725 -0.0511
39293W        W47893  29.997   5.680  23.785 -0.1810  0.0688 -0.1992
39294W        W47894   5.606   4.517   3.753  0.2249 -0.1899 -0.1708
39295W        W47895  30.145   5.445  18.249  0.2765 -0.1282  0.1317
39296W        W47896  21.942   7.027   7.888  0.1668  0.1108  0.3659
39297W        W47897   4.906   6.317  18.073 -0.0479  0.1866 -0.1973
39298W        W47898  13.501   2.397  19.202 -0.0416 -0.1736  0.2071
39299W        W47899  30.982   1.520   6.306  0.0416 -0.1853  0.1781
39300W        W47900   7.866   6.137   1.983 -0.1390 -0.2527  0.0442
39301W        W47901   1.617   7.532  20.107 -0.0996  0.2199  0.0571
39302W        W47902  29.963   6.590  19.792 -0.1965  0.0130 -0.1377
39303W        W47903   2.850   4.102   4.594 -0.1563  0.0075 -0.0137
39304W        W47904  27.389   3.772  25.725 -0.0441 -0.0568  0.2828
39305W        W47905   8.819   0.182  26.234 -0.2431 -0.0191 -0.0972
39306W        W47906  11.762   7.036   6.621  0.0792 -0.0176  0.1896
39307W        W47907  14.591   5.274  25.145  0.1156  0.0551  0.2649
39308W        W47908   5.047   0.304   4.158 -0.0040  0.1990 -0.1801
39309W        W47909  15.514   6.909  19.335 -0.1739 -0.0141  0.0439
39310W        W47910   3.211   4.650  21.333 -0.3467  0.0992  0.1573
39311W        W47911  27.983   0.542  26.271 -0.1697 -0.1970  0.1624
39312W        W47912  10.938   1.558   6.587 -0.0764 -0.2092 -0.0600
39313W        W47913  30.288   1.571   7.886 -0.0519  0.0447  0.1069
39314W        W47914   8.987   0.871   5.831  0.2227  0.2071  0.2793
39315W        W47915   9.531   4.069  21.595  0.0155 -0.0952  0.1756
39316W        W47916   5.758   1.007   1.475 -0.4412 -0.0138 -0.2038
39317W        W47917  22.564   4.143   9.944 -0.1078  0.1504 -0.1572
39318W        W47918   6.483   6.824  20.970 -0.1598  0.1508  0.0975
39319W        W47919  16.011   1.810   2.360 -0.1778  0.2076  0.2177
39320W        W47920  16.942   6.182   4.643  0.0509  0.0672  0.0529
39321W        W47921   0.498   1.691  17.658 -0.3175 -0.0423  0.1219
39322W        W47922   2.657   6.724   5.386  0.0443  0.2737 -0.0283
39323W        W47923   8.302   3.263  24.365 -0.1411 -0.1053  0.3687
39324W        W47924  24.476   0.619  11.197 -0.1171  0.0222 -0.0188
39325W        W47925  22.673   2.420  17.216 -0.1745 -0.2345 -0.0087
39326W        W47926  12.365   7.449   2.625 -0.0093 -0.0241 -0.2362
39327W        W47927   9.657   7.086  24.483  0.0984  0.2668 -0.4115
39328W        W47928  29.792   5.073  22.367  0.1313 -0.1005  0.1536
39329W        W47929   2.111   6.506   6.526 -0.0646  0.0485  0.3236
39330W        W47930  11.328   2.771   7.976  0.1934 -0.1980 -0.1488
39331W        W47931  25.880   1.781  22.447  0.0308 -0.0383  0.0634
39332W        W47932  15.317   6.275  22.096  0.0088  0.1864  0.2502
39333W        W47933   6.281   7.743   2.909  0.0050  0.1195 -0.1203
39334W        W47934  21.748   3.989   2.561  0.0183 -0.0595 -0.3503
39335W        W47935   2.597   1.308  26.001  0.1398  0.0928 -0.3598
39336W        W47936  10.079   4.774   1.460 -0.3401  0.0028 -0.1146
39337W        W47937  10.296   6.577  24.933 -0.3028  0.0994  0.0745
39338W        W47938  20.300   2.086   4.610 -0.1403  0.1544 -0.1072
39339W        W47939  30.575   3.889  24.031  0.1192 -0.0183  0.0327
39340W        W47940   3.620   4.293   2.409 -0.0687 -0.2113 -0.1860
39341W        W47941  21.227   0.313  24.363 -0.1150 -0.1112 -0.2712
39342W        W47942  22.492   3.238   2.847  0.0928  0.1006 -0.1742
39343W        W47943   6.133   7.073   1.322 -0.0507  0.3049 -0.0061
39344W        W47944   7.737   3.190  15.200 -0.2603  0.1338  0.0625
39345W        W47945  28.079   0.517   1.112 -0.3139  0.0522 -0.1517
39346W        W47946  16.660   2.695   5.285  0.0270 -0.1160  0.0607
39347W        W47947  28.793   3.490  21.471  0.2071 -0.3597  0.1913
39348W        W47948   6.544   7.031  19.547  0.1249  0.1825  0.2507
39349W        W47949   9.812   4.970  16.780  0.1475  0.1572 -0.1376
39350W        W47950  25.575   3.893   6.025 -0.2686  0.0874  0.2000
39351W        W47951  18.297   1.657  15.675 -0.2197 -0.0510 -0.0200
39352W        W47952  13.032   5.884   2.150 -0.2024  0.0927 -0.0172
39353W        W47953   9.843   6.628   9.144 -0.0606 -0.2885  0.3147
39354W        W47954   3.159   3.132   4.988 -0.2983 -0.0903 -0.0632
39355W        W47955   2.305   1.211   0.948  0.3862  0.0371 -0.0348
39356W        W47956  24.844   2.843  19.031 -0.1510 -0.0511  0.0075
39357W        W47957  20.507   3.589  10.974  0.5050 -0.1108 -0.1427
39358W        W47958  15.948   2.348   3.818 -0.1757 -0.3565 -0.4245
39359W        W47959   5.848   4.553   9.248 -0.1379 -0.0080 -0.2617
39360W        W47960  22.431   4.113  21.781 -0.1082  0.1988 -0.0698
39361W        W47961  29.763   6.141  18.824 -0.1987 -0.1190  0.0784
39362W        W47962  11.686   2.361   8.216 -0.1061 -0.0347 -0.0215
39363W        W47963  15.227   5.381   4.496 -0.1869 -0.1543 -0.2147
39364W        W47964  24.461   5.132  20.040 -0.0772 -0.0720  0.1249
39365W        W47965  11.834   2.925   8.232 -0.1340  0.0508 -0.0392
39366W        W47966  16.094   3.455   7.353  0.1627 -0.0565 -0.0684
39367W        W47967  20.306   4.159  24.400 -0.0206  0.0338  0.0394
39368W        W47968  24.498   7.550  22.842  0.0639 -0.0089  0.0858
39369W        W47969  12.725   1.617   6.413  0.0508 -0.1805  0.0118
39370W        W47970  10.684   4.721   8.678  0.2319  0.0721 -0.0932
39371W        W47971  21.124   1.098   8.289 -0.1530  0.0581 -0.0246
39372W        W47972  29.314   4.232  19.799  0.1782  0.0476  0.1483
39373W        W47973  19.722   2.420   4.876  0.0053 -0.0580  0.0358
39374W        W47974   1.587   7.772  17.900 -0.0198  0.0833  0.0337
39375W        W47975   1.169   7.651  15.554 -0.2281  0.1968  0.3286
39376W        W47976  26.540   3.110   1.411  0.1820  0.2751  0.3625
39377W        W47977  24.369   2.835   0.581  0.2816 -0.1021  0.1682
39378W        W47978   9.089   6.244  16.571 -0.1794 -0.0258 -0.0655
39379W        W47979  25.778   1.680   9.051  0.0701 -0.0767 -0.0184
39380W        W47980  20.700   4.521   0.211  0.2126  0.0508  0.0192
39381W        W47981  14.383   7.627  10.311 -0.2524 -0.1876  0.0417
39382W        W47982  14.626   4.332   2.873 -0.1165  0.1066  0.1044
39383W        W47983  31.004   1.144   7.996 -0.1013  0.0952  0.1210
39384W        W47984  30.936   5.029  10.433 -0.1236 -0.1972 -0.1484
39385W        W47985  11.941   7.264  23.147 -0.1533  0.0571  0.1239
39386W        W47986  27.338   5.554   4.805  0.1345 -0.1524  0.1936
39387W        W47987  31.083   1.244   3.303  0.2998 -0.2935 -0.1030
39388W        W47988   8.391   7.022  15.631 -0.1431  0.2725 -0.3011
39389W        W47989   5.229   1.539   9.655 -0.0188  0.0328 -0.0789
39390W        W47990  15.624   3.503   6.178 -0.0449 -0.0271 -0.0171
39391W        W47991  13.632   5.570  15.974 -0.2045 -0.1706 -0.2331
39392W        W47992  28.208   3.229  26.022  0.1668  0.0241  0.1693
39393W        W47993  28.690   5.427   4.721  0.2832 -0.1767  0.2132
39394W        W47994  26.631   6.860  19.562  0.1418  0.0626 -0.0800
39395W        W47995   6.988   1.293   6.059 -0.0509  0.2112  0.1352
39396W        W47996   9.710   5.309   5.127 -0.0801  0.0792  0.2002
39397W        W47997  19.465   5.603  23.708 -0.1935 -0.0114  0.0962
39398W        W47998   7.565   1.590  18.438  0.2956  0.1665 -0.1235
39399W        W47999   8.296   3.909   0.325 -0.3060 -0.3121  0.4089
39400W        W48000  10.251   2.714  10.049 -0.1486  0.0076  0.0980
39401W        W48001  17.771   4.499   1.208  0.1472  0.0134 -0.1108
39402W        W48002  17.203   4.401  18.369 -0.0653 -0.0265 -0.0154
39403W        W48003   5.015   2.772  17.905  0.1583  0.0346  0.3353
39404W        W48004   8.962   3.089   7.667 -0.2021 -0.1791  0.2219
39405W        W48005   8.549   5.492  24.411  0.2501  0.0323  0.1561
39406W        W48006  10.009   1.411  17.182 -0.2452  0.1555 -0.1139
39407W        W48007  10.207   3.540  23.991 -0.2321  0.0645 -0.2366
39408W        W48008   9.326   1.064  19.154  0.0110 -0.0165  0.3552
39409W        W48009  16.019   1.256  25.310 -0.0018 -0.2025 -0.1854
39410W        W48010  18.792   6.059  17.083  0.4196  0.2450 -0.0719
39411W        W48011   9.317   6.257   5.143 -0.1228 -0.0633  0.0225
39412W        W48012   5.252   7.239   1.247  0.0378  0.0152 -0.1067
39413W        W48013  20.493   7.538   8.667  0.0038  0.1614 -0.0270
39414W        W48014  23.790   0.426   7.853  0.0786  0.0240  0.3187
39415W        W48015  21.720   7.283  19.960 -0.2714  0.0130 -0.1815
39416W        W48016  21.959   6.062  23.772  0.1009 -0.0286 -0.1666
39417W        W48017   4.385   7.107  25.385  0.1399 -0.1308 -0.1767
39418W        W48018   8.103   1.538   4.714 -0.1796  0.2148 -0.0693
39419W        W48019   4.292   6.556  23.783  0.1379 -0.2969 -0.1225
39420W        W48020   7.354   5.826   5.404 -0.1322 -0.0725  0.0178
39421W        W48021  15.236   1.220   7.207  0.1913 -0.0881  0.1440
39422W        W48022  23.057   6.453   4.248  0.3839 -0.2216  0.2339
39423W        W48023  27.026   2.670  23.548 -0.1465 -0.0299 -0.4184
39424W        W48024  18.490   0.108  20.118  0.1299 -0.0977 -0.2247
39425W        W48025  24.621   5.907   4.950  0.1177  0.0206 -0.1602
39426W        W48026  22.850   0.684  19.431  0.1572 -0.1824  0.1097
39427W        W48027  12.883   5.655  16.458  0.6288 -0.0630 -0.1991
39428W        W48028  13.268   6.136  11.042  0.4410 -0.1150  0.1250
39429W        W48029  11.684   4.780  16.784  0.2304 -0.2266 -0.1522
39430W        W48030  19.485   7.699  23.781  0.0059 -0.1206  0.3180
39431W        W48031  17.268   2.436  16.301 -0.0115 -0.0423 -0.3612
39432W        W48032  11.776   4.470  16.422 -0.0817  0.1081  0.1426
39433W        W48033   8.863   3.927   1.456  0.2590  0.0893  0.0145
39434W        W48034  20.919   1.541  16.790 -0.2831 -0.1361 -0.1032
39435W        W48035  21.208   0.720  17.566 -0.3411  0.0148 -0.0759
39436W        W48036  23.242   7.442   9.927  0.2115 -0.1668 -0.2376
39437W        W48037  24.269   4.782   0.500 -0.2411 -0.1205  0.1742
39438W        W48038  12.323   5.097   6.261  0.1644 -0.3243  0.1295
39439W        W48039  15.315   0.034   0.199  0.1329  0.1258  0.1053
39440W        W48040  13.663   2.113  18.734 -0.0689  0.1620  0.0455
39441W        W48041   4.934   3.945   2.760 -0.2284  0.2215 -0.0520
39442W        W48042  24.440   4.455  11.261  0.2005  0.2968 -0.0147
39443W        W48043  20.942   6.432   9.612 -0.3711  0.0951  0.0314
39444W        W48044  18.238   7.188  10.638 -0.0708  0.0516  0.0590
39445W        W48045   2.041   6.079  21.496  0.0231  0.1014  0.2107
39446W        W48046  12.590   4.855   5.668  0.3568 -0.3263  0.0425
39447W        W48047   0.377   0.094  10.152  0.2483  0.2273 -0.0660
39448W        W48048   3.013   2.689  19.167 -0.0724  0.0488  0.2732
39449W        W48049  23.568   2.258  22.725  0.3239  0.1215  0.0227
39450W        W48050  28.211   0.567  22.866  0.4163 -0.1149 -0.5600
39451W        W48051  19.076   0.575   3.241  0.0209  0.0675 -0.0895
39452W        W48052   3.496   6.251  26.255  0.2054 -0.0778  0.1594
39453W        W48053   1.315   0.671   0.061  0.1365 -0.0765  0.0293
39454W        W48054   4.765   5.541  26.060  0.0364  0.1681  0.0679
39455W        W48055   3.480   2.292  22.858 -0.1253  0.1454 -0.2437
39456W        W48056  23.133   4.463  23.767 -0.0996  0.2436 -0.2019
39457W        W48057   5.780   2.403  17.318 -0.1646 -0.1546  0.0109
39458W        W48058  22.835   2.876  18.520 -0.1963  0.2300 -0.1862
39459W        W48059  29.221   0.106  23.218  0.1854 -0.2749  0.1360
39460W        W48060   7.026   3.371  10.469  0.0119 -0.2646 -0.0360
39461W        W48061  19.914   4.590  22.109 -0.1050 -0.0223 -0.2530
39462W        W48062  22.728   3.984  19.869  0.1428 -0.1517  0.2107
39463W        W48063  24.196   1.663  17.382  0.1769 -0.0966  0.2280
39464W        W48064   2.713   6.730  25.633  0.0795 -0.0387 -0.3429
39465W        W48065  19.899   5.457   6.020  0.0422 -0.2704 -0.0356
39466W        W48066   3.304   2.424  18.665 -0.1783  0.1672  0.0470
39467W        W48067  22.561   0.207   8.225  0.2848 -0.0232  0.1748
39468W        W48068   5.538   0.036   6.100 -0.2679 -0.0072  0.0723
39469W        W48069  19.542   6.760   8.303  0.0612 -0.1277  0.0574
39470W        W48070  31.062   7.354   2.978  0.3386 -0.1520  0.0365
39471W        W48071  22.517   7.541  16.194  0.0344  0.0945 -0.1062
39472W        W48072   6.596   2.420   9.023  0.0330 -0.0197 -0.1784
39473W        W48073  14.535   5.404  20.634  0.3417 -0.0456  0.0601
39474W        W48074  23.995   1.535  24.353 -0.0301  0.1932 -0.0301
39475W        W48075  23.672   0.703   5.546 -0.0230  0.0031 -0.0335
39476W        W48076   0.897   0.562   6.054 -0.4015 -0.0714 -0.0739
39477W        W48077  19.891   1.518  10.678 -0.0628 -0.2248 -0.1594
39478W        W48078  20.575   4.071   0.298  0.2713 -0.0763 -0.0293
39479W        W48079   0.347   0.124  26.172  0.0003  0.1643  0.0301
39480W        W48080  25.287   1.810   0.393 -0.2118  0.2833  0.1443
39481W        W48081   5.452   7.786   3.029 -0.3193  0.3250  0.0394
39482W        W48082   1.280   5.223   9.725  0.0368 -0.2405  0.1479
39483W        W48083  14.455   7.326   2.188 -0.2580  0.0644 -0.1624
39484W        W48084  30.267   6.611   1.257 -0.2500 -0.0160 -0.0240
39485W        W48085   7.237   0.526  23.957  0.0461 -0.2800 -0.2302
39486W        W48086  17.398   0.120   1.078 -0.0929  0.1099 -0.1510
39487W        W48087   6.904   1.682  10.976  0.0652 -0.0602  0.2099
39488W        W48088  21.267   4.657  21.767  0.0057  0.0259  0.1186
39489W        W48089  30.608   0.844   2.315  0.3933 -0.2537 -0.0501
39490W        W48090  28.440   1.939  26.041  0.2730  0.0197  0.3151
39491W        W48091   0.584   7.450   4.156 -0.2490  0.0308 -0.1843
39492W        W48092  20.001   2.375   9.580  0.0839  0.1110 -0.0198
39493W        W48093  28.711   7.496   6.873  0.0929 -0.0541  0.0709
39494W        W48094   4.259   5.758  16.626 -0.1344 -0.1615  0.1702
39495W        W48095  18.859   1.822  17.477  0.0229  0.2164  0.2454
39496W        W48096  14.400   4.279  24.375 -0.1939  0.2471  0.1092
39497W        W48097  25.685   4.656  15.707 -0.0947  0.2681 -0.4857
39498W        W48098  24.598   5.225   0.616 -0.0493 -0.0974  0.1172
39499W        W48099   5.298   7.752   4.950  0.5520  0.1107  0.1141
39500W        W48100   4.846   7.722  18.981 -0.0587 -0.0896  0.0144
39501W        W48101  12.388   2.646   0.934 -0.0491 -0.2168  0.0432
39502W        W48102  18.327   3.937   9.670  0.1749 -0.1505 -0.0871
39503W        W48103  28.278   0.917   6.319  0.2862 -0.0710  0.1368
39504W        W48104  10.280   3.532   5.605 -0.1399  0.0867 -0.0513
39505W        W48105  14.240   2.015  10.192 -0.2519  0.1704  0.0860
39506W        W48106  15.934   0.415  10.125  0.1969  0.2696  0.0360
39507W        W48107  26.706   7.497   6.935 -0.2898  0.0188 -0.1343
39508W        W48108  19.462   5.525  15.080  0.1935  0.2725  0.1310
39509W        W48109  10.905   2.875  25.492 -0.1765 -0.1178  0.3488
39510W        W48110  26.033   0.221   4.936  0.0557  0.1122  0.0199
39511W        W48111  18.833   5.192   2.040 -0.0228  0.3719 -0.0653
39512W        W48112  26.586   5.932   1.637 -0.0016  0.2414 -0.3774
39513W        W48113  20.107   7.194  24.462 -0.0824 -0.2514 -0.1260
39514W        W48114   2.806   0.694   4.177  0.1032 -0.0090  0.0850
39515W        W48115  10.891   3.959   4.937  0.2442 -0.2056 -0.0703
39516W        W48116  13.945   1.255  16.920 -0.2774 -0.0502 -0.0255
39517W        W48117  28.489   0.691  26.388 -0.1944 -0.2035  0.0171
39518W        W48118   6.467   4.881   5.947  0.0919 -0.0141  0.1021
39519W        W48119  15.012   1.735  20.957  0.1737 -0.1259  0.2751
39520W        W48120  21.284   1.909  16.743 -0.1524  0.0805 -0.1502
39521W        W48121  22.798   0.849  25.975 -0.1028  0.0144  0.1460
39522W        W48122   5.546   1.758   0.411  0.0146 -0.0548 -0.1898
39523W        W48123   5.393   2.138  11.051 -0.0861  0.2496 -0.3375
39524W        W48124  17.500   1.953   9.037  0.1838 -0.1593 -0.0951
39525W        W48125  29.036   2.938   0.331  0.0886 -0.2773  0.2709
39526W        W48126  16.051   5.320   2.707  0.1191 -0.2139  0.1165
39527W        W48127   9.165   3.293  25.911  0.0232  0.2692 -0.0614
39528W        W48128   8.585   0.387  18.147  0.1980 -0.2701 -0.0872
39529W        W48129   0.091   0.650  25.789  0.0869 -0.2047 -0.1500
39530W        W48130  24.140   7.404  19.258  0.3980  0.2871  0.5309
39531W        W48131  15.763   6.559  20.484  0.3507 -0.4307 -0.0430
39532W        W48132  25.853   2.929   8.599  0.0015  0.2497 -0.0927
39533W        W48133  11.005   5.311  24.555 -0.0223  0.1476 -0.0959
39534W        W48134   5.862   3.830   9.934  0.0453  0.0284 -0.2596
39535W        W48135   6.269   7.033   4.865 -0.1564 -0.1144 -0.1677
39536W        W48136   9.451   6.962  21.621  0.0648 -0.1181 -0.1769
39537W        W48137  25.117   6.342   9.246 -0.0193  0.0004  0.0311
39538W        W48138   9.913   0.697   6.075 -0.0013  0.0295 -0.1371
39539W        W48139  29.010   3.753   8.446 -0.0466  0.1571  0.2517
39540W        W48140  24.623   0.567   4.203 -0.1172 -0.1385 -0.0027
39541W        W48141   2.018   5.580  15.644  0.0200 -0.0098 -0.1641
39542W        W48142  15.780   3.510   2.441 -0.2312 -0.3496 -0.2507
39543W        W48143   9.678   6.768  19.197 -0.2163  0.2677  0.2711
39544W        W48144   3.207   5.962  17.704  0.2350 -0.0210  0.1541
39545W        W48145  23.717   4.463  16.518  0.0916  0.4106 -0.4544
39546W        W48146  29.839   0.893  11.673  0.1912  0.0572 -0.0666
39547W        W48147  10.076   3.089   5.846 -0.2273  0.0280  0.1288
39548W        W48148  11.586   4.480  21.035  0.1757 -0.2401  0.0394
39549W        W48149  12.202   1.692   2.664  0.0583 -0.1776 -0.1138
39550W        W48150  27.328   7.232   3.454 -0.3323  0.2260  0.1919
39551W        W48151  10.099   4.330   1.775  0.2008 -0.2221 -0.3165
39552W        W48152   7.986   6.623  23.596  0.0974  0.3812 -0.0548
39553W        W48153  21.454   0.012  25.827 -0.0435 -0.1503 -0.1190
39554W        W48154  10.935   3.872  21.053  0.0102  0.2377  0.3850
39555W        W48155   8.113   2.637   6.768 -0.0954 -0.0029 -0.1440
39556W        W48156   2.148   3.906  24.622  0.2854 -0.1562  0.0487
39557W        W48157  22.214   3.396   1.750  0.0218 -0.1812 -0.0596
39558W        W48158  16.883   0.595   6.478  0.4513 -0.1890  0.3738
39559W        W48159  19.110   6.645  20.390 -0.1556  0.2108  0.1739
39560W        W48160   4.999   5.066  11.111 -0.0575 -0.0252  0.2180
39561W        W48161   4.835   2.383  26.283 -0.1245  0.2463  0.4373
39562W        W48162  29.601   5.517  22.533 -0.0651  0.0710 -0.1416
39563W        W48163   8.693   0.371   7.890 -0.0050  0.1143  0.4116
39564W        W48164   3.936   5.994   2.772  0.0914 -0.0384 -0.2455
39565W        W48165   4.529   5.817  24.785 -0.3224 -0.1663  0.0283
39566W        W48166  12.540   6.637  21.560  0.0002  0.3073  0.2128
39567W        W48167  30.997   5.092  22.356  0.0144 -0.2519  0.1513
39568W        W48168   7.431   2.066   2.479 -0.0725  0.1020  0.3252
39569W        W48169  21.237   6.192   1.748 -0.0855 -0.1153  0.3282
39570W        W48170   0.394   4.956  15.937 -0.1120  0.0408  0.3641
39571W        W48171  13.989   3.755   4.957 -0.0001 -0.1646 -0.0286
39572W        W48172  23.171   4.901   1.063 -0.0714 -0.0528  0.1011
39573W        W48173  28.839   1.186  19.109  0.1050  0.1200  0.0634
39574W        W48174   8.258   3.119  20.549 -0.3627 -0.1310 -0.1083
39575W        W48175  12.733   6.880  23.380  0.2636 -0.1283 -0.1329
39576W        W48176  12.961   2.529   7.471 -0.1279  0.0459  0.3146
39577W        W48177  19.360   3.556  17.157  0.1551  0.0730 -0.2346
39578W        W48178   9.219   5.113  15.035 -0.2557  0.1715  0.1378
39579W        W48179   3.206   6.675  22.861 -0.0354  0.0041  0.1000
39580W        W48180  27.149   3.410   8.647 -0.1147  0.0616  0.3799
39581W        W48181  26.182   4.972   3.746  0.0950  0.0491 -0.0320
39582W        W48182   6.068   0.674  23.284 -0.1687  0.3938 -0.0750
39583W        W48183  13.398   0.526  10.797  0.0153  0.1819  0.0786
39584W        W48184   3.269   1.883  24.573  0.0618  0.2008 -0.1813
39585W        W48185  26.724   4.428  19.219  0.1509  0.0927  0.1209
39586W        W48186  26.063   5.438  19.066 -0.2321  0.1174  0.1753
39587W        W48187  28.301   0.048  23.636  0.3763  0.1108 -0.1239
39588W        W48188   0.530   1.567  21.244 -0.0890 -0.0819  0.3681
39589W        W48189  14.099   6.160  25.086 -0.0249  0.1247  0.0943
39590W        W48190  30.615   3.401   4.222  0.1503 -0.0800 -0.1419
39591W        W48191  26.199   6.934   9.468 -0.3514 -0.0571  0.1893
39592W        W48192   9.541   5.716   6.311  0.0954 -0.1280  0.0917
39593W        W48193  24.945   5.308  17.897 -0.0002 -0.1536  0.1067
39594W        W48194  19.205   6.264  18.617 -0.1760  0.1306  0.0257
39595W        W48195  30.230   2.075  16.246 -0.1695  0.0349 -0.0080
39596W        W48196  10.799   2.143  10.476 -0.0168  0.0968  0.1511
39597W        W48197  24.944   2.444   1.798 -0.0243 -0.0715 -0.2972
39598W        W48198  21.239   6.339   7.410 -0.0298  0.1113  0.1173
39599W        W48199  29.237   2.553  25.387 -0.2494  0.0586 -0.1748
39600W        W48200  27.003   4.944   2.657 -0.0215  0.2430 -0.0728
39601W        W48201  24.122   7.300  22.156  0.1323 -0.0007 -0.0987
39602W        W48202  25.377   1.472   2.678 -0.0994 -0.0704  0.0300
39603W        W48203  14.392   1.633   2.037 -0.1827  0.0613 -0.1424
39604W        W48204  14.301   3.874   6.060  0.0222 -0.0582 -0.1352
39605W        W48205  16.661   2.544   2.446  0.0141 -0.0441  0.0064
39606W        W48206  23.212   2.618   9.383  0.1175  0.2773 -0.1602
39607W        W48207  29.454   6.986  18.823 -0.2043 -0.1137 -0.2294
39608W        W48208   4.931   7.731  16.937  0.2549 -0.0496  0.3348
39609W        W48209  13.329   5.718   1.375 -0.0640  0.0104 -0.0433
39610W        W48210  15.763   1.367   2.283  0.3864 -0.1515  0.1419
39611W        W48211  18.201   1.602   8.616  0.5117  0.1030  0.2279
39612W        W48212  12.350   2.210   0.264 -0.0763 -0.0381 -0.1207
39613W        W48213   6.677   7.316  20.258 -0.0969 -0.1859 -0.3129
39614W        W48214  24.199   6.913  23.299 -0.0641 -0.0272 -0.1845
39615W        W48215   1.034   5.605  15.683 -0.0166 -0.2105 -0.0932
39616W        W48216   1.286   0.376  10.499 -0.1039  0.0233 -0.2065
39617W        W48217   1.964   1.139  25.281  0.0609  0.3810 -0.0256
39618W        W48218  29.228   5.709  17.885  0.0788  0.0420  0.0321
39619W        W48219   0.229   7.169  25.703 -0.0316 -0.1089 -0.0476
39620W        W48220   8.856   5.021   5.327  0.0845 -0.0825 -0.1956
39621W        W48221  16.882   7.290  21.729  0.1624 -0.0374 -0.0471
39622W        W48222   9.652   5.055  25.633 -0.1548 -0.0236 -0.1630
39623W        W48223  10.219   0.392   0.734 -0.1325 -0.1040  0.1303
39624W        W48224  19.057   5.719   4.120  0.2196  0.0143 -0.0464
39625W        W48225   4.299   1.546   3.651 -0.1157 -0.1123  0.1894
39626W        W48226   5.960   6.622   1.634 -0.0047  0.0635  0.3022
39627W        W48227  27.736   4.496   6.444 -0.2626  0.0790 -0.1570
39628W        W48228   3.521   7.556  20.651  0.1879 -0.2793  0.4037
39629W        W48229  10.329   5.255  25.685  0.0193  0.0400  0.0407
39630W        W48230  23.805   3.147   9.985  0.1254 -0.0840 -0.1378
39631W        W48231   8.360   5.621  17.248 -0.1590 -0.0411 -0.0363
39632W        W48232  11.304   5.842  22.501 -0.0377  0.0004  0.1541
39633W        W48233  26.452   1.356   3.468  0.0728  0.0014  0.1015
39634W        W48234  17.561   2.927  20.098 -0.2109 -0.0039  0.1846
39635W        W48235  28.591   6.841  18.944 -0.0700 -0.1690 -0.4290
39636W        W48236  14.865   1.895   3.104 -0.2132  0.0962 -0.0731
39637W        W48237  14.464   7.782   6.880 -0.3353  0.0621 -0.1532
39638W        W48238  25.504   7.067  23.249 -0.0121  0.2620  0.0261
39639W        W48239  30.939   0.656  21.219 -0.1125 -0.1526 -0.2049
39640W        W48240   2.715   0.852  23.251  0.0452 -0.1252  0.1397
39641W        W48241   7.777   0.827  24.608  0.2248  0.0132  0.0015
39642W        W48242  28.488   3.015   6.944 -0.1317  0.2649 -0.1550
39643W        W48243  30.775   3.829   9.012 -0.1912 -0.1503  0.1370
39644W        W48244  19.182   7.434   4.403 -0.2498 -0.4007 -0.0092
39645W        W48245   6.481   3.067   6.440 -0.2025 -0.2914 -0.0430
39646W        W48246   1.276   5.148   9.083  0.0946  0.0886 -0.3409
39647W        W48247  10.864   3.397  17.370 -0.0975  0.1021  0.3445
39648W        W48248  25.376   7.709  22.340 -0.1689  0.0055 -0.0491
39649W        W48249  15.317   6.324   6.467 -0.0947 -0.3947 -0.1505
39650W        W48250  20.440   4.193   7.283 -0.3536  0.2949  0.1700
39651W        W48251  25.527   4.733  24.324 -0.1891  0.0292  0.0720
39652W        W48252  21.739   1.309  21.599  0.0045 -0.1357 -0.4340
39653W        W48253  27.249   1.396  23.085  0.0460 -0.0374  0.0417
39654W        W48254   5.681   1.977  23.262  0.1753  0.1015  0.1756
39655W        W48255  23.664   5.101   9.590 -0.4376 -0.0998 -0.1260
39656W        W48256  18.539   5.766  21.262  0.2486 -0.1582  0.2030
39657W        W48257  20.447   2.777  25.266 -0.2567  0.1191  0.1306
39658W        W48258  18.098   7.680   7.415  0.0267 -0.2263  0.1550
39659W        W48259   4.863   3.505  24.863 -0.1325 -0.0181 -0.3157
39660W        W48260   6.348   0.884  26.152  0.3120  0.0278  0.2946
39661W        W48261  17.488   7.494   4.713 -0.3055  0.0023  0.1336
39662W        W48262  11.366   2.742   0.649  0.1891 -0.0474  0.1209
39663W        W48263  20.302   2.744   0.243  0.3339  0.1624  0.1208
39664W        W48264  29.523   7.250  22.148 -0.0296 -0.4262  0.1110
39665W        W48265  10.542   5.223  18.981  0.1824 -0.3407  0.1386
39666W        W48266   6.447   3.253  25.797 -0.2169 -0.2300 -0.1044
39667W        W48267   0.334   2.586  23.136  0.4604 -0.2002 -0.2330
39668W        W48268   8.567   5.041  24.530  0.0697 -0.4413 -0.1805
39669W        W48269  13.940   5.798   1.653  0.1562 -0.1008  0.1071
39670W        W48270  23.509   5.873   6.253 -0.0223 -0.2737 -0.0054
39671W        W48271  12.538   1.951  10.012  0.4440  0.2341 -0.0002
39672W        W48272  24.777   1.623  22.663  0.1421  0.1681  0.0870
39673W        W48273  14.378   4.198  10.578 -0.2590  0.0003 -0.4667
39674W        W48274   9.795   4.456   7.444 -0.2821  0.1561 -0.0188
39675W        W48275  24.412   0.748  22.570  0.0302 -0.1748 -0.0179
39676W        W48276   3.928   1.864   9.984  0.0579 -0.1362 -0.0069
39677W        W48277  22.684   3.659  23.625  0.1696  0.1724  0.0037
39678W        W48278  23.207   4.152  23.139  0.0760  0.1948 -0.0985
39679W        W48279   4.265   4.875   9.410  0.0614 -0.1059 -0.1172
39680W        W48280   1.445   3.731  10.632  0.1059 -0.0498  0.1851
39681W        W48281  23.060   0.558  18.920 -0.2666 -0.2858 -0.3529
39682W        W48282  19.901   0.346  22.857  0.2117 -0.2193  0.0856
39683W        W48283  29.666   7.182  20.279  0.0807 -0.3888  0.2236
39684W        W48284  28.084   0.140  16.153 -0.2341 -0.3445 -0.0498
39685W        W48285  26.630   1.906   3.369  0.0284  0.4348 -0.4205
39686W        W48286   5.286   0.849   1.351  0.0396  0.0861  0.0442
39687W        W48287  28.773   6.711   7.629  0.0785  0.0951 -0.0963
39688W        W48288  23.902   1.134  10.241  0.2558 -0.0166 -0.1203
39689W        W48289  13.784   3.742  17.999 -0.0710  0.0280 -0.2773
39690W        W48290   9.215   4.038  20.548 -0.0295 -0.0566  0.0083
39691W        W48291  25.498   5.287  16.307  0.3957 -0.0926  0.1338
39692W        W48292  30.357   4.304  19.654 -0.0166  0.1096  0.0595
39693W        W48293  13.559   6.255   6.342  0.3042  0.2978 -0.0902
39694W        W48294   4.423   2.052  20.090 -0.0157  0.1946 -0.1931
39695W        W48295   7.324   6.918  24.617  0.1328  0.2107 -0.0788
39696W        W48296  26.902   2.846   6.479 -0.2093 -0.1452 -0.0157
39697W        W48297  18.677   5.127  22.743  0.2412  0.0336 -0.0232
39698W        W48298  29.561   2.409   0.425  0.2944  0.0665 -0.0637
39699W        W48299   9.261   5.414   0.670  0.0446  0.2619 -0.0056
39700W        W48300  24.222   6.480   8.278 -0.1676  0.0205  0.2036
39701W        W48301  21.379   3.338  23.658 -0.0105  0.0777 -0.2138
39702W        W48302  17.821   3.259  25.926  0.4072 -0.0787  0.3771
39703W        W48303  20.574   1.463   7.516 -0.1525  0.1029  0.0108
39704W        W48304  20.538   6.216   1.144  0.0727  0.0100 -0.1091
39705W        W48305   7.682   5.306  18.388  0.0071  0.1069  0.0111
39706W        W48306  11.630   1.069   7.385 -0.1532  0.1171 -0.1427
39707W        W48307  18.377   6.243  17.333 -0.1696  0.1403 -0.0901
39708W        W48308  19.365   6.438   9.593  0.1063 -0.0581  0.0918
39709W        W48309  15.940   7.484  19.796  0.3347  0.1394  0.0740
39710W        W48310  11.409   3.030  19.252  0.0903  0.0068 -0.0192
39711W        W48311   4.692   4.943   2.030  0.0402  0.0674 -0.0799
39712W        W48312   5.162   0.754   8.159 -0.0244  0.4610 -0.0102
39713W        W48313  27.764   0.613   7.201 -0.0100 -0.0793 -0.0113
39714W        W48314   0.412   2.571  20.169 -0.3622  0.0366 -0.0192
39715W        W48315  27.109   6.801   2.590 -0.2499  0.0419  0.2074
39716W        W48316  12.318   0.682   4.155 -0.2304 -0.1929 -0.0714
39717W        W48317  10.551   5.429  16.314 -0.4998  0.2907  0.1077
39718W        W48318   9.258   7.651  22.815  0.0920 -0.1484 -0.2634
39719W        W48319   9.425   6.529  20.113  0.2341  0.2475  0.0318
39720W        W48320  14.375   7.588  21.845  0.1780 -0.0375  0.1832
39721W        W48321  20.250   0.501  15.519  0.1207 -0.0355 -0.2162
39722W        W48322   1.512   2.287   0.014  0.1349  0.0184  0.0360
39723W        W48323  24.504   3.406  21.690 -0.0006 -0.1332 -0.0705
39724W        W48324  17.797   3.358   7.248  0.1253 -0.0025 -0.0360
39725W        W48325  26.060   4.137  15.129  0.0574  0.0492 -0.0334
39726W        W48326  19.220   0.482   9.328  0.1774  0.1434  0.2811
39727W        W48327  13.015   7.480   0.758  0.0164  0.2521  0.2371
39728W        W48328  11.646   1.414   4.455  0.1253  0.0641 -0.0977
39729W        W48329  16.410   2.254   2.115  0.1963 -0.0454 -0.0018
39730W        W48330  26.792   0.757  10.806 -0.0724 -0.0402 -0.4580
39731W        W48331   6.874   2.156   6.982  0.3837 -0.2336  0.2638
39732W        W48332  17.087   6.554  16.899 -0.3302 -0.2243 -0.1383
39733W        W48333   3.712   3.805  24.322  0.2347 -0.1395 -0.2243
39734W        W48334  29.470   2.806   0.147 -0.0790 -0.1754 -0.1454
39735W        W48335  27.361   3.837  20.228 -0.0980 -0.0474  0.0092
39736W        W48336   0.772   4.247   5.685 -0.1720 -0.0675  0.0944
39737W        W48337  20.293   0.535  19.601 -0.3210 -0.0445 -0.0040
39738W        W48338  13.009   6.064  26.019  0.0041  0.1839  0.1316
39739W        W48339   9.402   2.546   0.394 -0.0813  0.1707  0.1116
39740W        W48340  11.623   1.276   2.131 -0.0518 -0.0789  0.3684
39741W        W48341  13.222   3.277  24.465  0.0524 -0.3814 -0.0473
39742W        W48342  25.709   6.798  18.817  0.0162  0.1027 -0.1645
39743W        W48343   5.797   6.950  10.832  0.1187 -0.0335 -0.0924
39744W        W48344  17.353   6.245   6.994  0.0438  0.2030 -0.1490
39745W        W48345  18.810   6.219  23.291 -0.0252 -0.2082  0.2765
39746W        W48346  12.876   7.049  25.806 -0.1948 -0.4118 -0.0347
39747W        W48347  29.632   3.750   2.096  0.1960  0.2481  0.1717
39748W        W48348   1.655   6.953   0.728 -0.0960  0.0120  0.0474
39749W        W48349  25.960   6.280  11.285  0.0250 -0.2885 -0.1844
39750W        W48350  18.803   2.688   2.684 -0.2744 -0.0055  0.3333
39751W        W48351  27.190   4.694   1.148  0.0293  0.3359 -0.0200
39752W        W48352  29.823   4.677  15.750  0.1960  0.0268 -0.0285
39753W        W48353  27.139   6.602   8.169  0.0449 -0.0912 -0.0021
39754W        W48354   6.134   5.918   0.094  0.1908 -0.0294  0.2867
39755W        W48355  23.028   6.242  11.120  0.0840  0.3360  0.0319
39756W        W48356   5.569   6.953  21.024  0.2208 -0.1030  0.0434
39757W        W48357  10.975   0.025  20.564 -0.0348 -0.1140  0.0442
39758W        W48358   9.586   2.539  24.443 -0.2615  0.0271 -0.2661
39759W        W48359  23.886   5.391   5.462  0.2636 -0.0615 -0.2746
39760W        W48360   3.112   0.661   0.143 -0.0401 -0.0542  0.1247
39761W        W48361  17.141   1.649   8.632 -0.0812 -0.1435 -0.0149
39762W        W48362  14.244   2.941  22.084  0.0282 -0.0409  0.1182
39763W        W48363  21.092   7.365   0.182 -0.1616 -0.0171 -0.0041
39764W        W48364  24.911   6.651  22.097  0.1489 -0.2091  0.0055
39765W        W48365  24.501   3.236  17.539  0.1774 -0.5105  0.0309
39766W        W48366  10.344   6.055  19.222 -0.0947 -0.3049  0.1562
39767W        W48367  27.816   0.573   3.297 -0.1921  0.0801  0.0056
39768W        W48368  16.050   2.432   0.801  0.3090 -0.1990  0.0362
39769W        W48369  25.584   0.766   3.211 -0.1983 -0.3050  0.0442
39770W        W48370   9.849   6.179   0.656  0.3033  0.1549 -0.1653
39771W        W48371  29.860   0.973  10.020 -0.1158  0.2702 -0.0739
39772W        W48372  27.836   4.737   4.551 -0.0084  0.2655  0.0223
39773W        W48373  25.565   4.362  22.418  0.0060  0.0781  0.0163
39774W        W48374  29.735   5.134   0.186  0.0754 -0.2474  0.2792
39775W        W48375  12.821   0.210  23.804  0.0911  0.2121 -0.0479
39776W        W48376   8.642   5.763  26.361 -0.2098 -0.0480  0.3590
39777W        W48377   2.810   6.279   4.247 -0.1452  0.1830  0.3095
39778W        W48378   1.293   0.008   2.920  0.1024  0.0091  0.1248
39779W        W48379   3.814   2.532  24.205  0.1277 -0.0285 -0.3058
39780W        W48380  25.978   3.475  17.229 -0.2811 -0.1065  0.0981
39781W        W48381   3.329   0.181  17.280 -0.0303 -0.1976  0.1189
39782W        W48382  14.567   5.157  10.519 -0.0208  0.0018 -0.0598
39783W        W48383   1.122   3.202   8.417 -0.1266 -0.1706 -0.1684
39784W        W48384   9.470   3.555  25.100 -0.1279  0.0270 -0.2602
39785W        W48385  23.756   4.004  18.165 -0.1576 -0.3154  0.0952
39786W        W48386   8.499   7.093   4.268 -0.3055  0.0425  0.1842
39787W        W48387  27.098   1.610  10.857  0.1976  0.1400  0.4963
39788W        W48388  10.188   4.730  23.236 -0.0534 -0.2042 -0.0040
39789W        W48389  13.058   2.082  19.079 -0.1261 -0.3420 -0.0345
39790W        W48390  18.137   3.980  22.058  0.1148  0.3438  0.4408
39791W        W48391  27.847   1.230   9.580 -0.0807 -0.2781  0.0050
39792W        W48392   5.330   3.966  20.757  0.1231  0.0411  0.4479
39793W        W48393  28.655   4.922   3.439  0.2172  0.0052 -0.1134
39794W        W48394  30.742   4.370   5.295 -0.0882 -0.0098  0.1321
39795W        W48395  25.065   0.654  19.146 -0.3515  0.2073  0.0304
39796W        W48396  21.344   6.733   0.574  0.0934  0.2058  0.4247
39797W        W48397   8.673   0.766   7.553 -0.3545  0.2664  0.0122
39798W        W48398  29.772   2.355   6.165  0.0652  0.0788  0.0559
39799W        W48399   3.014   1.406   4.907 -0.0116  0.1010  0.1761
39800W        W48400  15.609   2.619   7.327  0.0247  0.1917  0.1244
39801W        W48401  23.680   1.322  20.041  0.0831 -0.0201 -0.1044
39802W        W48402  20.408   7.573  21.318 -0.0557  0.0806  0.1038
39803W        W48403   7.692   3.423   7.552 -0.0340 -0.0287 -0.2661
39804W        W48404  21.227   2.843   1.361 -0.0715 -0.1690 -0.3032
39805W        W48405  28.185   5.580   7.930 -0.2205 -0.0700  0.0142
39806W        W48406   1.531   6.743  18.020  0.1423 -0.3167  0.1340
39807W        W48407  15.096   6.783  21.782  0.4783  0.0013  0.0847
39808W        W48408  16.162   1.065   6.884  0.2034 -0.0384  0.1440
39809W        W48409   2.995   2.868   0.848 -0.0148 -0.2246 -0.0939
39810W        W48410  12.983   0.165  24.293  0.2001 -0.1472 -0.0744
39811W        W48411  28.283   3.320   4.250 -0.4319 -0.3716  0.0259
39812W        W48412  11.039   7.696  11.190 -0.1345 -0.1061  0.0287
39813W        W48413  29.757   5.905   9.568  0.0209  0.0771  0.0205
39814W        W48414  26.924   3.306  21.591  0.0369  0.0205  0.0887
39815W        W48415  27.284   0.878  23.183  0.1580 -0.1895  0.0239
39816W        W48416  28.478   0.117   8.707 -0.2022  0.1372  0.0409
39817W        W48417  27.215   7.692   1.154 -0.1548  0.1343 -0.1875
39818W        W48418  25.019   2.230   5.702  0.0016 -0.0285 -0.1310
39819W        W48419   7.424   1.893  23.430  0.0075  0.2046  0.2033
39820W        W48420   4.929   2.685   9.876  0.1330 -0.2298 -0.0441
39821W        W48421  27.356   3.306  25.982  0.0684 -0.0919 -0.1631
39822W        W48422  30.294   5.842  19.279  0.0859 -0.0522 -0.3038
39823W        W48423  22.003   3.239   3.055  0.0692  0.2137  0.0388
39824W        W48424  29.872   6.526   4.735 -0.0255 -0.2601 -0.0933
39825W        W48425   9.855   5.102   6.240 -0.2679 -0.1360 -0.0010
39826W        W48426  27.930   7.770   5.624  0.0227 -0.0325  0.2100
39827W        W48427  11.948   5.510   4.012 -0.0512  0.2070 -0.2085
39828W        W48428   0.381   7.537  24.477 -0.2361 -0.0045 -0.1518
39829W        W48429   0.272   3.799  21.933  0.0115  0.0997  0.2696
39830W        W48430  11.530   3.129   5.943 -0.1752  0.0740 -0.1964
39831W        W48431  24.818   0.760   3.679  0.2136  0.0156 -0.0032
39832W        W48432   5.331   3.444  25.130 -0.1954  0.0805  0.3231
39833W        W48433   6.795   6.326   1.622 -0.0646 -0.3110 -0.2374
39834W        W48434  30.997   7.313  21.190 -0.2090  0.1407 -0.1551
39835W        W48435  28.948   1.749   6.653 -0.0668  0.3635  0.1685
39836W        W48436  24.373   2.966  20.771  0.1536  0.1918 -0.3261
39837W        W48437  16.515   4.678   7.592  0.3167 -0.1965  0.1491
39838W        W48438   2.722   4.381  23.076 -0.1506  0.0279 -0.1494
39839W        W48439  13.630   6.877   5.778 -0.2365 -0.1623  0.0540
39840W        W48440   6.007   7.347   3.847 -0.0964  0.0567 -0.1144
39841W        W48441  18.801   5.157   1.446  0.2127  0.0499  0.1619
39842W        W48442   8.046   0.519   2.158  0.0558  0.0796  0.1143
39843W        W48443  17.072   1.312  21.568 -0.1107  0.1036  0.1077
39844W        W48444  24.362   0.574   0.074  0.1896  0.0192 -0.1323
39845W        W48445  11.735   2.518  25.645 -0.2804 -0.0203 -0.1462
39846W        W48446  14.410   1.434  22.375 -0.0178  0.2638  0.1568
39847W        W48447  29.478   4.440  21.788  0.0471  0.0005  0.0101
39848W        W48448  26.083   1.089  16.697  0.2047  0.2849  0.0110
39849W        W48449  25.673   3.186   2.107 -0.3787  0.0703  0.3235
39850W        W48450  21.120   7.063  20.163  0.0055  0.1861 -0.1066
39851W        W48451  22.848   0.817   2.731 -0.0000  0.1705 -0.0373
39852W        W48452  22.137   4.354   1.149  0.1933  0.1482  0.2489
39853W        W48453   2.118   0.559   2.272 -0.1542 -0.0887  0.0970
39854W        W48454  26.352   2.150  11.081 -0.1445  0.1816  0.0174
39855W        W48455  23.410   3.222  19.885 -0.0034 -0.1012  0.2379
39856W        W48456  22.688   2.930  15.448  0.1386 -0.0736 -0.0809
39857W        W48457  19.282   4.731  17.000  0.1420  0.0098  0.1748
39858W        W48458  11.392   0.867   9.578 -0.4016 -0.0470  0.1429
39859W        W48459  22.884   7.472   3.570  0.1740  0.0278 -0.3499
39860W        W48460  16.141   0.558   5.799  0.2648 -0.1600  0.0388
39861W        W48461   5.529   3.718   1.141  0.0418 -0.3124 -0.0976
39862W        W48462   7.211   4.234   9.673  0.0423  0.2005  0.0593
39863W        W48463  26.381   0.454  18.460 -0.2198 -0.1847  0.0950
39864W        W48464  17.853   3.780   9.923 -0.0341  0.0418  0.2718
39865W        W48465  14.213   6.352  23.536  0.0815  0.2395  0.1932
39866W        W48466   5.357   7.678   7.526  0.1524 -0.1029 -0.3088
39867W        W48467   2.167   5.735  16.709  0.0125 -0.2156 -0.0133
39868W        W48468   3.141   0.163   9.440 -0.0145  0.0383  0.0787
39869W        W48469  26.326   1.774   5.349 -0.0545 -0.0675  0.1679
39870W        W48470  26.734   6.964  23.243  0.1925 -0.2708  0.2940
39871W        W48471  18.154   0.311   0.986  0.2030 -0.2149  0.0573
39872W        W48472  14.689   7.409  25.537  0.0464  0.1041 -0.1339
39873W        W48473  17.881   0.747   0.862  0.0438  0.0556 -0.0904
39874W        W48474   0.323   3.143   1.174 -0.1530  0.1625 -0.0195
39875W        W48475  26.451   5.918   0.534  0.1300 -0.0481 -0.0084
39876W        W48476   4.522   1.994  25.385  0.0952  0.2008 -0.1199
39877W        W48477  22.704   3.771   3.724  0.2020 -0.2884 -0.0547
39878W        W48478  14.236   3.592  10.526  0.1487 -0.3068 -0.1399
39879W        W48479  13.318   2.908   0.646  0.1121  0.1173 -0.1258
39880W        W48480   5.303   0.297  16.483 -0.0463  0.1854  0.0324
39881W        W48481  10.817   5.332  25.826 -0.2019  0.0348 -0.1693
39882W        W48482  20.219   0.240   1.136  0.1091  0.3527  0.3503
39883W        W48483  29.660   5.202  15.833 -0.4491  0.1649 -0.0245
39884W        W48484  11.569   2.871   6.706 -0.1968 -0.0230  0.0952
39885W        W48485   5.313   4.979   3.451  0.0291  0.0865 -0.0045
39886W        W48486   9.877   7.096  17.892  0.1906 -0.0087 -0.2007
39887W        W48487  12.735   2.596  16.557 -0.0152  0.2525  0.1359
39888W        W48488  26.405   0.626   4.941 -0.1759  0.0717  0.2983
39889W        W48489   7.306   2.204   9.805  0.0080 -0.0406  0.1313
39890W        W48490   8.072   7.504  18.926  0.1134 -0.0960 -0.1568
39891W        W48491   6.064   3.383   6.376  0.0440 -0.0676  0.0311
39892W        W48492  15.432   1.686  20.616 -0.0493  0.0026  0.1475
39893W        W48493   8.784   1.299  19.558 -0.0609  0.3126  0.1384
39894W        W48494   7.426   5.024  23.861 -0.2818 -0.1010  0.1720
39895W        W48495   4.261   6.807   5.129 -0.0673  0.1202  0.1190
39896W        W48496  10.366   4.908  18.575 -0.3163  0.0464  0.0771
39897W        W48497  19.640   5.580  25.252 -0.0342 -0.2678  0.1422
39898W        W48498   3.444   6.341  23.229 -0.0265  0.4118 -0.1621
39899W        W48499   4.793   2.978  24.585  0.2195  0.0833  0.0350
39900W        W48500   5.671   6.967   1.016  0.0515  0.2158  0.1352
39901W        W48501   0.321   6.356  26.041 -0.0076  0.0126  0.1016
39902W        W48502  25.101   4.078  21.624  0.0154 -0.0788  0.0139
39903W        W48503   4.195   3.623  18.197 -0.1330  0.3886 -0.2877
39904W        W48504  30.785   3.943   8.239  0.0489  0.0691 -0.0369
39905W        W48505  16.140   3.649   4.308 -0.0798  0.0371 -0.0252
39906W        W48506   1.872   2.205   2.233 -0.0598 -0.2187  0.1625
39907W        W48507   5.292   5.765   2.216  0.3031  0.1627 -0.0739
39908W        W48508  10.829   5.403  15.404  0.0590  0.0056  0.2113
39909W        W48509  21.035   7.445  23.155 -0.1771  0.1226  0.3748
39910W        W48510  30.358   2.684   1.984 -0.1482  0.2646  0.1197
39911W        W48511  12.471   5.475   9.763 -0.1174  0.2210  0.0960
39912W        W48512   3.114   7.339  17.892 -0.2316 -0.0478  0.3510
39913W        W48513  19.377   0.203   5.410  0.2617  0.1533 -0.1848
39914W        W48514  29.818   5.766   4.143  0.3309 -0.0618 -0.1051
39915W        W48515  13.435   0.286  26.069 -0.2699  0.1654  0.0324
39916W        W48516  14.300   4.155   5.184  0.3255 -0.0780  0.1419
39917W        W48517  14.653   1.838   0.340  0.1605 -0.1570  0.2102
39918W        W48518  24.265   0.334   4.493  0.0782  0.0303  0.5190
39919W        W48519  22.805   4.821   6.039 -0.0578 -0.0933  0.0419
39920W        W48520  20.125   1.039  19.541 -0.0430  0.1585 -0.0554
39921W        W48521   7.295   6.561  20.715 -0.1185  0.2888 -0.0657
39922W        W48522  11.332   3.135   7.469  0.3342 -0.0765  0.1419
39923W        W48523  12.432   6.363   9.456  0.0543 -0.3141 -0.1107
39924W        W48524   1.455   2.199  23.958 -0.0218 -0.1957 -0.1484
39925W        W48525  13.704   3.489  24.562  0.1660 -0.1528 -0.1030
39926W        W48526  21.756   2.575   5.792 -0.1227  0.2786 -0.3342
39927W        W48527  11.531   3.799  19.291  0.1770  0.1641 -0.0945
39928W        W48528  13.485   0.366   2.291 -0.4704  0.3145  0.0755
39929W        W48529  10.492   7.369  19.308 -0.1616  0.1353  0.0739
39930W        W48530  11.790   5.903   6.058  0.0968  0.0724  0.3677
39931W        W48531  22.452   3.395  17.987  0.1936 -0.1680  0.1156
39932W        W48532   0.891   5.738  17.023  0.0571  0.1930 -0.0540
39933W        W48533  30.201   3.021  19.985 -0.2415  0.4507  0.2287
39934W        W48534  15.056   2.499   8.560 -0.0840 -0.1947 -0.1459
39935W        W48535  14.239   6.151  21.201 -0.2026  0.2420  0.0856
39936W        W48536  21.912   7.389   9.323 -0.1388  0.1518 -0.1297
39937W        W48537   5.786   2.469   3.248 -0.2912 -0.0110  0.0741
39938W        W48538  18.981   6.614   8.452 -0.1916 -0.1259  0.5219
39939W        W48539  25.338   6.492  17.379 -0.0136 -0.1830 -0.0399
39940W        W48540  13.514   4.887  25.545  0.1193  0.1347  0.0626
39941W        W48541   0.799   2.634  17.899  0.2831  0.0329 -0.0071
39942W        W48542   4.737   7.798  22.368 -0.0509  0.0743  0.0988
39943W        W48543  19.139   6.842  11.086  0.2507  0.0293 -0.0245
39944W        W48544  14.674   0.139   5.365 -0.3817  0.4801 -0.0706
39945W        W48545  15.522   5.664  20.185 -0.0832 -0.0997 -0.0687
39946W        W48546   3.517   0.831  22.798  0.1829  0.0410  0.1647
39947W        W48547   5.884   0.271   3.017  0.0440 -0.2661 -0.2525
39948W        W48548  20.058   7.006  10.253 -0.1518  0.0647 -0.1849
39949W        W48549   9.089   3.252  25.404  0.1665 -0.2723  0.0730
39950W        W48550  10.132   2.576  18.905 -0.0928  0.1401 -0.0497
39951W        W48551  30.599   3.492   2.348 -0.2681  0.0753 -0.0367
39952W        W48552  20.542   4.876   0.909  0.3155  0.0279  0.1170
39953W        W48553   0.456   0.480   9.835 -0.1525  0.0507 -0.2192
39954W        W48554  24.857   2.227   9.768  0.1017 -0.0003  0.0253
39955W        W48555  23.543   3.118   7.434  0.0823 -0.0273  0.1247
39956W        W48556  20.999   4.698  19.363 -0.1745  0.1580 -0.1289
39957W        W48557  20.887   3.539   3.923 -0.0723 -0.3721 -0.2290
39958W        W48558  11.544   3.876  21.959 -0.0458  0.0884  0.0679
39959W        W48559  15.789   5.411   7.371  0.1662 -0.2160  0.1069
39960W        W48560  10.298   7.407  17.613 -0.1954 -0.2500 -0.1442
39961W        W48561  29.916   6.440   4.196  0.0480  0.4955 -0.1852
39962W        W48562   5.009   2.139   3.235 -0.0491  0.0633 -0.0951
39963W        W48563  30.699   0.874  19.746 -0.0029  0.1373 -0.0176
39964W        W48564  29.817   4.671   2.366  0.1064  0.2374  0.3983
39965W        W48565   7.709   7.099   3.123 -0.3002  0.0873  0.1837
39966W        W48566  17.331   0.853  26.361 -0.0612  0.0253  0.2594
39967W        W48567  10.761   6.944   0.012  0.1420 -0.0627 -0.1156
39968W        W48568  19.150   3.119   8.798 -0.0084 -0.2144 -0.0679
39969W        W48569  18.460   5.005  25.589 -0.0354  0.2082  0.0282
39970W        W48570  20.181   0.127   0.323 -0.0103 -0.3341 -0.1274
39971W        W48571  22.864   3.542   2.756 -0.0450 -0.0283 -0.0625
39972W        W48572   0.870   3.755  10.543 -0.0517  0.0013 -0.0609
39973W        W48573   2.876   3.474  24.719  0.1270 -0.0226  0.0149
39974W        W48574  14.999   6.724   6.002  0.0594 -0.1186 -0.0787
39975W        W48575   8.810   4.076   0.970  0.0685 -0.2772 -0.0844
39976W        W48576  29.294   2.820  22.318  0.0572  0.1193  0.2570
39977W        W48577  22.070   6.553   3.929 -0.0443 -0.1525 -0.2956
39978W        W48578   6.936   5.790  10.037  0.1394  0.1691 -0.1318
39979W        W48579  14.171   3.746   5.564  0.1128 -0.0145  0.2821
39980W        W48580   3.052   6.612  15.555 -0.0906  0.1818 -0.1195
39981W        W48581  16.297   4.178  21.443 -0.2868  0.2162 -0.0471
39982W        W48582  14.244   7.240  25.410  0.0197  0.1895 -0.2115
39983W        W48583  16.599   5.764  17.518 -0.3081  0.3021  0.0202
39984W        W48584  23.540   6.641  21.539  0.0228 -0.2478 -0.0980
39985W        W48585  27.809   7.180   7.897  0.1249  0.1636  0.3177
39986W        W48586  12.345   5.927   0.270  0.5596  0.0348 -0.3907
39987W        W48587   4.070   6.262  18.898 -0.1273  0.0828 -0.0445
39988W        W48588  24.045   3.572  10.813  0.0538  0.0084 -0.0199
39989W        W48589  27.892   2.410   4.298  0.0937  0.1205 -0.0169
39990W        W48590   0.537   4.105   1.039 -0.1093  0.0396  0.0447
39991W        W48591  18.513   7.479  24.498 -0.0333  0.1594  0.0962
39992W        W48592  11.506   4.744  19.640 -0.1160  0.0817 -0.2231
39993W        W48593  25.780   3.080   2.943 -0.0043 -0.2182 -0.0078
39994W        W48594   7.681   2.257   4.532  0.0411 -0.3485  0.0511
39995W        W48595   4.866   0.848  10.844  0.0619 -0.0382  0.0669
39996W        W48596   8.638   1.646  19.230  0.2352 -0.0648  0.0783
39997W        W48597   6.190   5.046   3.024  0.0113 -0.1902  0.0496
39998W        W48598   0.602   1.856   1.885  0.3914 -0.2935 -0.0900
39999W        W48599   3.977   2.722  22.115  0.0356 -0.0934  0.1865
40000W        W48600  24.494   0.624   2.692  0.2826  0.1399  0.1007
40001W        W48601  15.591   5.825   7.620 -0.2004 -0.0662 -0.4745
40002W        W48602  29.846   6.190   7.006  0.3026  0.0166 -0.1206
40003W        W48603   5.240   1.752  16.208  0.0870 -0.0474  0.1647
40004W        W48604  20.749   4.360  24.260  0.6267 -0.2378 -0.2478
40005W        W48605  27.925   4.949   9.472 -0.4299  0.0013 -0.0406
40006W        W48606  19.412   3.264  20.524 -0.0946 -0.3276  0.4150
40007W        W48607   6.870   7.722  24.755 -0.3120 -0.1434  0.1463
40008W        W48608  22.391   3.693   3.108  0.1110 -0.2363  0.0814
40009W        W48609   2.237   3.705   7.523  0.0273 -0.1143  0.1920
40010W        W48610   8.053   5.639  23.498 -0.0475 -0.1037  0.0357
40011W        W48611  16.122   2.319   8.398  0.0541  0.0714 -0.1122
40012W        W48612  24.963   3.153  17.051  0.0718  0.0710  0.2973
40013W        W48613  10.347   1.075   4.494 -0.1712  0.0752 -0.2315
40014W        W48614  18.740   7.755   6.767 -0.0313 -0.2141  0.2313
40015W        W48615  10.821   4.831  18.875 -0.3836 -0.0828  0.0298
40016W        W48616  20.684   3.464   0.942  0.1440 -0.0913  0.3106
40017W        W48617  18.149   1.104  11.076  0.1133  0.0482 -0.3959
40018W        W48618  24.320   7.786   3.199  0.2915 -0.1614 -0.1139
40019W        W48619  23.435   1.154  10.346  0.2810 -0.0410 -0.2786
40020W        W48620   9.610   2.412  23.405  0.0726 -0.2568  0.0206
40021W        W48621  21.187   3.391  16.990  0.0856  0.0413 -0.1506
40022W        W48622  26.711   3.845   3.124 -0.0349 -0.0081  0.0511
40023W        W48623   3.049   1.775   6.789  0.3356 -0.1499  0.1565
40024W        W48624  22.750   0.944  18.998  0.1595  0.3069  0.0503
40025W        W48625  25.534   1.319   0.357  0.3579 -0.0529 -0.1225
40026W        W48626  23.713   1.462  16.622 -0.1348 -0.0485  0.0924
40027W        W48627   4.325   2.645   9.837  0.3225  0.2152 -0.1371
40028W        W48628   3.600   5.225   8.268 -0.0848 -0.0814 -0.2416
40029W        W48629   4.396   4.290  16.037  0.2300  0.1266 -0.1394
40030W        W48630  19.434   0.257   7.427  0.0584 -0.2409  0.1456
40031W        W48631  14.095   5.454  25.521  0.2231  0.1656  0.0366
40032W        W48632  18.464   3.982  21.697 -0.2387  0.2049  0.1258
40033W        W48633  10.751   0.392   4.576 -0.1524  0.1582 -0.3015
40034W        W48634  22.986   2.799  19.450  0.0011 -0.3903  0.1011
40035W        W48635  30.953   7.420   3.507 -0.0558 -0.0963 -0.0917
40036W        W48636  12.373   2.397  19.564 -0.2011 -0.0480  0.2976
40037W        W48637   9.859   2.650  10.450 -0.2935  0.2947 -0.0456
40038W        W48638  27.536   2.244   7.488 -0.0136  0.1825  0.1430
40039W        W48639  27.632   5.535   6.203  0.0355 -0.1141 -0.0119
40040W        W48640  23.490   6.490  16.569 -0.0100 -0.2211 -0.0682
40041W        W48641  13.446   1.755   2.978 -0.2822 -0.3809  0.1007
40042W        W48642  14.507   3.663   1.024 -0.5786  0.1880 -0.3556
40043W        W48643  22.846   3.833   9.731 -0.1177  0.0129  0.1862
40044W        W48644  14.425   3.027   6.919 -0.1627 -0.1478 -0.2531
40045W        W48645   3.654   0.030   2.520 -0.1816 -0.0347 -0.0256
40046W        W48646  28.944   3.073  23.054 -0.2947  0.0530  0.2426
40047W        W48647  24.012   5.893   6.153  0.0331 -0.1816 -0.1562
40048W        W48648  12.073   4.037   9.783  0.4411  0.0673 -0.3478
40049W        W48649  11.512   6.216   0.078  0.1859 -0.0831 -0.0651
40050W        W48650  13.880   4.643   0.975  0.4144 -0.1619  0.2859
40051W        W48651  13.403   6.940  25.725 -0.2268  0.1017  0.2140
40052W        W48652  14.122   6.553   2.748 -0.0575  0.0925  0.1310
40053W        W48653   2.315   1.476   9.141 -0.3329  0.2927 -0.0661
40054W        W48654  16.777   4.621   3.294  0.1597  0.0505  0.0803
40055W        W48655  19.450   5.934   9.528  0.2353 -0.1503  0.1162
40056W        W48656   8.499   0.880  23.016  0.1358 -0.1624  0.1871
40057W        W48657  18.877   3.300   3.083  0.0968 -0.1421  0.1349
40058W        W48658  18.942   3.997  23.721  0.1057 -0.1982 -0.0610
40059W        W48659   1.847   5.822  25.324  0.0981  0.1038  0.0846
40060W        W48660  28.819   0.065   4.280  0.2073 -0.1535 -0.2285
40061W        W48661  25.430   6.242  22.161 -0.1588  0.2552 -0.1121
40062W        W48662   5.058   2.932  15.222 -0.0978  0.1495 -0.1674
40063W        W48663   0.669   0.136  11.178 -0.0970  0.1588  0.0104
40064W        W48664  13.738   1.110   6.760 -0.0828  0.0206  0.2011
40065W        W48665   7.121   3.693   3.797  0.0754 -0.4044  0.1684
40066W        W48666   0.234   5.882  15.633  0.0891 -0.1229 -0.0290
40067W        W48667   0.979   0.685  19.873  0.2065  0.1309 -0.1641
40068W        W48668  23.279   1.447   4.208  0.1165  0.0459  0.0813
40069W        W48669  29.159   6.234   6.330  0.0186  0.0089  0.2132
40070W        W48670   9.804   5.324   3.033 -0.2121  0.0870 -0.0209
40071W        W48671  16.803   7.272   5.301  0.0097 -0.2042 -0.2924
40072W        W48672  26.000   1.067  18.623 -0.1731  0.0886 -0.3269
40073W        W48673   7.399   2.371  22.528  0.0398 -0.1016  0.0033
40074W        W48674   5.880   3.747  20.155 -0.1464 -0.2322 -0.0526
40075W        W48675  19.219   3.315   6.795 -0.1178  0.3364  0.1798
40076W        W48676  20.585   5.557   2.907 -0.0862  0.0415  0.0744
40077W        W48677  18.543   3.054  23.862  0.0341  0.0100 -0.1572
40078W        W48678  25.913   2.473  22.160  0.1265 -0.0928 -0.2760
40079W        W48679   6.831   0.262   4.139  0.0367 -0.3995 -0.1211
40080W        W48680  16.252   1.708   8.718 -0.1053  0.0514 -0.2614
40081W        W48681  22.428   1.903   4.667 -0.0075  0.0896 -0.0594
40082W        W48682   7.885   3.472   4.972 -0.1877 -0.2681 -0.2621
40083W        W48683  15.347   1.771   6.540  0.0346  0.0673  0.0423
40084W        W48684   8.866   3.061  18.976 -0.3510 -0.4127 -0.0094
40085W        W48685  17.965   3.161  15.010  0.4242 -0.0748  0.2600
40086W        W48686  28.647   5.958   0.041 -0.0937 -0.0904 -0.0008
40087W        W48687  29.012   3.835   4.691  0.1924 -0.2144 -0.0667
40088W        W48688  19.372   3.686  19.389  0.2971 -0.0969 -0.0633
40089W        W48689  15.392   5.089   8.668 -0.0552  0.1180  0.0153
40090W        W48690   5.290   2.861  22.445  0.0406 -0.0203 -0.1251
40091W        W48691  13.463   7.258   0.610 -0.0019  0.0249  0.0537
40092W        W48692  26.349   4.224  21.034  0.1466  0.1808 -0.0631
40093W        W48693  30.722   3.084  16.370 -0.1063 -0.0283 -0.0112
40094W        W48694   9.607   1.154  17.499  0.1050  0.4974 -0.0517
40095W        W48695  26.278   3.032   7.173  0.1733  0.1649 -0.3323
40096W        W48696   6.678   3.491   4.005 -0.0911  0.0663 -0.1692
40097W        W48697   0.830   5.888  11.095  0.2126  0.5239  0.2405
40098W        W48698  10.582   6.240  15.066 -0.1313 -0.0954 -0.4145
40099W        W48699  24.253   5.628   3.575  0.0258  0.1339  0.0815
40100W        W48700  29.246   0.763   1.645 -0.1221 -0.0562 -0.2155
40101W        W48701  30.080   0.100  18.675  0.3981  0.2125  0.0591
40102W        W48702   6.360   1.398  22.833 -0.0273 -0.0464  0.0967
40103W        W48703  21.355   7.373   3.335 -0.1314  0.1474 -0.0466
40104W        W48704  20.201   2.692   3.225  0.2409 -0.0928  0.0682
40105W        W48705  26.823   6.534  16.380 -0.1676 -0.1718 -0.2227
40106W        W48706  27.825   2.040   3.937 -0.0075  0.0122  0.3168
40107W        W48707   5.575   5.817  10.753  0.2169 -0.0823 -0.1108
40108W        W48708  24.397   7.795   5.483  0.1474  0.0691 -0.0686
40109W        W48709  12.974   2.344  11.146  0.1846  0.0608  0.3354
40110W        W48710   5.382   6.778  26.381  0.0676  0.1891 -0.1224
40111W        W48711   0.499   4.221   1.887  0.2682  0.0796  0.2690
40112W        W48712  17.072   0.547   1.770 -0.1922  0.1643 -0.3824
40113W        W48713  22.785   2.106  23.012 -0.0874 -0.0240  0.0062
40114W        W48714  30.568   7.286  19.856 -0.1097 -0.1039  0.2999
40115W        W48715   4.113   2.621   7.641  0.0346  0.4096  0.2716
40116W        W48716   1.382   6.898  17.402  0.0060  0.1343 -0.1041
40117W        W48717  30.598   0.249  16.827  0.4239 -0.1913 -0.3370
40118W        W48718  18.420   2.195   1.198  0.0179 -0.1427  0.1176
40119W        W48719  12.393   1.043   6.958 -0.0103  0.1183  0.2960
40120W        W48720  29.144   5.040  10.992 -0.0890  0.0068  0.0327
40121W        W48721   8.082   3.155   0.223 -0.0746  0.0518 -0.3299
40122W        W48722   1.279   5.338   2.195 -0.1865 -0.3561 -0.1525
40123W        W48723  12.366   5.210  18.566  0.2590  0.1410 -0.3258
40124W        W48724  13.936   5.295  22.292  0.0125  0.1218 -0.1279
40125W        W48725   3.530   3.218   0.168  0.0627 -0.0563  0.2534
40126W        W48726  30.748   7.428   2.030 -0.0045 -0.2431 -0.0173
40127W        W48727   1.357   0.944  10.576 -0.3980  0.2520  0.2442
40128W        W48728  16.218   3.305  22.634 -0.0246 -0.1044 -0.0835
40129W        W48729  16.813   4.837  21.786  0.4059 -0.0974 -0.1713
40130W        W48730  30.723   3.768  22.636  0.0515  0.2726 -0.1681
40131W        W48731  15.717   0.947   8.788 -0.3107  0.0286  0.1167
40132W        W48732  27.715   4.617   8.939 -0.0647 -0.0147  0.1880
40133W        W48733  17.374   7.794   9.475 -0.1681 -0.0426 -0.3631
40134W        W48734  21.110   2.700   2.981 -0.0728  0.0617 -0.0521
40135W        W48735  19.491   2.142  17.585  0.0245 -0.1438  0.0066
40136W        W48736   1.487   3.386   4.684 -0.3205  0.0421 -0.3082
40137W        W48737  23.973   0.488   9.582  0.4425 -0.1816  0.0823
40138W        W48738  25.529   6.758   4.032 -0.5474  0.2665 -0.0289
40139W        W48739   8.905   5.100  17.951  0.1268  0.3622 -0.0926
40140W        W48740  31.013   5.496  23.561  0.1965 -0.0162  0.2102
40141W        W48741  18.754   3.719  15.154 -0.0279 -0.0055  0.2655
40142W        W48742   6.908   6.067  20.585  0.2066 -0.0347 -0.1148
40143W        W48743  30.089   3.275  26.093 -0.0401 -0.0122  0.2054
40144W        W48744   9.134   6.189  25.188  0.4818  0.2262  0.0058
40145W        W48745   5.312   7.708  25.093 -0.0578  0.1244  0.0604
40146W        W48746  19.824   7.203  25.802  0.0698 -0.1882 -0.0458
40147W        W48747  28.269   1.978   9.595  0.3068  0.0177  0.0429
40148W        W48748  18.582   1.264  16.284  0.2189 -0.2342 -0.1322
40149W        W48749   9.553   3.284   9.875 -0.3156 -0.0735  0.0800
40150W        W48750  21.070   2.556   9.742 -0.1833  0.2130  0.2763
40151W        W48751  25.668   0.670   0.552  0.0931  0.0489  0.1278
40152W        W48752  23.115   6.847  21.734  0.2326 -0.0073 -0.0314
40153W        W48753  12.380   4.940   3.430 -0.0835  0.2465 -0.3756
40154W        W48754  22.170   3.905   6.401  0.0823 -0.2017 -0.1434
40155W        W48755  13.373   2.549   8.861 -0.0579  0.1036 -0.0825
40156W        W48756  13.174   4.510   7.685 -0.1551  0.3981  0.1047
40157W        W48757  18.932   0.908   4.591 -0.1351 -0.0369  0.0111
40158W        W48758   6.581   6.342   2.499 -0.1101 -0.1676 -0.1414
40159W        W48759  16.225   5.768   5.731 -0.0167 -0.1015  0.0581
40160W        W48760  16.105   0.686   0.024  0.0396  0.1409 -0.2322
40161W        W48761  10.817   0.212  23.321  0.1405 -0.1435  0.2333
40162W        W48762   0.372   2.129   1.524  0.2213  0.1547 -0.0496
40163W        W48763   2.376   1.080   3.517  0.3668  0.0181 -0.1335
40164W        W48764  24.199   1.751  18.712  0.1337 -0.3344 -0.2455
40165W        W48765  19.609   5.035  21.908  0.0010 -0.0848 -0.0249
40166W        W48766   2.152   3.686   3.387 -0.1261  0.0508 -0.1761
40167W        W48767  20.214   6.383   1.929 -0.3127  0.0208 -0.3310
40168W        W48768  12.464   0.466   3.138  0.0125 -0.1826  0.2516
40169W        W48769  30.649   5.985  15.382  0.0459  0.0927 -0.4485
40170W        W48770   8.640   5.483  16.510 -0.2597  0.0036 -0.0216
40171W        W48771  30.305   0.397   5.490 -0.0457 -0.0335  0.0839
40172W        W48772  22.003   0.758   6.462  0.0566 -0.0763  0.1106
40173W        W48773  28.995   3.293  15.745 -0.0045 -0.0722 -0.1823
40174W        W48774  30.991   0.951  10.195  0.0546 -0.1509 -0.0827
40175W        W48775   0.358   1.928   4.225  0.1145 -0.0248 -0.2508
40176W        W48776  30.548   3.276   7.705 -0.1092 -0.0803  0.0903
40177W        W48777  28.156   7.702   2.701 -0.0808 -0.0801  0.0418
40178W        W48778   3.407   5.273   1.611  0.1009  0.1434 -0.0056
40179W        W48779  15.245   6.810   9.667  0.1153  0.1588  0.1447
40180W        W48780  13.331   4.615   6.028  0.1706 -0.2826 -0.0468
40181W        W48781  30.035   5.054   0.542 -0.1879  0.0056 -0.0522
40182W        W48782   5.508   6.503   7.401  0.0066 -0.0819 -0.1189
40183W        W48783  10.352   4.456  25.803 -0.0201 -0.2878 -0.1223
40184W        W48784   4.138   7.008   6.486  0.0292 -0.3996  0.0939
40185W        W48785   6.978   2.659   4.106 -0.2469  0.1053 -0.1410
40186W        W48786  24.823   7.248  17.349 -0.0792 -0.0896 -0.2084
40187W        W48787   1.016   4.623  21.963  0.1847  0.2449  0.1640
40188W        W48788  15.045   4.399  25.583 -0.1136  0.3441  0.3559
40189W        W48789   7.804   3.009  22.125 -0.0411 -0.2019  0.0247
40190W        W48790   7.980   3.386   3.499 -0.2061 -0.1253 -0.2597
40191W        W48791   5.782   4.694  19.623 -0.0520  0.0311  0.3376
40192W        W48792   7.020   2.672  22.637 -0.2638 -0.1206  0.0567
40193W        W48793   2.981   2.451  16.100 -0.0808  0.1098 -0.0331
40194W        W48794  25.165   2.263   5.004 -0.2029 -0.3314 -0.0936
40195W        W48795   4.976   0.681   8.609  0.2104  0.0042  0.0060
40196W        W48796  10.767   3.466  17.847 -0.1746  0.0915 -0.0433
40197W        W48797  17.315   4.553   5.134 -0.1737  0.2286 -0.0467
40198W        W48798  18.275   1.729  18.189 -0.1632  0.0650  0.0195
40199W        W48799   5.555   0.266   5.566  0.3917 -0.0908  0.0412
40200W        W48800  30.965   0.853   3.735  0.1359  0.0239 -0.0090
40201W        W48801  20.407   1.461  21.275  0.1193 -0.1394 -0.2092
40202W        W48802   6.345   1.183   2.544 -0.0861 -0.3000  0.1108
40203W        W48803  13.963   6.281   8.468  0.0123 -0.0354 -0.2085
40204W        W48804   6.431   3.668   3.109  0.2744 -0.0704  0.1995
40205W        W48805   7.954   4.241   5.393  0.1899  0.1335  0.2284
40206W        W48806  21.735   0.043   3.200 -0.0069  0.3411 -0.0164
40207W        W48807  21.401   6.961  25.866 -0.2438 -0.0144 -0.1183
40208W        W48808  15.523   1.882  21.613  0.0184 -0.0562  0.1629
40209W        W48809   4.791   1.711  20.217 -0.0875 -0.1980  0.1484
40210W        W48810  20.673   7.574   7.812 -0.1579 -0.0003 -0.2115
40211W        W48811   0.316   5.898   7.579  0.0301  0.0503  0.2549
40212W        W48812  24.523   7.199  24.244 -0.0851 -0.2332 -0.0278
40213W        W48813  30.253   3.612   9.031  0.0160  0.0675  0.2715
40214W        W48814   1.493   0.799   1.557 -0.0005  0.2457 -0.1372
40215W        W48815  15.246   7.199   5.020 -0.1392 -0.0337 -0.0732
40216W        W48816  15.072   1.260  22.334 -0.2008 -0.0785  0.3779
40217W        W48817  22.543   3.716  19.417 -0.3872  0.0073 -0.3375
40218W        W48818  18.782   0.420  22.578 -0.3266 -0.2066 -0.2147
40219W        W48819  27.323   6.784  21.464  0.1524 -0.0526  0.0058
40220W        W48820   6.994   5.297   0.177 -0.1687 -0.0705 -0.2718
40221W        W48821  14.463   4.909   4.168 -0.2390 -0.1024 -0.0192
40222W        W48822  15.370   4.092   7.173  0.0765 -0.0148  0.1925
40223W        W48823  21.966   5.183  17.755 -0.3554  0.3093  0.1655
40224W        W48824  30.568   7.065   3.573 -0.0709 -0.0144  0.1624
40225W        W48825  24.024   2.076  22.981  0.1156 -0.3234 -0.1122
40226W        W48826  13.418   2.740   6.177  0.2156 -0.1324 -0.0852
40227W        W48827  27.003   0.145  16.206  0.2395 -0.1421  0.0396
40228W        W48828  27.890   4.122  11.557 -0.0110 -0.0394  0.3370
40229W        W48829  28.227   5.698  10.048 -0.0841 -0.0171  0.1663
40230W        W48830  29.706   7.568  26.299  0.0362  0.2572  0.0870
40231W        W48831  11.743   0.346  24.302  0.0950  0.0336 -0.1317
40232W        W48832  17.309   4.883  22.566 -0.2595 -0.0796 -0.1976
40233W        W48833   8.844   2.199  18.615 -0.0543 -0.0055  0.0937
40234W        W48834  27.712   5.603  20.596  0.0892  0.3099  0.3431
40235W        W48835  28.436   6.652  16.432  0.0327 -0.1823 -0.1220
40236W        W48836  16.317   5.018  19.673  0.3671 -0.1516  0.1169
40237W        W48837  22.385   4.546   8.990 -0.1716  0.0456 -0.0500
40238W        W48838  17.164   3.371   6.759 -0.0738  0.1491 -0.0265
40239W        W48839  22.310   7.026  16.641 -0.5414 -0.0373  0.1216
40240W        W48840  16.323   5.882  23.071  0.0166 -0.0513 -0.1443
40241W        W48841   5.687   4.774  24.949  0.0726 -0.0888  0.2389
40242W        W48842  11.342   6.369   0.618  0.0389 -0.0384 -0.1573
40243W        W48843  18.898   5.322   5.657 -0.0181  0.0835  0.1297
40244W        W48844  14.004   6.857  19.448 -0.0140  0.0769  0.0097
40245W        W48845  10.676   1.397  22.356 -0.1198 -0.0953 -0.1820
40246W        W48846  25.974   1.000   5.558 -0.0147 -0.0734 -0.0449
40247W        W48847   2.187   1.715  22.889  0.1830 -0.0412 -0.2502
40248W        W48848  15.078   0.944  23.255  0.1883  0.0303 -0.0683
40249W        W48849   7.712   5.878  23.184 -0.1770 -0.1510  0.1275
40250W        W48850  29.835   5.813   2.436  0.0801  0.1535 -0.1333
40251W        W48851  29.103   5.582   3.428 -0.1735  0.0203 -0.0625
40252W        W48852  24.886   0.417  17.289  0.1520  0.2684  0.2117
40253W        W48853  25.230   2.243  24.032 -0.3068 -0.0706  0.1030
40254W        W48854  13.080   0.661  18.214 -0.1374  0.0866  0.3572
40255W        W48855   5.270   7.076   0.771 -0.1369 -0.1765 -0.0165
40256W        W48856  20.546   5.315   3.442  0.1087 -0.2911 -0.0265
40257W        W48857  14.264   0.952  16.643 -0.1486 -0.1462 -0.2013
40258W        W48858   4.899   3.799  23.820  0.3704 -0.3548  0.1146
40259W        W48859   9.651   0.825   6.428  0.0329  0.1595  0.1411
40260W        W48860   1.252   6.397  17.724 -0.0929 -0.0891 -0.1775
40261W        W48861  18.259   3.383  15.520  0.0821 -0.1416  0.1056
40262W        W48862   9.561   3.881  22.610  0.1128 -0.0050  0.0550
40263W        W48863  10.702   3.599   1.487  0.1493 -0.1680 -0.1858
40264W        W48864  27.352   3.745   1.861  0.3869  0.4073  0.0596
40265W        W48865   4.064   0.470  22.282  0.1775 -0.2212  0.2448
40266W        W48866  12.687   4.920  17.054 -0.0374  0.1741  0.1341
40267W        W48867  17.899   2.608   8.861 -0.1946  0.0152 -0.1069
40268W        W48868   0.342   7.732   6.353 -0.0546  0.1640 -0.2045
40269W        W48869  27.007   6.538  21.117  0.2917 -0.1033  0.0398
40270W        W48870  16.874   3.519  16.028  0.0976 -0.0149 -0.0207
40271W        W48871  15.991   1.043   3.189 -0.0895  0.0817 -0.1650
40272W        W48872  29.114   7.219  21.064 -0.0762  0.2725  0.0744
40273W        W48873  22.499   6.615   0.779 -0.3518  0.1274  0.1516
40274W        W48874   2.929   3.278  19.936 -0.0325 -0.1897  0.2157
40275W        W48875  13.951   7.000  15.627 -0.1071 -0.0794  0.3405
40276W        W48876   1.183   1.218   0.042 -0.0091  0.1516  0.0291
40277W        W48877   1.491   7.050   8.464  0.0056 -0.0448 -0.1565
40278W        W48878  20.031   6.981   8.362  0.0157 -0.0855 -0.0793
40279W        W48879  11.868   5.986  21.719  0.1795 -0.0951  0.1811
40280W        W48880  21.431   5.428  26.289  0.2946 -0.2005  0.0789
40281W        W48881   6.669   2.980  10.669  0.1445 -0.1221  0.2283
40282W        W48882   0.927   2.484  19.995 -0.1720 -0.1708 -0.0829
40283W        W48883  30.454   3.105  23.242 -0.3102 -0.0157 -0.0299
40284W        W48884  22.331   7.407  21.746  0.2472 -0.1738  0.0513
40285W        W48885   6.297   1.311  24.298 -0.0870 -0.1210 -0.0426
40286W        W48886  14.969   1.501  20.525  0.0911 -0.1349 -0.1491
40287W        W48887  26.165   1.763   3.313  0.0744  0.4013  0.2948
40288W        W48888   9.505   0.747  20.753  0.0432  0.1254  0.0966
40289W        W48889  25.140   0.413  24.717 -0.2078 -0.4947  0.0720
40290W        W48890   8.162   4.091   8.712 -0.3807  0.0222  0.1338
40291W        W48891  15.212   4.357   0.812 -0.2467  0.1399  0.3691
40292W        W48892  30.916   4.130   4.687 -0.0505  0.1996  0.0866
40293W        W48893  18.170   4.140  16.284 -0.1377 -0.2485 -0.3554
40294W        W48894  19.874   1.050   8.919 -0.0101 -0.2543 -0.0305
40295W        W48895  28.233   5.387   1.459  0.0096 -0.1496  0.2932
40296W        W48896   6.437   1.570  18.808  0.1025  0.0436  0.4100
40297W        W48897   3.804   4.093  17.576  0.0223 -0.1943 -0.0257
40298W        W48898  10.123   0.996   6.507  0.1158  0.0264 -0.0660
40299W        W48899  24.148   4.027   2.755 -0.3076 -0.2724  0.0113
40300W        W48900   9.215   2.060   4.604 -0.0076 -0.0383  0.1688
40301W        W48901  28.433   6.421  26.145 -0.2051 -0.1122 -0.0595
40302W        W48902  20.908   4.158  18.500 -0.1377 -0.0157 -0.3342
40303W        W48903  13.750   4.727   5.721 -0.0292 -0.0011  0.6530
40304W        W48904  13.299   4.176  24.026 -0.3346  0.0590  0.2855
40305W        W48905  23.428   2.065  16.607  0.1880  0.4755  0.1153
40306W        W48906  22.939   3.803  25.643  0.0783  0.2142  0.2392
40307W        W48907  20.479   1.592   2.856  0.1365  0.1236 -0.0028
40308W        W48908  31.096   4.128  26.269 -0.5634 -0.0875 -0.1180
40309W        W48909  11.801   3.705   0.752  0.0606 -0.0993  0.0886
40310W        W48910   7.937   1.490   5.351 -0.0025  0.1212  0.1214
40311W        W48911   2.517   4.026   3.568  0.0512  0.2740 -0.1919
40312W        W48912  11.506   1.718  24.111 -0.4132 -0.3331 -0.0165
40313W        W48913   5.244   6.286   2.242 -0.0672 -0.1762  0.0995
40314W        W48914   7.690   0.405   9.739  0.1721 -0.1873  0.3125
40315W        W48915  18.043   5.119  20.723  0.0561 -0.0789  0.1063
40316W        W48916  11.357   4.395  16.819  0.0102  0.2031  0.2015
40317W        W48917   9.135   4.366   0.238 -0.1337 -0.1288 -0.1049
40318W        W48918  19.684   3.113   8.920  0.0559  0.0130  0.4407
40319W        W48919  31.031   5.662  20.491  0.0200 -0.0696  0.3958
40320W        W48920   6.764   5.636   7.384 -0.0386 -0.0193 -0.0796
40321W        W48921  13.491   1.340  26.263  0.0548 -0.2228 -0.1082
40322W        W48922  23.472   2.406  21.600  0.2554  0.2717  0.0386
40323W        W48923   8.524   0.160  10.665 -0.0317 -0.0383 -0.1806
40324W        W48924   6.332   1.670  10.151 -0.1307 -0.0840 -0.2199
40325W        W48925   0.306   6.535  18.165 -0.0221 -0.1086 -0.0012
40326W        W48926  26.433   4.243  23.423  0.1109 -0.2884  0.1389
40327W        W48927  17.391   3.518  19.262 -0.1162  0.0196 -0.3064
40328W        W48928  25.631   1.867   7.297  0.0876 -0.0215  0.0973
40329W        W48929  29.975   0.111   5.829  0.2052 -0.2282  0.2830
40330W        W48930   2.372   4.694  16.036 -0.0752 -0.1541  0.0746
40331W        W48931  14.888   6.965  23.437 -0.0000  0.0921 -0.0966
40332W        W48932  24.173   4.266  16.657 -0.0430 -0.0592 -0.4637
40333W        W48933  22.201   7.146   7.038 -0.0647  0.1130 -0.1511
40334W        W48934  22.924   5.964  23.263 -0.3060  0.0578 -0.0673
40335W        W48935  12.527   6.217  10.336 -0.3789  0.1206  0.1965
40336W        W48936   4.561   1.528  18.316  0.1362 -0.0024 -0.5154
40337W        W48937  10.406   4.540  18.883 -0.3301 -0.0191 -0.0942
40338W        W48938  22.345   2.999   3.416 -0.0114  0.0492 -0.1277
40339W        W48939   0.509   5.550  15.898  0.0078 -0.2102 -0.3667
40340W        W48940   1.607   4.405  19.090 -0.2819 -0.1461  0.0077
40341W        W48941   9.544   2.814  17.399 -0.1864  0.1853 -0.1060
40342W        W48942  21.811   7.036  16.586 -0.0083 -0.2995 -0.0654
40343W        W48943  26.581   6.360  22.054 -0.0192 -0.2563 -0.3206
40344W        W48944  15.610   1.162  10.286 -0.2266 -0.1124 -0.0224
40345W        W48945  18.810   4.267   9.741 -0.0163 -0.1572 -0.1552
40346W        W48946  13.839   3.349   1.880  0.2096 -0.1157 -0.0767
40347W        W48947  10.849   2.331   9.364 -0.3741 -0.0474  0.1868
40348W        W48948   0.053   5.988  22.128 -0.0874  0.1404  0.0300
40349W        W48949  24.278   6.104   7.629 -0.1006  0.2916 -0.1553
40350W        W48950   5.641   5.635   0.518  0.2086 -0.1899  0.0702
40351W        W48951  20.397   1.294  19.157  0.0222  0.0571 -0.1009
40352W        W48952  16.008   5.775   5.033 -0.2035 -0.0158  0.0188
40353W        W48953  13.581   4.360  23.639  0.0742 -0.2082  0.1056
40354W        W48954  14.431   4.152   1.076 -0.0103  0.1287  0.1897
40355W        W48955  10.867   0.745  21.161  0.1196  0.0897 -0.0129
40356W        W48956   1.658   7.367   1.408 -0.0414 -0.3526 -0.3483
40357W        W48957  14.354   4.949  19.674  0.1535  0.1665  0.0224
40358W        W48958   4.173   5.571   8.819  0.0290  0.0348 -0.0307
40359W        W48959   6.299   1.858   1.796 -0.1800  0.0632  0.0575
40360W        W48960  28.192   4.952   3.722 -0.1456 -0.0233  0.1103
40361W        W48961  27.675   6.753  24.694  0.2070  0.1193 -0.0516
40362W        W48962  22.234   7.380  15.628  0.2036  0.3625 -0.0696
40363W        W48963  27.966   7.632  18.023  0.1788  0.0077  0.2280
40364W        W48964  26.953   7.228   7.410  0.1123  0.2201  0.1296
40365W        W48965  27.886   7.476   8.892  0.0218 -0.1491 -0.0951
40366W        W48966  19.875   4.794  17.429  0.4286  0.3102 -0.0167
40367W        W48967  27.198   1.680  18.654  0.2993 -0.4493  0.0286
40368W        W48968  17.448   2.599   5.547 -0.1968  0.0929  0.1154
40369W        W48969  19.475   0.127   1.812 -0.1498  0.1618  0.1454
40370W        W48970  14.360   2.057   1.603  0.1322 -0.0391 -0.0154
40371W        W48971  18.462   6.495  21.666  0.0769  0.1039  0.0880
40372W        W48972   8.881   2.876  21.245  0.1799  0.0374  0.1608
40373W        W48973  12.930   5.332   9.546 -0.1646 -0.1534 -0.2815
40374W        W48974  25.883   4.315  17.307  0.1240  0.2125  0.2274
40375W        W48975   0.040   3.022   8.887 -0.0124 -0.2911 -0.0806
40376W        W48976  30.444   0.332   3.288 -0.1477  0.2908 -0.2524
40377W        W48977  16.058   5.252   4.832  0.0648 -0.0407 -0.1354
40378W        W48978   7.111   1.390   3.436  0.4430  0.1551  0.0823
40379W        W48979   7.881   2.622  25.827  0.0636  0.1885 -0.0704
40380W        W48980   2.609   2.416  19.343 -0.1741 -0.3032  0.0088
40381W        W48981   3.103   7.218  20.712  0.0634 -0.2219  0.0970
40382W        W48982  18.811   4.813   1.005 -0.2190  0.0296  0.0242
40383W        W48983  30.335   4.510  20.727 -0.0443 -0.2684 -0.1099
40384W        W48984  27.985   7.732   2.207 -0.1987 -0.0255 -0.0107
40385W        W48985  24.103   6.928   5.115 -0.1035  0.1953 -0.1945
40386W        W48986  22.864   3.513   5.241 -0.0832  0.2124  0.1761
40387W        W48987   9.626   5.591   2.119  0.0001 -0.2473 -0.1454
40388W        W48988  18.497   3.637  22.947  0.1064 -0.0687 -0.0770
40389W        W48989  23.493   5.907   6.776  0.1477  0.1606  0.0970
40390W        W48990   2.311   5.887  17.999  0.1629 -0.0816 -0.1613
40391W        W48991   5.435   0.039  16.910  0.0029 -0.1433 -0.1869
40392W        W48992  16.150   2.455  19.802 -0.1419 -0.0240  0.0337
40393W        W48993   2.861   4.753  19.529 -0.2354  0.1828  0.1466
40394W        W48994   3.845   4.387  23.047  0.0788 -0.2190  0.0096
40395W        W48995  16.352   2.634  23.824  0.0154 -0.0193  0.1493
40396W        W48996  21.278   4.322  10.136 -0.4259  0.3155 -0.0840
40397W        W48997  31.054   6.342  16.813 -0.2577  0.1966 -0.0229
40398W        W48998   2.229   6.778  19.549 -0.0301  0.2092  0.0792
40399W        W48999  28.693   0.099  23.990 -0.2525 -0.0958 -0.1649
40400W        W49000  24.444   5.922  19.385 -0.0667  0.1847  0.1078
40401W        W49001   9.586   2.690   9.503  0.0045  0.2426 -0.1592
40402W        W49002  16.173   6.257  16.699 -0.1084 -0.0409 -0.1661
40403W        W49003  30.829   6.834   7.727  0.2697 -0.4249  0.0292
40404W        W49004  27.066   2.251   5.021  0.0284 -0.0723 -0.0422
40405W        W49005   0.128   4.205  20.449 -0.2144 -0.1971  0.1479
40406W        W49006   1.982   5.273  20.342  0.0660  0.2916  0.0841
40407W        W49007   8.196   2.446   4.348 -0.2007  0.1627 -0.0000
40408W        W49008  25.095   6.880  10.355 -0.0358 -0.2864  0.2016
40409W        W49009  20.665   4.894  22.529  0.0672  0.1904  0.1350
40410W        W49010  22.077   1.432   2.886 -0.3518 -0.1134 -0.0446
40411W        W49011  23.138   3.056   7.055 -0.0591 -0.1469  0.1388
40412W        W49012  26.030   5.701  21.525 -0.1234  0.0598 -0.1243
40413W        W49013  13.989   6.597  20.328  0.2359 -0.3815 -0.0572
40414W        W49014  19.391   5.192  22.763 -0.0606  0.3490  0.1670
40415W        W49015  12.305   5.835  20.655 -0.1185 -0.0751 -0.1409
40416W        W49016   8.080   4.291  23.931 -0.2006 -0.3155  0.1462
40417W        W49017  21.871   5.596   2.806  0.0579 -0.0091 -0.1082
40418W        W49018   9.840   6.908  24.954  0.1273 -0.1029  0.0730
40419W        W49019  11.056   4.653   6.045 -0.0123 -0.1454 -0.2326
40420W        W49020  15.482   4.423   2.902 -0.0647 -0.1429  0.1554
40421W        W49021  22.443   5.941   6.266 -0.1875 -0.1752 -0.1522
40422W        W49022  29.083   7.176   4.984 -0.2405 -0.1164 -0.3633
40423W        W49023  21.550   6.826   3.592  0.0482 -0.0082 -0.0335
40424W        W49024  27.727   2.394   6.264  0.0119  0.0091 -0.0304
40425W        W49025   8.169   0.443  24.958  0.1043  0.1845  0.0875
40426W        W49026   6.962   2.668   0.279  0.0020 -0.0363 -0.0093
40427W        W49027  30.401   7.057  20.978  0.0099 -0.1723 -0.1815
40428W        W49028  10.870   4.185   5.972 -0.4522 -0.2168 -0.3913
40429W        W49029  16.687   0.455  16.634 -0.1428 -0.1394 -0.0246
40430W        W49030  19.687   5.473  24.355  0.2313  0.0316 -0.0907
40431W        W49031  15.167   0.630   9.700 -0.1145  0.1280  0.0862
40432W        W49032   9.443   6.071   9.678  0.0651  0.1636 -0.0901
40433W        W49033  21.518   0.566   7.273  0.2596 -0.0857 -0.1924
40434W        W49034  20.611   6.555  24.357 -0.1340 -0.0919 -0.1709
40435W        W49035  28.287   1.815  19.923 -0.0102  0.1037  0.1704
40436W        W49036   5.130   0.900   5.375  0.0257  0.3187 -0.0464
40437W        W49037  29.327   6.081  22.691 -0.2518 -0.0241 -0.1943
40438W        W49038   4.659   4.739  15.773 -0.0869  0.1268  0.1292
40439W        W49039   2.596   0.425  19.279 -0.1423  0.2406  0.1017
40440W        W49040   7.462   3.763  23.677  0.3559  0.1733 -0.0220
40441W        W49041   2.685   7.494   8.169  0.4048  0.1930 -0.0350
40442W        W49042  30.906   6.903   4.271 -0.1316 -0.1121  0.0658
40443W        W49043  15.590   0.602   8.035  0.1803  0.0749  0.0970
40444W        W49044  19.450   7.023   8.989 -0.0719 -0.2720 -0.2188
40445W        W49045  11.799   4.256  23.545 -0.1141  0.1206 -0.2059
40446W        W49046  27.701   0.347   6.423 -0.0910  0.1462  0.0094
40447W        W49047  15.572   5.780  21.222 -0.0405  0.4498 -0.0764
40448W        W49048  19.570   6.470  20.687 -0.2058  0.2411  0.0488
40449W        W49049  17.460   4.216   0.872 -0.2665  0.1494 -0.2928
40450W        W49050  13.924   4.104   1.274  0.0581  0.0382 -0.1109
40451W        W49051   2.585   3.826   6.229  0.0938 -0.1946  0.2825
40452W        W49052  18.198   0.725  20.093  0.2003 -0.4225  0.0974
40453W        W49053   6.358   2.916  25.018  0.0628 -0.0407  0.0304
40454W        W49054  23.039   4.203   3.444  0.2250 -0.0002 -0.1599
40455W        W49055  19.532   7.240  24.250 -0.1140  0.0131 -0.0042
40456W        W49056  27.036   4.291  18.631 -0.3421  0.0325 -0.1235
40457W        W49057  31.064   6.485   7.255  0.1092 -0.1477  0.0338
40458W        W49058   7.684   0.348  22.643 -0.1013 -0.2444  0.0878
40459W        W49059  19.582   2.320  17.132 -0.1843 -0.0891  0.3798
40460W        W49060  16.613   3.589   5.916 -0.0326  0.0981  0.0659
40461W        W49061  29.404   4.310  21.326  0.3807 -0.0271  0.0478
40462W        W49062  15.420   7.019  24.990  0.0668  0.4451 -0.0145
40463W        W49063  28.726   5.094  26.177  0.0305 -0.0988 -0.2479
40464W        W49064  21.556   3.170  16.412  0.0840  0.1114  0.0197
40465W        W49065  11.528   4.216  18.997 -0.0378 -0.2686 -0.0369
40466W        W49066  10.255   0.607  18.550  0.2752 -0.2847 -0.5660
40467W        W49067   4.846   4.674   5.422  0.1413 -0.0681  0.0340
40468W        W49068   5.321   1.968  21.094 -0.1772  0.1109  0.0948
40469W        W49069   7.261   2.305   6.788  0.0583  0.1713 -0.1333
40470W        W49070   0.557   5.612  23.635  0.2614 -0.0067  0.1139
40471W        W49071  13.786   4.286   9.905  0.1789 -0.1503 -0.0979
40472W        W49072  15.061   2.159   6.706 -0.0762  0.0589 -0.1281
40473W        W49073  25.087   0.012   0.688 -0.1180 -0.1392 -0.1852
40474W        W49074  29.927   2.240  24.881 -0.0468  0.0157  0.0031
40475W        W49075   1.041   0.072   2.482 -0.1691  0.1792  0.1934
40476W        W49076  10.809   6.682  15.633 -0.1428  0.1475  0.0706
40477W        W49077  22.867   0.492   8.505  0.2904  0.0584 -0.2850
40478W        W49078   9.067   5.461   2.917  0.1331 -0.1112 -0.2650
40479W        W49079  29.341   6.658   4.425 -0.2256  0.1032 -0.1994
40480W        W49080   9.585   3.109   3.418  0.1701  0.4193 -0.1520
40481W        W49081  19.570   4.604  15.098  0.1578 -0.1191 -0.2919
40482W        W49082  10.886   5.878  20.187 -0.1097  0.1815  0.0964
40483W        W49083  26.078   2.973   4.501  0.0029  0.1395 -0.1246
40484W        W49084  29.748   0.947  20.699  0.0741  0.0734 -0.1506
40485W        W49085  25.983   1.469  20.239  0.0379 -0.1817 -0.2182
40486W        W49086  13.513   1.030  10.309  0.0499 -0.1043 -0.2096
40487W        W49087   8.615   0.829   6.314 -0.2218 -0.1046 -0.0033
40488W        W49088   5.216   3.083   8.668 -0.1734 -0.1293 -0.0280
40489W        W49089  24.205   5.175   4.023 -0.0190  0.2507 -0.1324
40490W        W49090  19.900   4.367   1.971  0.0030 -0.0814 -0.1064
40491W        W49091  12.755   6.850   2.263  0.0366  0.2485  0.0364
40492W        W49092  24.398   6.878  10.951 -0.2503 -0.1777  0.1439
40493W        W49093   4.309   4.341   2.766  0.2926  0.0899 -0.1442
40494W        W49094  11.034   1.615   2.868  0.0347  0.1536  0.1172
40495W        W49095  22.077   4.777  18.417  0.1996  0.1346 -0.0928
40496W        W49096  14.084   1.778   8.998  0.0702  0.0127 -0.0590
40497W        W49097  18.763   1.025  24.350  0.1221  0.0568  0.0697
40498W        W49098   4.747   2.075  19.286  0.4397 -0.2826 -0.0097
40499W        W49099  24.063   4.402  23.159  0.0063  0.0486 -0.0693
40500W        W49100   2.657   5.523   7.150  0.1273 -0.1010 -0.0263
40501W        W49101  11.007   5.036  22.165 -0.0090 -0.0151  0.1030
40502W        W49102  27.741   1.047  20.007  0.1122  0.0560  0.0276
40503W        W49103  13.726   5.838   6.110  0.0614 -0.3138 -0.3754
40504W        W49104  19.835   5.899  24.510  0.0056  0.2407 -0.0099
40505W        W49105  21.804   2.232   0.754  0.1120  0.1153  0.0159
40506W        W49106  18.611   7.120  10.249 -0.1277 -0.2625 -0.0236
40507W        W49107  18.878   7.566   2.574  0.0801  0.1658 -0.0539
40508W        W49108  26.802   1.577  17.661  0.1128  0.3564 -0.1195
40509W        W49109  27.906   3.354  23.724 -0.0324 -0.1478  0.1654
40510W        W49110  30.064   3.095  20.470 -0.0180 -0.0539  0.1912
40511W        W49111   8.060   6.211   3.855  0.0961  0.1306 -0.2069
40512W        W49112   3.951   1.809   6.193  0.0279 -0.0208 -0.4126
40513W        W49113  23.675   6.440  19.206  0.0746 -0.1577 -0.2674
40514W        W49114  23.153   4.455   7.370 -0.1192 -0.4947 -0.0550
40515W        W49115   1.943   7.318   2.421 -0.1663 -0.0233 -0.0190
40516W        W49116  12.645   4.409   7.917 -0.3354  0.2083  0.5580
40517W        W49117   1.856   1.173   0.801  0.0025 -0.0781  0.0168
40518W        W49118  26.801   7.202  24.579 -0.0109 -0.1708 -0.1137
40519W        W49119  20.830   5.804   1.053 -0.0454  0.0041  0.1148
40520W        W49120   4.789   4.191  22.160  0.1108 -0.0943  0.0836
40521W        W49121  10.681   6.903  24.707  0.1863 -0.0348  0.0212
40522W        W49122  11.740   1.888   4.989 -0.1535  0.0101  0.2749
40523W        W49123  23.221   2.411  18.688 -0.1912 -0.0030 -0.2181
40524W        W49124  14.576   3.298   5.510 -0.2806  0.1518  0.0503
40525W        W49125   1.845   1.940   7.369 -0.2988 -0.0592 -0.2402
40526W        W49126   5.176   1.222   3.416 -0.3262  0.0807  0.0846
40527W        W49127   9.663   1.243  20.713 -0.3518 -0.1112 -0.0398
40528W        W49128  22.330   4.763   4.332 -0.2296  0.2072  0.1833
40529W        W49129  17.064   2.012  15.759  0.1576 -0.1414 -0.1327
40530W        W49130  13.147   3.976   6.605 -0.2644  0.0350  0.0839
40531W        W49131  24.902   6.166  22.120 -0.1259 -0.0453 -0.1265
40532W        W49132   4.231   6.099   2.167 -0.0959  0.0215  0.1397
40533W        W49133  30.994   2.374  15.553 -0.1542  0.0208  0.2996
40534W        W49134  24.500   4.702  19.375  0.1419  0.1149 -0.1488
40535W        W49135   3.822   1.364  22.422  0.0957  0.1053 -0.1089
40536W        W49136  15.347   4.667  25.919 -0.0332  0.0296  0.0568
40537W        W49137  16.164   7.133  15.480 -0.1477  0.3478  0.3328
40538W        W49138  12.154   3.089  10.647  0.3270  0.3238 -0.0746
40539W        W49139   0.168   1.897  24.805 -0.0840 -0.0376  0.2201
40540W        W49140   8.829   2.175  23.966  0.1116  0.1915  0.1753
40541W        W49141   0.182   1.212   9.700  0.2158 -0.0916 -0.1734
40542W        W49142   3.098   3.699  16.841 -0.3842  0.0752 -0.2885
40543W        W49143  19.625   3.856  17.895 -0.0674  0.2726  0.0993
40544W        W49144   7.699   4.168   8.879  0.0924  0.0070  0.0562
40545W        W49145  13.114   5.054  11.205 -0.0212  0.1073 -0.0154
40546W        W49146  23.229   5.489  23.511  0.2183  0.4999 -0.3462
40547W        W49147  14.255   1.527   1.484  0.3022 -0.1928 -0.0867
40548W        W49148  12.185   5.402  19.118  0.1323 -0.1378 -0.1464
40549W        W49149  12.442   7.298   6.492 -0.2428 -0.0061 -0.3127
40550W        W49150   6.217   4.323  19.484 -0.4087  0.1771  0.1147
40551W        W49151   1.564   6.457  20.906  0.1978  0.1027  0.4074
40552W        W49152   2.392   7.438  16.542 -0.1667 -0.1294 -0.0277
40553W        W49153   3.792   0.111   1.910 -0.1517  0.0659  0.1794
40554W        W49154  13.095   4.896   9.782  0.0015  0.2505 -0.1255
40555W        W49155  24.509   6.686  26.027 -0.1889  0.0268  0.3988
40556W        W49156   5.386   2.155   3.524 -0.0735  0.1615 -0.0226
40557W        W49157  15.747   3.371   3.470  0.1122  0.0077  0.0715
40558W        W49158  24.700   1.261   3.299  0.0430 -0.0634 -0.1182
40559W        W49159   6.186   4.928   1.665  0.1299 -0.1747 -0.0410
40560W        W49160   1.383   3.007  16.205  0.1313 -0.0500 -0.1994
40561W        W49161   5.168   0.424   5.133 -0.2040 -0.1180 -0.3301
40562W        W49162   7.371   3.607  18.323 -0.1158  0.0234  0.0895
40563W        W49163   3.692   6.858  23.017  0.0186 -0.0779  0.0189
40564W        W49164  14.656   6.880   0.731 -0.0437 -0.3234  0.1911
40565W        W49165  16.069   7.666   8.406 -0.2112 -0.2566 -0.2759
40566W        W49166   2.087   4.007  20.362  0.1815  0.1647 -0.0332
40567W        W49167  23.185   0.978  26.326 -0.2968  0.3114  0.0575
40568W        W49168   1.690   2.969  24.474  0.1625 -0.1402  0.3027
40569W        W49169  17.914   3.371   6.765 -0.2732 -0.0617  0.2610
40570W        W49170   3.575   0.401  20.645 -0.1829  0.0310 -0.2319
40571W        W49171  12.480   4.363   7.424 -0.1609 -0.0889  0.1049
40572W        W49172   5.463   7.448  22.560  0.3811  0.2343 -0.0739
40573W        W49173  21.620   0.029   3.990 -0.4557  0.0603  0.2050
40574W        W49174   4.026   0.376   2.393 -0.1379 -0.0628 -0.0584
40575W        W49175  26.520   5.971  25.980 -0.1916 -0.0350 -0.0307
40576W        W49176  16.142   2.841  18.500 -0.3000 -0.1969  0.4882
40577W        W49177   3.482   2.103  11.391 -0.4219  0.3211 -0.1514
40578W        W49178   5.652   3.424  25.499 -0.0034  0.0484 -0.1800
40579W        W49179  18.572   6.768   8.861 -0.1027  0.1332  0.1060
40580W        W49180  14.551   4.364   6.697  0.0764  0.0944 -0.0331
40581W        W49181  25.596   6.592  16.589  0.2748  0.0530  0.0810
40582W        W49182  15.017   1.549   2.586 -0.4372 -0.0150  0.0896
40583W        W49183  12.483   6.063   1.846 -0.0005 -0.3902 -0.1240
40584W        W49184  29.438   3.916   9.935  0.0234  0.1658  0.1020
40585W        W49185  30.101   6.705  10.013 -0.3811  0.2133 -0.2237
40586W        W49186  17.572   0.395   3.429  0.1665  0.2264 -0.2283
40587W        W49187  11.401   6.859   5.673  0.1233 -0.0010  0.1566
40588W        W49188  28.060   0.216   8.916  0.1664  0.0978 -0.0197
40589W        W49189  23.339   0.873  25.222 -0.2197  0.0891  0.0494
40590W        W49190  27.795   1.550   1.029 -0.1294  0.2365 -0.2645
40591W        W49191  13.337   6.666  24.755 -0.0407  0.1698  0.1227
40592W        W49192  14.117   3.741   0.777  0.1916 -0.1619  0.1068
40593W        W49193  23.653   1.797  23.012 -0.0137  0.0920 -0.3640
40594W        W49194  20.238   6.858  20.029  0.2875 -0.2406  0.2690
40595W        W49195  27.870   4.105  22.187 -0.1671  0.1920  0.0814
40596W        W49196   8.914   5.866  22.390 -0.0329 -0.0091 -0.0826
40597W        W49197   0.281   2.971  17.156  0.1875  0.1271 -0.0403
40598W        W49198   5.165   6.400  21.541  0.0768 -0.0762  0.0581
40599W        W49199   2.984   3.099   5.779  0.1068  0.0634 -0.1484
40600W        W49200  21.276   2.252  25.893  0.1115 -0.1291  0.1006
40601W        W49201  19.434   7.223  24.921 -0.0221  0.0666 -0.1231
40602W        W49202  23.376   2.597  20.578  0.2101 -0.0007  0.0309
40603W        W49203  29.427   6.265  23.875 -0.0213 -0.1917 -0.0805
40604W        W49204   6.186   4.905  19.436 -0.1965  0.0637  0.1113
40605W        W49205  30.571   0.318  17.649  0.1879 -0.1148 -0.0643
40606W        W49206   6.714   4.555  19.997  0.1269 -0.0242 -0.0950
40607W        W49207  11.714   1.755  18.706  0.0854 -0.1334  0.2885
40608W        W49208  19.120   5.663   9.252 -0.3030  0.0174  0.0114
40609W        W49209   9.830   7.540   4.001 -0.3552 -0.0680 -0.3425
40610W        W49210  19.796   2.058  10.461 -0.0281  0.0134  0.1730
40611W        W49211  17.628   5.492   0.660  0.1385  0.3678  0.4493
40612W        W49212  14.414   3.088   5.942 -0.1262  0.3982 -0.0859
40613W        W49213  30.432   7.105   5.378  0.1474  0.3794  0.1790
40614W        W49214  23.106   1.177  22.116 -0.0467  0.0964 -0.2435
40615W        W49215  24.166   1.042  20.345  0.0534  0.0217 -0.3146
40616W        W49216   8.113   3.539  17.563 -0.1522  0.2849  0.1566
40617W        W49217  17.857   4.826  17.969  0.0902  0.3033 -0.2479
40618W        W49218  24.143   2.576   3.271 -0.1123 -0.4370  0.0306
40619W        W49219  24.813   2.474  24.127  0.0629 -0.1993 -0.1645
40620W        W49220  20.807   2.311  21.598  0.2529  0.1480  0.2046
40621W        W49221  12.598   2.553  25.680 -0.0683 -0.1050 -0.0378
40622W        W49222  13.744   1.397   5.725 -0.1932 -0.1598  0.1251
40623W        W49223  22.666   2.166  24.497 -0.0267  0.0238  0.1687
40624W        W49224  27.516   1.815  10.094 -0.3897 -0.2259 -0.0891
40625W        W49225  16.925   0.103  16.923  0.1018 -0.3027  0.2571
40626W        W49226  16.670   0.512   3.032 -0.2943 -0.1526  0.0941
40627W        W49227  19.390   4.416  24.305 -0.0231  0.0057 -0.0354
40628W        W49228   5.058   2.737   5.139  0.1399 -0.2412 -0.2094
40629W        W49229   6.791   1.158   1.636  0.0834 -0.0246  0.1462
40630W        W49230   4.545   0.657  11.120 -0.1564  0.1305  0.0293
40631W        W49231  15.441   5.486   2.696 -0.1670 -0.0020  0.2577
40632W        W49232   8.136   5.557   5.308 -0.0571  0.1973 -0.0394
40633W        W49233  20.614   7.016   4.573 -0.0352  0.2045  0.1035
40634W        W49234  10.731   4.915   2.421 -0.0023 -0.2517  0.2281
40635W        W49235  26.836   3.711  20.411 -0.1865 -0.0991  0.0375
40636W        W49236   6.289   6.076  22.688 -0.2980  0.0791 -0.1143
40637W        W49237  26.273   6.990  17.325  0.0844  0.3002  0.1635
40638W        W49238   3.786   3.855  23.768  0.1437  0.0031 -0.0297
40639W        W49239  14.603   3.920  24.744  0.2650 -0.2304 -0.1203
40640W        W49240  14.304   2.750  26.228  0.2258  0.0644 -0.0393
40641W        W49241  16.821   2.880   5.808  0.1361 -0.1253 -0.0825
40642W        W49242  30.274   5.742  16.470 -0.2284  0.0786  0.1263
40643W        W49243  12.992   6.237  19.000 -0.0370  0.0882 -0.4081
40644W        W49244  16.251   1.358   2.297  0.3107 -0.2455 -0.3784
40645W        W49245  11.208   4.334   5.128 -0.0045 -0.3300  0.2158
40646W        W49246  26.192   5.369  23.071 -0.2443  0.0117  0.2920
40647W        W49247   7.196   7.403   6.694  0.4224  0.0607 -0.4686
40648W        W49248  12.255   3.037   4.270  0.0766  0.0549  0.1822
40649W        W49249  22.761   5.166  10.641  0.0246  0.2516 -0.1079
40650W        W49250  20.569   7.585  16.236 -0.0534 -0.2869 -0.0625
40651W        W49251  12.663   7.008   7.310  0.0753 -0.0699 -0.0977
40652W        W49252  25.316   5.851   9.568  0.2822 -0.2349  0.0994
40653W        W49253  23.679   5.035  22.528 -0.0084 -0.2487  0.1299
40654W        W49254   6.874   2.373   6.220  0.1707  0.0244  0.2802
40655W        W49255  29.563   6.530  19.069  0.0040 -0.3629  0.0835
40656W        W49256  26.937   2.029   8.861  0.3786 -0.0146 -0.1676
40657W        W49257   4.808   7.739  18.401  0.0234  0.0955  0.2021
40658W        W49258  28.266   1.064  23.120  0.0423  0.2079  0.0257
40659W        W49259  30.674   1.976  20.507 -0.0381  0.2233 -0.0511
40660W        W49260  20.522   0.563  23.812 -0.2166  0.1046 -0.3102
40661W        W49261   0.939   7.752  21.674 -0.0236  0.3939  0.2406
40662W        W49262   7.297   3.726  19.179 -0.4419 -0.2984 -0.2905
40663W        W49263  19.166   2.971  26.012  0.2696 -0.2121  0.0111
40664W        W49264  14.100   6.558   3.603 -0.0212 -0.0364 -0.1242
40665W        W49265  20.875   2.233   6.288  0.0975  0.1145  0.3097
40666W        W49266  23.993   7.008   0.067 -0.2702  0.2550 -0.2089
40667W        W49267  21.363   7.135  24.042  0.1395 -0.1401  0.0288
40668W        W49268  23.094   1.295   3.275 -0.1996 -0.0061 -0.1915
40669W        W49269  29.579   0.586  24.993 -0.2596 -0.1396  0.1188
40670W        W49270  25.735   7.284   0.035 -0.0056 -0.1005 -0.1372
40671W        W49271   3.108   0.217  22.341  0.0411  0.1259 -0.0811
40672W        W49272  27.410   3.427   2.252  0.0120 -0.3628 -0.1817
40673W        W49273  13.571   1.846   1.030 -0.0788 -0.0674  0.0875
40674W        W49274  18.013   0.974  23.875 -0.1888 -0.2145  0.1482
40675W        W49275  17.918   7.165  18.354  0.2116 -0.0008 -0.0695
40676W        W49276  24.472   2.161  17.161  0.0230 -0.2129  0.0340
40677W        W49277   9.379   2.567  17.012  0.1646 -0.2780  0.2863
40678W        W49278  18.084   5.228   8.403  0.0462  0.0209  0.1633
40679W        W49279  27.289   2.405   8.729  0.1303 -0.1343 -0.0424
40680W        W49280   4.358   6.340  15.871  0.0266 -0.1312 -0.0123
40681W        W49281   5.427   4.460   6.995 -0.0465 -0.1025  0.2335
40682W        W49282   2.655   3.419   0.028  0.2176 -0.2362  0.1350
40683W        W49283  19.052   6.857  17.224  0.0438 -0.0808 -0.0290
40684W        W49284   5.546   0.605   6.496  0.2957 -0.0465 -0.0857
40685W        W49285   0.158   3.602  25.653  0.2899 -0.0887 -0.0439
40686W        W49286   0.071   1.333   2.665 -0.1921 -0.2768  0.1719
40687W        W49287   4.431   6.033   5.683 -0.1507 -0.0373  0.2925
40688W        W49288   8.489   5.966  23.573  0.1454  0.1913 -0.0496
40689W        W49289   5.710   1.194   6.909  0.0235 -0.0404 -0.0110
40690W        W49290  18.379   5.444  19.078  0.0516 -0.0156  0.3274
40691W        W49291  12.683   0.047   2.621 -0.0389 -0.0447  0.2609
40692W        W49292  13.327   5.043   9.307  0.1242 -0.0586  0.0089
40693W        W49293  26.858   3.273  26.156 -0.1917 -0.1592  0.2831
40694W        W49294  29.142   4.357  20.625  0.1494 -0.0513 -0.0802
40695W        W49295   7.798   3.950   2.007 -0.2683  0.0413 -0.0433
40696W        W49296  25.534   4.236  22.935 -0.2639 -0.1213  0.0092
40697W        W49297  13.768   4.680   6.325  0.1583 -0.1202 -0.0542
40698W        W49298  19.425   2.757   2.024 -0.1501  0.0908 -0.1459
40699W        W49299  27.915   4.180  23.030 -0.4194  0.0112 -0.0736
40700W        W49300  27.445   5.732  22.993 -0.3783 -0.1567  0.1094
40701W        W49301   5.720   6.398  23.145  0.0686 -0.1123  0.1345
40702W        W49302  25.295   4.177  20.761 -0.0419  0.1855 -0.1786
40703W        W49303   5.633   0.348   2.207 -0.0159  0.1753  0.0883
40704W        W49304  24.020   0.458  10.062  0.1856 -0.3982 -0.2018
40705W        W49305  11.105   5.160  21.420  0.0430  0.0903  0.2464
40706W        W49306  10.080   7.455  20.831 -0.0870 -0.0213 -0.0173
40707W        W49307   2.235   5.819   9.440  0.0446 -0.0952  0.0204
40708W        W49308   4.630   5.404   9.746  0.0364  0.0565 -0.1896
40709W        W49309  30.246   5.607   4.308  0.0841 -0.0371  0.3523
40710W        W49310   6.881   2.574  24.363 -0.0764 -0.2449  0.0595
40711W        W49311   8.562   2.135   4.106 -0.2712 -0.3412 -0.0322
40712W        W49312   4.590   0.282  17.654  0.0758  0.1592  0.0058
40713W        W49313  19.956   0.838   1.120  0.0723 -0.0234  0.1342
40714W        W49314  21.173   2.786   9.222 -0.5438  0.0730 -0.0703
40715W        W49315  28.188   4.696   7.708 -0.1681 -0.0763  0.0473
40716W        W49316   4.288   0.779   1.619 -0.0566 -0.0548  0.0490
40717W        W49317  21.745   4.240  23.337 -0.1358  0.0371 -0.1112
40718W        W49318   2.270   0.993   9.249 -0.0937  0.0045 -0.0699
40719W        W49319  28.476   6.910  22.994 -0.1461  0.2021 -0.3003
40720W        W49320  10.659   2.752  15.329 -0.1469  0.2287  0.0204
40721W        W49321  11.247   5.435   0.237  0.1078  0.3413  0.0004
40722W        W49322   1.595   3.218  24.921  0.1106  0.3538 -0.1064
40723W        W49323  24.298   1.714  16.826 -0.2484 -0.1303 -0.1209
40724W        W49324  28.453   0.067   7.675 -0.2794  0.6243  0.0783
40725W        W49325  12.740   6.502   5.325  0.1282 -0.1508 -0.1731
40726W        W49326  20.659   4.223   5.320 -0.1012  0.1473  0.1714
40727W        W49327   9.644   6.932  25.460 -0.0865 -0.0585 -0.0253
40728W        W49328  30.706   2.319   1.944  0.0447  0.2115 -0.3039
40729W        W49329   3.789   1.493  19.639 -0.1175 -0.2305  0.0173
40730W        W49330  12.677   1.303   3.499 -0.1053 -0.0508  0.1989
40731W        W49331  12.139   6.745   1.683  0.0981 -0.0815 -0.2219
40732W        W49332   0.775   2.402  19.094  0.2758 -0.1247  0.0814
40733W        W49333  26.848   7.210  19.994 -0.1147 -0.0597  0.1067
40734W        W49334  27.384   4.991  26.304 -0.2670 -0.2147 -0.0632
40735W        W49335   7.031   1.650   3.028  0.1807  0.1103  0.3410
40736W        W49336  17.948   6.528  17.406 -0.1117  0.2092  0.3938
40737W        W49337  29.064   6.301   2.030 -0.1678  0.0159 -0.2131
40738W        W49338  30.400   0.924  16.058  0.1458  0.2206  0.0788
40739W        W49339  24.727   2.465   4.246  0.4711  0.2396 -0.0273
40740W        W49340  28.704   2.484   3.623 -0.2086  0.5188 -0.0114
40741W        W49341  15.535   0.019   2.663 -0.2705 -0.0417 -0.2075
40742W        W49342  15.169   3.065   8.053  0.3272 -0.2786 -0.2866
40743W        W49343   3.306   4.716   6.903 -0.0573  0.0449  0.0003
40744W        W49344   3.310   6.810   4.822 -0.0044 -0.0534  0.1784
40745W        W49345  13.356   5.851  19.234  0.0821  0.1541 -0.1317
40746W        W49346  21.123   7.319   9.154 -0.1165 -0.0298 -0.0792
40747W        W49347  13.165   4.470  10.069 -0.1733 -0.0932  0.0970
40748W        W49348  30.249   2.128  19.417 -0.0916  0.0962  0.0075
40749W        W49349  11.112   6.018  19.732 -0.5521 -0.3883  0.1344
40750W        W49350  13.756   5.257  21.422  0.1694 -0.0394 -0.2067
40751W        W49351   4.464   6.532  25.307 -0.3442 -0.0661  0.2213
40752W        W49352  12.874   0.177  21.601 -0.3571  0.1868 -0.1008
40753W        W49353   2.171   2.587  19.186  0.3845  0.0558 -0.0557
40754W        W49354  26.259   0.190  22.147  0.2794 -0.0465  0.0877
40755W        W49355  29.268   1.031   0.232  0.0811  0.0715  0.1061
40756W        W49356   4.276   2.395   9.182 -0.5452 -0.2215  0.0937
40757W        W49357  29.911   5.736   3.581 -0.0720  0.1467 -0.1630
40758W        W49358   6.531   4.884  17.485  0.1076  0.1313 -0.0271
40759W        W49359   2.560   4.452  22.575  0.0676  0.0902 -0.1190
40760W        W49360  25.223   4.914   2.770 -0.1216 -0.0591  0.0773
40761W        W49361  11.047   1.435  20.702  0.0340 -0.3269  0.2192
40762W        W49362  26.297   5.454   0.269  0.0933  0.3371 -0.0786
40763W        W49363  20.170   5.560   2.233 -0.0021 -0.0742  0.3138
40764W        W49364   5.132   3.653  22.982  0.0422  0.0918  0.1389
40765W        W49365  12.757   4.927   9.313  0.2986 -0.1658 -0.1935
40766W        W49366  21.234   3.804   6.618  0.1209  0.1075 -0.1195
40767W        W49367   7.247   3.914  24.703 -0.0928 -0.1814 -0.0816
40768W        W49368   7.976   3.194   8.717 -0.0166  0.0410 -0.2229
40769W        W49369   5.827   1.679  19.283 -0.1601 -0.1152 -0.0468
40770W        W49370  26.326   2.659  15.606  0.2425 -0.1902  0.0804
40771W        W49371   8.403   4.441  10.247 -0.2150  0.1058 -0.0733
40772W        W49372  23.348   6.974  11.157 -0.1945 -0.2988 -0.0910
40773W        W49373   1.804   6.433   1.534  0.1366 -0.1291 -0.3391
40774W        W49374  10.458   2.683   0.350  0.0351 -0.1685  0.2076
40775W        W49375   2.254   6.951   6.331 -0.1605  0.3110  0.0203
40776W        W49376  22.086   1.084   7.454  0.1030  0.2067 -0.2053
40777W        W49377  11.690   4.035   1.702 -0.0785  0.1286  0.1888
40778W        W49378  13.235   6.715  10.715 -0.0428  0.2305 -0.0415
40779W        W49379  25.635   1.721   0.715 -0.2237  0.1116  0.0007
40780W        W49380  17.426   5.135  18.703 -0.0608  0.0764 -0.0205
40781W        W49381   2.774   5.845  18.524  0.0895  0.2663 -0.2221
40782W        W49382  15.161   0.232   8.540 -0.0015 -0.2492  0.1424
40783W        W49383  18.318   3.557  19.224  0.1845 -0.1367 -0.1307
40784W        W49384  11.405   4.659   4.512 -0.2029 -0.1637 -0.1076
40785W        W49385  30.185   1.375   0.581  0.1730  0.0043 -0.1622
40786W        W49386   0.716   0.808  25.593 -0.4016  0.1928 -0.1294
40787W        W49387   0.923   0.951   4.538 -0.1780 -0.1360 -0.1684
40788W        W49388   4.089   4.486   1.212  0.2230  0.1221  0.0978
40789W        W49389  30.717   7.613  24.006  0.0197 -0.2395 -0.0580
40790W        W49390  18.586   0.176   3.296 -0.0071  0.1584 -0.1714
40791W        W49391  10.582   7.577   6.470 -0.0371  0.1520 -0.5038
40792W        W49392  22.342   5.274   7.941  0.1756 -0.1896  0.0488
40793W        W49393  14.729   3.657   5.865 -0.0849  0.0352 -0.1279
40794W        W49394  17.424   5.021  25.810  0.1356  0.1955 -0.4233
40795W        W49395  22.598   6.806  24.156 -0.2645 -0.1297  0.0147
40796W        W49396  28.091   3.040   0.470 -0.2098  0.2415 -0.2887
40797W        W49397  19.500   7.046   1.029 -0.1961  0.0378 -0.2920
40798W        W49398  26.609   1.323  26.392  0.1362 -0.0861  0.1322
40799W        W49399  28.292   5.352   3.946 -0.0307  0.3278 -0.1076
40800W        W49400   3.362   2.044  18.985 -0.1222  0.1719 -0.0146
40801W        W49401  10.712   7.220  14.956 -0.0600  0.1730 -0.0732
40802W        W49402   9.058   3.645  17.858 -0.2255 -0.0295  0.2085
40803W        W49403   8.528   4.108  19.991 -0.0380  0.0161  0.1978
40804W        W49404  30.397   5.601  17.855  0.1830 -0.1729 -0.2392
40805W        W49405  30.890   5.940   1.643 -0.1694 -0.1426  0.1849
40806W        W49406   2.771   4.129   5.865 -0.2307 -0.1417 -0.1670
40807W        W49407  14.438   7.617  18.674  0.2474  0.1587 -0.0551
40808W        W49408   8.668   5.582  10.717 -0.1588 -0.1797 -0.3016
40809W        W49409  17.956   1.825  16.014 -0.1776 -0.1409  0.0129
40810W        W49410  12.050   4.994  23.654  0.0620  0.1497 -0.1243
40811W        W49411  19.183   7.460  21.609 -0.2672 -0.3316 -0.1371
40812W        W49412  10.629   2.189   0.502 -0.0004 -0.1526 -0.0093
40813W        W49413  14.744   1.326  17.372  0.0867  0.3659 -0.0396
40814W        W49414  20.862   1.517   2.450  0.3351 -0.1415  0.3627
40815W        W49415  21.987   0.976   2.596  0.4164 -0.2878 -0.4333
40816W        W49416  12.583   1.142  10.074 -0.0052  0.0029  0.1773
40817W        W49417  23.772   1.578   2.597  0.0183 -0.0926  0.0788
40818W        W49418  21.121   2.591   0.916 -0.0361  0.1397  0.2350
40819W        W49419  30.781   1.953  16.950  0.0434 -0.1431 -0.0703
40820W        W49420   7.493   6.608  19.888 -0.2320  0.1862 -0.0563
40821W        W49421  20.024   6.314  20.847 -0.1230  0.0855 -0.1460
40822W        W49422  12.351   2.226  21.955 -0.1067  0.2990 -0.0511
40823W        W49423   0.896   2.332   3.373  0.1221 -0.1398  0.2364
40824W        W49424  15.025   2.916  22.673 -0.5005  0.1259  0.3010
40825W        W49425  12.997   6.364   4.282 -0.0222 -0.1453  0.1693
40826W        W49426   8.121   1.224   1.142 -0.0771 -0.1439 -0.0188
40827W        W49427  18.450   2.729   5.678  0.1181 -0.1665 -0.1067
40828W        W49428  15.850   6.197  23.074  0.3462 -0.1084 -0.0385
40829W        W49429   4.030   6.632   0.329  0.0605  0.0148  0.0064
40830W        W49430  14.728   2.113  23.692 -0.1628 -0.0496 -0.1377
40831W        W49431   3.159   3.801  16.392 -0.2885 -0.4014  0.0970
40832W        W49432  18.499   0.786  23.980 -0.0962  0.2551  0.1360
40833W        W49433  31.093   0.399  10.103 -0.1150 -0.2045  0.2356
40834W        W49434   1.541   5.921  22.099  0.2640 -0.5436 -0.1645
40835W        W49435  19.750   1.721  23.365 -0.0474 -0.3621 -0.0382
40836W        W49436  15.424   1.733  22.426 -0.2552 -0.4450  0.0634
40837W        W49437   3.691   5.438  26.324 -0.2437  0.1251  0.0584
40838W        W49438  27.784   2.088  11.333 -0.4377  0.0287 -0.0990
40839W        W49439  14.273   2.249   8.726 -0.5091  0.1674 -0.0965
40840W        W49440  29.004   6.473   5.942  0.2524 -0.2226  0.4343
40841W        W49441   7.952   5.903   9.594  0.1812  0.0650 -0.0381
40842W        W49442  22.898   5.384  23.921 -0.0351  0.4586  0.0168
40843W        W49443   4.293   6.664   8.495 -0.0563 -0.0700 -0.0778
40844W        W49444   3.737   3.317  24.451  0.0154 -0.0582  0.3076
40845W        W49445   3.342   6.821   0.895 -0.0075 -0.0802 -0.0310
40846W        W49446   6.495   5.262  15.723  0.1021  0.0074 -0.2104
40847W        W49447  17.085   0.970  15.395  0.1576  0.2464 -0.0094
40848W        W49448  28.051   7.682   6.433  0.3471 -0.1785 -0.1632
40849W        W49449   3.958   7.756  17.857  0.0077  0.2746  0.0773
40850W        W49450  29.817   3.753   3.406 -0.1353 -0.3003  0.3279
40851W        W49451  20.438   6.558  25.501  0.1280  0.0207 -0.0564
40852W        W49452   9.257   1.724   9.261  0.0688  0.0129  0.2805
40853W        W49453   4.188   1.955  17.178 -0.0148  0.2014  0.3487
40854W        W49454   8.836   6.241   0.036 -0.1375  0.2084  0.1021
40855W        W49455   3.359   5.440   1.124  0.3789 -0.0755  0.1635
40856W        W49456  25.336   6.428  21.236 -0.0834  0.3183 -0.0347
40857W        W49457   1.302   6.288   2.169 -0.0253 -0.0516  0.2751
40858W        W49458   6.365   3.998  26.420 -0.0055  0.1779  0.2578
40859W        W49459  26.078   5.330   8.951 -0.4627  0.1998 -0.2058
40860W        W49460  30.404   3.007  18.280 -0.1754 -0.1916  0.0240
40861W        W49461  30.543   2.635  17.855  0.0183 -0.0798 -0.1843
40862W        W49462  19.605   7.586   2.643 -0.0480  0.2500 -0.1206
40863W        W49463   6.428   2.984   7.930  0.2022 -0.0643  0.1392
40864W        W49464   8.505   1.925  15.767 -0.1349  0.3106  0.0473
40865W        W49465  20.545   2.469  24.904  0.0334 -0.1119  0.0791
40866W        W49466  28.139   0.902   7.755 -0.1503  0.2824  0.2711
40867W        W49467  11.738   1.842  10.390 -0.1515  0.0097 -0.1182
40868W        W49468   5.220   5.189   4.477  0.1275 -0.0160  0.1201
40869W        W49469   1.964   2.615  18.073  0.0831 -0.0289 -0.0184
40870W        W49470   9.076   1.321   3.489  0.0044 -0.1376 -0.2824
40871W        W49471   8.985   2.654   3.845 -0.0805  0.0843 -0.1247
40872W        W49472  19.677   5.232  10.825  0.0459 -0.0469  0.2648
40873W        W49473   5.355   7.039   9.539 -0.0586 -0.2183 -0.0882
40874W        W49474  22.046   4.614  10.768 -0.0443 -0.0494 -0.0427
40875W        W49475   1.812   2.794   8.674 -0.0194 -0.2127 -0.3384
40876W        W49476  29.922   6.655  15.756  0.2038 -0.0171 -0.3731
40877W        W49477  15.787   6.324   0.880  0.0348  0.1801  0.0595
40878W        W49478  12.148   0.392   6.092  0.0557 -0.1366  0.3296
40879W        W49479   0.253   0.314  15.982  0.1963 -0.2189  0.0306
40880W        W49480  15.460   3.921  19.220  0.1552  0.0703 -0.0382
40881W        W49481  11.491   5.703  17.596 -0.1282 -0.3532 -0.0904
40882W        W49482  25.016   7.607  22.047 -0.3798  0.1788  0.1721
40883W        W49483  18.187   0.536  25.543 -0.2434  0.0409 -0.3000
40884W        W49484  14.469   7.551  16.235 -0.0853  0.0346  0.1014
40885W        W49485  25.772   6.221  16.211  0.0029 -0.0308  0.1250
40886W        W49486  15.758   0.126  25.638  0.2005  0.1552 -0.2591
40887W        W49487   9.705   0.961   5.669 -0.0802 -0.1518  0.1041
40888W        W49488   6.930   2.165   0.131  0.1163 -0.2145 -0.0290
40889W        W49489   2.099   6.275   8.311  0.2431  0.1098  0.0902
40890W        W49490  12.029   3.830   1.203 -0.0637  0.2363 -0.1650
40891W        W49491  16.561   1.104   1.446 -0.0902  0.0338  0.0620
40892W        W49492   2.909   0.050   7.230  0.1888  0.2063  0.0761
40893W        W49493  11.065   2.421   1.070 -0.0558  0.1902  0.0926
40894W        W49494  19.570   6.318  25.235 -0.1038  0.0672  0.0663
40895W        W49495   3.508   3.047   4.136  0.0526  0.1415 -0.0463
40896W        W49496   7.560   1.337  20.459 -0.4315  0.1666 -0.0709
40897W        W49497  20.273   2.833   1.482 -0.1117  0.2444 -0.0350
40898W        W49498  24.632   0.174  15.970 -0.1073 -0.1883 -0.1972
40899W        W49499  10.290   6.666  16.938  0.1905  0.1400 -0.0738
40900W        W49500   0.138   0.866  11.020  0.3349  0.4138 -0.2027
40901W        W49501  21.653   5.030   5.785  0.2450  0.0200 -0.0444
40902W        W49502  20.353   6.645   0.855  0.0238 -0.1608  0.1901
40903W        W49503   3.874   5.933  17.105 -0.0915  0.0968  0.0403
40904W        W49504   7.956   4.242   6.273  0.0737  0.1343 -0.1737
40905W        W49505   8.789   4.721   8.496 -0.0902 -0.2473  0.1802
40906W        W49506  10.799   7.294   3.096 -0.1247 -0.3650 -0.1684
40907W        W49507  17.728   7.415  25.780 -0.2153 -0.1349 -0.1925
40908W        W49508  22.061   4.292   7.836 -0.0036  0.1753  0.0841
40909W        W49509  27.309   4.952   5.673 -0.0053 -0.1605  0.0939
40910W        W49510   5.099   2.206  21.510  0.2135  0.2246 -0.2380
40911W        W49511  28.122   6.672   9.807 -0.0550  0.5060  0.2486
40912W        W49512  23.964   2.583  24.320 -0.1331 -0.1214  0.3053
40913W        W49513  16.829   1.684   0.589 -0.0845  0.0994 -0.2417
40914W        W49514   2.358   0.855   5.032  0.1282 -0.1483  0.0882
40915W        W49515  13.626   1.785  10.808  0.1028  0.0501  0.2291
40916W        W49516  23.697   0.765   1.782  0.2140 -0.0157  0.1274
40917W        W49517  26.905   1.923  15.775 -0.1396 -0.1559  0.1732
40918W        W49518  18.340   6.129  15.923  0.0985 -0.0309 -0.1413
40919W        W49519  20.894   3.281   7.820  0.2844  0.1058 -0.4346
40920W        W49520  23.002   0.232  19.710 -0.0898  0.2697  0.3300
40921W        W49521   0.041   1.596  24.229  0.0980 -0.1686  0.0267
40922W        W49522  19.763   3.747  24.958 -0.1691 -0.4376  0.0449
40923W        W49523   4.398   5.719  19.609 -0.1507 -0.5269  0.2707
40924W        W49524  12.692   6.273   6.176  0.1238 -0.0493  0.0241
40925W        W49525  20.423   0.674   7.647  0.2015 -0.3233 -0.1598
40926W        W49526  24.459   0.495   0.555 -0.0411  0.1561  0.3818
40927W        W49527  13.558   1.297  16.000 -0.0496  0.0173  0.0756
40928W        W49528  24.110   7.382  23.114 -0.0534 -0.0062 -0.0738
40929W        W49529  15.123   1.944  18.976  0.2374 -0.0726  0.1126
40930W        W49530  27.114   6.883  18.616 -0.0342  0.0868 -0.1540
40931W        W49531  26.506   2.254  10.563  0.1916  0.3133  0.0969
40932W        W49532  21.618   4.750   9.341 -0.0645 -0.1434  0.1222
40933W        W49533   8.342   7.500  10.428 -0.1788  0.3089  0.1001
40934W        W49534  25.505   2.596  23.289  0.1179 -0.1435  0.1637
40935W        W49535  26.417   6.581   5.247  0.1923 -0.0197 -0.1054
40936W        W49536  14.246   4.821  23.492  0.3678 -0.0988 -0.0277
40937W        W49537   8.648   6.842  17.386 -0.1252 -0.1035 -0.1066
40938W        W49538   9.179   0.527   0.010 -0.0382  0.0615  0.1941
40939W        W49539   6.379   6.663   7.689 -0.2912 -0.2832  0.0068
40940W        W49540  28.912   6.906   0.743 -0.1061  0.0561 -0.0163
40941W        W49541   5.583   5.995   0.929  0.0503  0.0362 -0.0955
40942W        W49542  27.140   2.716  18.649  0.3585 -0.1520  0.1615
40943W        W49543  23.738   6.200   0.395  0.0305 -0.0033  0.1499
40944W        W49544  23.710   3.410   3.296 -0.1039  0.0981  0.0533
40945W        W49545   9.977   4.169  25.640  0.2920  0.1374 -0.1578
40946W        W49546  17.037   3.737   3.080 -0.1876 -0.0178 -0.0380
40947W        W49547  26.888   2.620  17.079 -0.1248 -0.3504 -0.0855
40948W        W49548   8.179   6.047  16.858 -0.0716  0.0124 -0.0674
40949W        W49549  22.095   0.983  21.884 -0.0643  0.1147  0.2560
40950W        W49550  15.045   2.069   1.305  0.0042 -0.1298  0.2440
40951W        W49551  25.260   5.100  24.734 -0.0484 -0.0498  0.5606
40952W        W49552   9.964   2.725  19.740  0.2052 -0.0504 -0.1120
40953W        W49553   0.468   6.091  17.931 -0.0889  0.3535  0.1071
40954W        W49554  30.687   4.555  22.961 -0.2436 -0.1422 -0.1459
40955W        W49555  11.780   5.090  22.339  0.1465 -0.1276 -0.3705
40956W        W49556  18.222   3.964   6.716  0.1284  0.0950  0.1233
40957W        W49557  13.790   6.269  14.959 -0.3656 -0.1898 -0.1860
40958W        W49558  27.216   5.608  19.154  0.0041  0.2207 -0.0135
40959W        W49559   2.289   4.821  25.737  0.1879  0.0341 -0.1552
40960W        W49560  27.962   6.989  26.110 -0.0779  0.0603  0.0616
40961W        W49561  27.000   6.190   1.973 -0.0848  0.0170 -0.1329
40962W        W49562  26.620   6.468   1.171  0.0889  0.2000 -0.1140
40963W        W49563  13.454   4.394   7.205  0.2132  0.0621 -0.0132
40964W        W49564  22.192   6.780   1.804 -0.0573  0.3703  0.0321
40965W        W49565   4.995   4.097  17.209 -0.1554  0.0988 -0.2725
40966W        W49566  14.927   1.884  22.792 -0.0919 -0.0729 -0.0470
40967W        W49567   0.594   6.060  25.771 -0.2666  0.1335  0.2769
40968W        W49568  24.036   0.442  22.653  0.3712  0.0794 -0.3925
40969W        W49569  16.173   3.983   5.178  0.1165 -0.0740 -0.1364
40970W        W49570  27.306   0.682   4.651 -0.2193 -0.2203 -0.0692
40971W        W49571  15.848   3.067   6.433 -0.2363  0.2228 -0.0051
40972W        W49572  28.655   6.849   5.091  0.1875  0.2870  0.1478
40973W        W49573  27.968   2.145  23.612 -0.3047  0.2592  0.0002
40974W        W49574   9.527   6.427  16.357  0.0973 -0.1131  0.0543
40975W        W49575   2.903   3.273  18.970  0.1610  0.0195  0.0675
40976W        W49576  24.004   7.024  10.535 -0.2776 -0.1268 -0.1769
40977W        W49577   1.729   2.195  18.183 -0.0008 -0.1398 -0.1668
40978W        W49578  17.326   0.599  10.693 -0.0073 -0.0752  0.1854
40979W        W49579  30.334   4.872  23.702 -0.0614 -0.0145 -0.2991
40980W        W49580   1.396   7.592  10.545  0.5074  0.0150 -0.0549
40981W        W49581  11.856   4.397   6.057  0.1512 -0.1868  0.1608
40982W        W49582  30.159   1.927  10.339 -0.2442 -0.1483  0.1356
40983W        W49583   3.282   0.979   2.864  0.1905 -0.1968 -0.1877
40984W        W49584  29.199   6.709   6.906  0.0118 -0.1230 -0.1419
40985W        W49585  15.674   4.688   4.158 -0.4190 -0.0414 -0.0554
40986W        W49586  17.751   0.189   0.730 -0.0921  0.2337  0.0598
40987W        W49587   1.247   4.018   8.200 -0.1777 -0.1374 -0.0984
40988W        W49588  15.430   1.406  16.369 -0.0631 -0.0722  0.0522
40989W        W49589   3.637   5.337  23.684  0.3675 -0.1070  0.0116
40990W        W49590  26.841   5.120   5.872 -0.1480  0.1091  0.0091
40991W        W49591  27.560   0.375   5.876 -0.0899 -0.1893  0.0842
40992W        W49592  29.516   3.535   1.375 -0.0248 -0.1825  0.2186
40993W        W49593   3.693   5.032  21.896  0.0251  0.2062 -0.0880
40994W        W49594   1.336   3.676  18.972 -0.3288  0.2660 -0.0595
40995W        W49595  18.190   1.705  19.918 -0.2546  0.3400 -0.0489
40996W        W49596  26.554   2.290   8.765  0.1009 -0.1758  0.1377
40997W        W49597  22.362   0.203   4.825 -0.1433 -0.1867  0.0616
40998W        W49598   2.231   5.217  24.885  0.0761 -0.0024 -0.3764
40999W        W49599  14.185   5.012  25.322  0.1317  0.1942 -0.0748
41000W        W49600   9.926   7.198  20.101  0.0656  0.0498 -0.0828
41001W        W49601   9.841   2.827  23.464  0.2600  0.2944 -0.0387
41002W        W49602  13.880   0.519   3.068 -0.0423  0.0915  0.0987
41003W        W49603  29.428   4.681   8.497 -0.0555  0.1247  0.1469
41004W        W49604   6.563   0.158   4.556  0.0827  0.1599 -0.0027
41005W        W49605   0.820   5.975   8.780  0.3224 -0.2109  0.1620
41006W        W49606  25.082   6.318  11.615 -0.0240 -0.0460  0.0223
41007W        W49607  23.828   5.357   3.721  0.0836  0.0089  0.2184
41008W        W49608  15.197   0.067  24.821 -0.2907 -0.0403  0.2047
41009W        W49609  21.917   0.923  18.007  0.1226 -0.3206  0.1580
41010W        W49610  25.505   3.309  23.778 -0.0827 -0.0264  0.1483
41011W        W49611  14.922   0.063  16.362  0.2880  0.1504  0.2886
41012W        W49612  11.422   1.374   3.030  0.0258 -0.1975  0.0849
41013W        W49613  29.430   7.574   4.943  0.4118  0.1473  0.0252
41014W        W49614  25.436   2.560   7.874  0.0696  0.1108 -0.0359
41015W        W49615  16.294   7.046   1.349 -0.0477 -0.0562  0.0785
41016W        W49616  12.754   6.619  16.300  0.0990 -0.3275  0.0524
41017W        W49617   2.967   2.315  22.770  0.0228 -0.3320 -0.2957
41018W        W49618  28.725   7.438   8.197  0.3698  0.1395  0.3123
41019W        W49619   7.383   4.649  17.074 -0.0411  0.0064  0.1311
41020W        W49620   0.396   1.960  24.289 -0.0504  0.1026 -0.1967
41021W        W49621  11.639   3.259  25.365 -0.0056 -0.1192 -0.1657
41022W        W49622  15.901   4.587  21.398  0.0161  0.0169 -0.0244
41023W        W49623  30.299   3.640  21.516  0.1281 -0.0143  0.2393
41024W        W49624  10.057   6.852   9.576  0.0239  0.0974  0.3918
41025W        W49625   1.900   5.039   7.148  0.1631  0.0713  0.3037
41026W        W49626  17.747   4.559  19.143  0.0394  0.0849  0.2851
41027W        W49627  10.713   2.884   2.329  0.2270  0.0651  0.0439
41028W        W49628  22.825   5.649  25.992 -0.1809  0.3739 -0.1383
41029W        W49629  11.056   2.186  20.205 -0.2769  0.0417 -0.1229
41030W        W49630  29.715   2.251  10.425  0.1569 -0.0109 -0.0041
41031W        W49631   1.042   5.557  10.099 -0.1940 -0.1541 -0.3229
41032W        W49632  23.762   4.168  16.924  0.0311 -0.4544  0.1935
41033W        W49633  16.426   4.350  16.847  0.2901 -0.1058 -0.3619
41034W        W49634  28.205   5.224  16.098 -0.0564  0.0587  0.1677
41035W        W49635   7.338   2.027   0.432  0.1565  0.1661  0.0604
41036W        W49636   9.237   5.479  20.151 -0.0854  0.0649  0.2414
41037W        W49637  25.962   2.127  23.336  0.1684 -0.1353 -0.0928
41038W        W49638  26.218   2.857  11.272  0.0880 -0.1220  0.2786
41039W        W49639   4.456   6.201   6.772 -0.3864 -0.1219  0.1699
41040W        W49640  27.825   4.703  24.771  0.0543 -0.0284  0.2155
41041W        W49641   7.715   1.969   9.693 -0.0960 -0.0164  0.2120
41042W        W49642  22.450   6.302   5.876  0.0690  0.1654 -0.2796
41043W        W49643  25.041   6.083  20.714 -0.3058  0.0825 -0.1078
41044W        W49644  16.644   2.501   6.047 -0.0144  0.2187 -0.0365
41045W        W49645   7.617   2.258  23.164  0.1382  0.4462  0.1560
41046W        W49646   9.121   6.934  17.254  0.0666  0.0622  0.0555
41047W        W49647   9.666   7.330  23.050  0.2151 -0.3276 -0.2372
41048W        W49648  12.053   0.813  25.397 -0.2330  0.1521  0.0454
41049W        W49649  27.118   5.319   8.466 -0.0153 -0.0774 -0.1465
41050W        W49650  16.552   1.675   7.173  0.1856 -0.0233 -0.2266
41051W        W49651  11.360   0.207   1.836  0.0767 -0.0529 -0.1617
41052W        W49652  19.855   4.121  21.870 -0.1021 -0.1632  0.1616
41053W        W49653  15.757   5.550  15.090  0.3187  0.1366 -0.0200
41054W        W49654  28.176   1.596   3.138  0.1702  0.0678  0.0011
41055W        W49655  18.258   1.717   2.471 -0.2618  0.1821 -0.2565
41056W        W49656  26.899   4.582  20.734  0.0191 -0.1010 -0.0284
41057W        W49657   1.785   5.386  25.015 -0.0343 -0.1143  0.1416
41058W        W49658   9.123   2.396   8.508  0.1388 -0.1887  0.0811
41059W        W49659  12.938   1.519   8.620  0.1082  0.0870  0.4326
41060W        W49660  13.384   3.142  20.536 -0.0373 -0.1354 -0.2100
41061W        W49661  15.870   1.738  20.354 -0.2747  0.0850 -0.0441
41062W        W49662   2.654   4.764   0.242  0.2802  0.1519  0.0473
41063W        W49663  24.481   1.280   1.537 -0.1980  0.0041 -0.0595
41064W        W49664   3.840   2.497   9.019 -0.1806  0.4687  0.0539
41065W        W49665  15.498   1.061  24.046 -0.1970 -0.2088 -0.1386
41066W        W49666  19.670   1.077   3.264  0.1191  0.1408 -0.1391
41067W        W49667  12.611   4.034  26.027  0.1127  0.4497 -0.0539
41068W        W49668   0.309   5.214  11.136 -0.1146 -0.0475  0.2696
41069W        W49669   9.798   4.635  14.953 -0.0497  0.0465  0.2351
41070W        W49670   5.816   3.592   2.040  0.1032  0.1248  0.1116
41071W        W49671  25.741   3.352  20.584 -0.1634  0.1846  0.2978
41072W        W49672  22.750   2.186  25.379  0.2455  0.0774  0.1541
41073W        W49673  20.114   3.010  16.828  0.1665 -0.1732 -0.0971
41074W        W49674   0.889   5.368   5.853  0.2914  0.0338  0.0592
41075W        W49675  26.300   5.740  11.353 -0.2354  0.2481  0.1209
41076W        W49676   0.262   5.897   5.682 -0.0621  0.0323  0.1272
41077W        W49677   5.994   5.770   8.372 -0.2649 -0.3297 -0.1688
41078W        W49678  21.231   7.483  25.204  0.0831 -0.1630  0.1304
41079W        W49679  19.226   3.894  24.641  0.1818  0.1413 -0.1905
41080W        W49680  13.238   1.112  18.279  0.0453 -0.2946  0.1331
41081W        W49681  23.067   4.613   3.871  0.2916  0.0331 -0.1797
41082W        W49682  19.928   1.283   0.514  0.1420 -0.0090  0.0333
41083W        W49683  29.689   3.434  21.689 -0.2350  0.1497 -0.0100
41084W        W49684  30.958   6.463  10.744  0.0891  0.0248 -0.1279
41085W        W49685  28.039   0.482   5.705 -0.1688  0.1420 -0.0454
41086W        W49686   5.744   3.010   9.691  0.0222 -0.1073 -0.0668
41087W        W49687   4.630   0.865   6.359 -0.0180 -0.2492 -0.2413
41088W        W49688   0.522   0.473   6.467 -0.2551 -0.0366  0.1167
41089W        W49689   1.621   5.127  20.716 -0.0355 -0.0842  0.0593
41090W        W49690  27.824   5.811  25.077  0.1322  0.0800  0.1656
41091W        W49691  13.226   3.284  24.989  0.1446  0.0112  0.1840
41092W        W49692  29.606   5.387   3.467  0.1585  0.6315 -0.0134
41093W        W49693  17.406   0.912  14.996  0.2442  0.1418  0.0154
41094W        W49694   0.687   7.585   2.835  0.0058 -0.0880 -0.1717
41095W        W49695   0.782   5.827   7.397  0.0883 -0.1005 -0.1159
41096W        W49696  17.849   1.449  17.984 -0.0699 -0.1312  0.1590
41097W        W49697  19.492   5.073   0.181  0.2685 -0.2367  0.0772
41098W        W49698  24.966   7.565   9.594 -0.1134 -0.0588  0.0139
41099W        W49699  18.855   0.209   2.866 -0.3754  0.0639 -0.2623
41100W        W49700  21.639   7.766   0.782 -0.0732 -0.2269  0.1501
41101W        W49701  29.742   7.082   5.823  0.0684  0.1697 -0.1902
41102W        W49702  26.194   1.569  26.374  0.0126 -0.0025 -0.2044
41103W        W49703  13.696   4.525   3.829  0.1514 -0.2499 -0.5038
41104W        W49704  16.473   6.427   4.853 -0.0288  0.0788  0.0366
41105W        W49705  25.671   0.231  19.997  0.0274  0.0572  0.1657
41106W        W49706  27.252   6.418  21.721 -0.1437  0.1812 -0.0174
41107W        W49707  16.270   7.483   5.250 -0.2240  0.0972 -0.0494
41108W        W49708  12.378   2.541  17.723  0.1139  0.3165  0.0354
41109W        W49709  30.720   2.070   3.178  0.3891  0.2044 -0.0331
41110W        W49710   7.302   2.303  25.913 -0.0084  0.2298  0.1871
41111W        W49711   4.130   0.882  18.008  0.2995 -0.1759 -0.0191
41112W        W49712   0.240   6.299   6.376  0.2700 -0.0569  0.1135
41113W        W49713  29.801   3.434  11.190  0.0728 -0.0567 -0.0107
41114W        W49714  24.092   2.814  22.435  0.2035  0.0675  0.6452
41115W        W49715  30.267   6.853  25.031  0.0065 -0.0946  0.1523
41116W        W49716  17.762   4.192  17.666  0.0824 -0.0236 -0.0444
41117W        W49717  19.059   4.816  19.725  0.2254 -0.2414 -0.1230
41118W        W49718  26.217   2.154  22.386 -0.1583 -0.0331 -0.0607
41119W        W49719  23.876   5.650   8.377 -0.1812 -0.0590  0.2075
41120W        W49720  20.445   5.892   7.583  0.4789 -0.0460  0.1433
41121W        W49721  16.354   6.632  16.359 -0.1992  0.3000 -0.1922
41122W        W49722  20.350   6.550   4.284 -0.1162  0.0967 -0.1682
41123W        W49723  23.186   2.757  21.886 -0.1932 -0.2728 -0.0797
41124W        W49724  20.255   0.236   2.447 -0.0259 -0.0810 -0.0797
41125W        W49725  13.912   2.682  25.935  0.0741  0.0857 -0.1386
41126W        W49726   6.102   6.109   5.706 -0.1100  0.3370  0.0830
41127W        W49727  24.067   4.887  23.425 -0.0238 -0.0570 -0.0400
41128W        W49728  15.578   7.224   4.576  0.1645  0.1826 -0.0956
41129W        W49729  20.133   0.110  26.271  0.0694  0.0625 -0.0941
41130W        W49730   5.310   2.526   0.940 -0.0374 -0.0257  0.0097
41131W        W49731  29.726   6.164  19.819  0.2101 -0.0679 -0.1295
41132W        W49732  11.191   5.497  21.080 -0.2088  0.0172  0.1916
41133W        W49733   9.954   7.667  15.548 -0.3755  0.1176 -0.0110
41134W        W49734  25.287   1.118  15.637 -0.1920  0.2809 -0.2623
41135W        W49735   7.849   3.435  24.153 -0.0161  0.1795  0.0363
41136W        W49736  30.276   6.051  22.331 -0.1862  0.3678  0.0101
41137W        W49737  17.072   3.438  17.598  0.3097 -0.1420 -0.1402
41138W        W49738  25.305   7.034  16.539 -0.1993 -0.1340  0.1774
41139W        W49739   2.981   4.949  19.962 -0.1087  0.0013 -0.2439
41140W        W49740  11.257   2.612   7.489 -0.0005 -0.0014 -0.2131
41141W        W49741  20.657   3.513   3.091 -0.0845  0.2118  0.2361
41142W        W49742  23.296   1.717  25.503 -0.4794 -0.0244 -0.2218
41143W        W49743  26.909   0.270   0.689 -0.0102 -0.0624  0.2195
41144W        W49744   5.016   3.021  25.061  0.1833  0.1264 -0.2284
41145W        W49745  21.433   6.116  16.693 -0.3029  0.0559  0.0417
41146W        W49746  17.059   4.161  21.784  0.3044 -0.2881  0.0928
41147W        W49747  15.564   3.815   1.787  0.4392 -0.0375 -0.0933
41148W        W49748  25.081   6.160  15.910 -0.1181  0.1569  0.1302
41149W        W49749  11.958   0.360   3.938  0.0621  0.0210  0.1071
41150W        W49750  10.048   1.090  25.979 -0.1005 -0.1360 -0.0173
41151W        W49751  11.292   0.579  17.821  0.1958  0.2448 -0.0200
41152W        W49752  23.314   2.582   5.737 -0.3674  0.3482  0.4355
41153W        W49753  28.060   3.424   1.267 -0.0888 -0.0439 -0.6127
41154W        W49754  22.811   3.144  22.135 -0.1260  0.0339  0.2703
41155W        W49755   0.801   4.686   2.385 -0.3970 -0.3643  0.0449
41156W        W49756   7.473   5.923   4.889  0.2294 -0.0399  0.1063
41157W        W49757  23.419   0.269  22.109 -0.0741  0.0036 -0.0282
41158W        W49758  15.111   7.260   9.390 -0.0985 -0.3891 -0.0201
41159W        W49759  17.660   4.555  18.652 -0.3092 -0.0870  0.2014
41160W        W49760  19.195   4.382  19.595  0.2595  0.5496 -0.1482
41161W        W49761  21.791   4.793  11.176 -0.2636 -0.1594  0.0135
41162W        W49762   2.610   1.633  23.304  0.0032 -0.0391 -0.1846
41163W        W49763   2.015   5.526   5.282  0.1106 -0.1560  0.1457
41164W        W49764  30.329   4.690  15.655 -0.2057 -0.0660 -0.2486
41165W        W49765  19.887   5.272  25.546  0.0753 -0.0448  0.6911
41166W        W49766  26.989   3.681  19.380  0.1297  0.1649  0.1562
41167W        W49767  11.334   1.176   8.709 -0.2326 -0.0888 -0.1042
41168W        W49768   7.284   2.120   5.977 -0.3728  0.1175 -0.1698
41169W        W49769   6.701   1.714  20.591 -0.3214 -0.0369  0.0462
41170W        W49770  20.295   1.686   8.383 -0.1013  0.3386  0.2418
41171W        W49771  16.061   4.224   0.542  0.0882 -0.0549 -0.2077
41172W        W49772  19.679   5.644   4.891  0.3334  0.0075  0.2971
41173W        W49773   3.573   2.816  10.290 -0.0335  0.0199 -0.0921
41174W        W49774  27.381   1.689   4.687 -0.1709  0.2091 -0.0863
41175W        W49775  30.926   4.115   7.829 -0.0697 -0.0951 -0.1200
41176W        W49776  14.093   5.038   6.711  0.0391  0.2045  0.3741
41177W        W49777   1.962   3.731  26.050  0.3494 -0.0273 -0.0416
41178W        W49778  14.378   0.282   4.535 -0.1019 -0.0877  0.2318
41179W        W49779  21.368   6.965  16.884  0.0293  0.2781  0.0269
41180W        W49780  29.817   7.792   9.662  0.1701 -0.1940 -0.0024
41181W        W49781   6.066   3.857  16.338  0.0590 -0.1599  0.2710
41182W        W49782  29.681   3.911  17.437  0.1358 -0.1294  0.2403
41183W        W49783  15.331   7.140   8.377  0.1062  0.0805  0.1821
41184W        W49784   6.909   4.518  22.109  0.1863 -0.1775 -0.0953
41185W        W49785  20.874   0.158   3.697 -0.2608 -0.2393  0.0761
41186W        W49786  10.380   1.055  23.203  0.0719 -0.2455 -0.0584
41187W        W49787   8.884   0.386   3.285 -0.1906  0.0280  0.1033
41188W        W49788  11.711   5.737   7.838  0.2151 -0.2725  0.0021
41189W        W49789   5.369   6.472  17.698  0.2962 -0.1511 -0.2498
41190W        W49790  27.852   1.941   9.296 -0.3942  0.0322  0.0443
41191W        W49791   0.424   2.145  21.125 -0.1207 -0.1300 -0.0239
41192W        W49792  10.268   5.679  10.219  0.0300  0.0810 -0.0160
41193W        W49793  26.366   3.286   0.627 -0.2486  0.0976 -0.3120
41194W        W49794  23.142   0.629   6.530  0.2812 -0.0297  0.2714
41195W        W49795  10.911   2.228  24.794 -0.1229  0.3616 -0.0451
41196W        W49796  11.596   5.079   4.858 -0.0461 -0.0240  0.0001
41197W        W49797  29.232   6.193  19.400 -0.0455 -0.0515 -0.3669
41198W        W49798  14.480   5.086   5.465 -0.2448 -0.0454 -0.1370
41199W        W49799  19.248   6.657   2.681  0.4481  0.0738 -0.1426
41200W        W49800   5.377   4.519   3.240  0.0021 -0.1287 -0.0999
41201W        W49801  26.883   4.317  25.887 -0.0685 -0.0351 -0.2028
41202W        W49802   9.419   0.449  16.200  0.2018  0.0691 -0.0637
41203W        W49803   3.415   6.236  24.156 -0.0079  0.1446 -0.0419
41204W        W49804  13.304   1.852  21.600 -0.0081 -0.1528 -0.1859
41205W        W49805  13.065   1.564   3.714  0.0669 -0.1893 -0.1516
41206W        W49806   9.837   2.808  17.021 -0.2844  0.3530 -0.2232
41207W        W49807  27.332   3.702   2.745 -0.3836 -0.4234 -0.0093
41208W        W49808  17.800   6.593   8.956  0.3064  0.2432  0.0365
41209W        W49809  17.942   5.550  23.260 -0.4482  0.0479 -0.0166
41210W        W49810   8.849   7.655  21.675 -0.0039 -0.0847  0.3096
41211W        W49811  30.493   7.245  18.518  0.2141  0.0181 -0.1312
41212W        W49812   2.620   6.732   3.605  0.1465  0.0478  0.0689
41213W        W49813  20.110   3.010   4.866 -0.2500  0.2863  0.2256
41214W        W49814  11.947   4.713   6.557  0.4878  0.0839 -0.0375
41215W        W49815  17.060   3.345   3.659 -0.1451 -0.1723  0.1884
41216W        W49816  22.773   6.871  20.597 -0.1174 -0.0321  0.2002
41217W        W49817  22.475   2.541   6.989  0.1679 -0.0018 -0.0216
41218W        W49818  14.838   3.142  21.992 -0.1908 -0.0096  0.0276
41219W        W49819  24.384   5.113   8.898 -0.0840 -0.1151  0.1108
41220W        W49820  25.358   0.782  23.831 -0.0465  0.0698  0.0157
41221W        W49821  15.953   3.574  26.162 -0.1113 -0.2404  0.2516
41222W        W49822  19.056   1.838  22.187  0.2596  0.1493 -0.0966
41223W        W49823   6.097   1.662   5.537 -0.1745  0.2469 -0.1397
41224W        W49824   8.454   6.214  17.199 -0.0949 -0.1247 -0.0661
41225W        W49825  22.729   7.629   6.108  0.1097  0.1679 -0.1888
41226W        W49826   3.167   2.186   0.681 -0.1029 -0.2457  0.0624
41227W        W49827  26.589   7.218   7.862  0.0311 -0.0088  0.0808
41228W        W49828  19.576   3.005  17.893 -0.1885  0.2236  0.1750
41229W        W49829  20.224   0.321   8.981  0.1575 -0.2193  0.0180
41230W        W49830  30.894   0.418  15.913  0.2589 -0.3909 -0.0898
41231W        W49831  16.491   0.982  22.784  0.0724  0.2169  0.0564
41232W        W49832  24.178   1.924  21.987 -0.1841  0.1074 -0.0381
41233W        W49833   2.501   6.247   6.352  0.0845  0.0518  0.0500
41234W        W49834   7.264   2.216   3.321 -0.0240  0.1709  0.1402
41235W        W49835   8.045   5.630  24.316 -0.1642  0.0638 -0.0772
41236W        W49836   3.584   5.867  19.924  0.0865 -0.1434 -0.0505
41237W        W49837  30.236   2.255   1.720 -0.2951  0.2077  0.1393
41238W        W49838  26.718   5.675  19.284 -0.1610  0.0022  0.1223
41239W        W49839  13.720   7.760   0.509 -0.0996 -0.0279 -0.2728
41240W        W49840   7.835   5.798  18.618 -0.0350 -0.1035 -0.1377
41241W        W49841   3.063   1.003  24.999 -0.1170  0.0605  0.2877
41242W        W49842   3.339   0.542   3.969  0.1657 -0.1697 -0.0143
41243W        W49843  24.266   3.583  18.957  0.0390  0.0819  0.1266
41244W        W49844  26.499   1.675   3.840  0.1927 -0.1365 -0.1162
41245W        W49845  21.899   1.000  20.527  0.2969 -0.2276 -0.1125
41246W        W49846  22.960   2.294  19.318  0.1054  0.1309  0.0757
41247W        W49847  15.818   1.429  23.801  0.2135 -0.2317 -0.0118
41248W        W49848  11.763   6.009  22.253  0.2773  0.0894 -0.0518
41249W        W49849   7.288   5.774  20.832 -0.1413  0.1198  0.2427
41250W        W49850  25.334   2.680  26.005  0.1369 -0.0057  0.1519
41251W        W49851   8.428   4.345  23.144  0.4065  0.1075 -0.1435
41252W        W49852  13.453   1.735   5.363  0.3170 -0.0232 -0.0777
41253W        W49853   6.417   3.108   3.035 -0.2665 -0.2095  0.0450
41254W        W49854   3.741   5.718   9.167 -0.0000  0.2454  0.1566
41255W        W49855  22.062   3.079   2.524 -0.1275  0.2574  0.0816
41256W        W49856   0.681   7.060  16.286 -0.0167  0.1850  0.0999
41257W        W49857   1.925   4.214   4.876  0.1082 -0.0812 -0.0758
41258W        W49858  13.734   4.880  21.847  0.1185 -0.0276 -0.0329
41259W        W49859  28.728   5.190  21.832  0.1363  0.1532  0.0219
41260W        W49860  15.168   4.676  23.907  0.1603 -0.1026 -0.0815
41261W        W49861   4.697   1.544   2.143 -0.0139  0.1636 -0.2288
41262W        W49862  24.318   3.339  20.427  0.0814 -0.1795 -0.1191
41263W        W49863  14.208   4.816  20.127  0.0997 -0.0547 -0.4038
41264W        W49864  25.577   0.393   4.073  0.1001  0.0732 -0.0396
41265W        W49865   5.566   6.281   3.446  0.1683  0.1027  0.1419
41266W        W49866  26.278   5.977   4.538  0.0726 -0.0362  0.2742
41267W        W49867  13.438   2.766  25.781  0.1670 -0.0037 -0.2777
41268W        W49868   7.358   0.444   8.930 -0.1089 -0.1463  0.2720
41269W        W49869  20.551   0.817   8.894  0.3775 -0.1572 -0.1898
41270W        W49870   8.768   6.499   2.874  0.0484  0.0206 -0.1114
41271W        W49871  10.386   4.284  24.168 -0.0799 -0.1355 -0.1312
41272W        W49872  22.117   2.740   2.914 -0.0899  0.3425  0.2822
41273W        W49873   0.807   6.705   2.154  0.3378 -0.1210 -0.0030
41274W        W49874  30.821   6.076   2.121  0.1372  0.1774 -0.0102
41275W        W49875   9.480   1.082  21.584 -0.2221 -0.0413 -0.1052
41276W        W49876  23.642   2.030  26.115 -0.3805  0.0961 -0.2219
41277W        W49877   5.768   1.029   4.385  0.0283  0.0782  0.0357
41278W        W49878  29.278   6.471  18.385  0.0795  0.3376  0.1838
41279W        W49879  12.811   7.353   6.065 -0.1534  0.1064  0.0178
41280W        W49880  27.251   5.000  21.496  0.1255  0.0839  0.1105
41281W        W49881  20.420   2.758  22.866  0.1464  0.1211 -0.0593
41282W        W49882  19.499   5.041  25.335 -0.0556 -0.1771  0.1428
41283W        W49883  20.135   2.377  10.609  0.1326 -0.2354 -0.2490
41284W        W49884  26.607   6.012   7.959 -0.1823 -0.1807  0.0990
41285W        W49885   3.922   5.556   1.600 -0.1328  0.0320  0.0695
41286W        W49886  30.542   3.481  10.516  0.0682  0.3428 -0.2369
41287W        W49887  27.314   0.257   3.361  0.1139  0.2441 -0.1169
41288W        W49888  23.227   3.955  22.376  0.1356  0.0592  0.0644
41289W        W49889  15.662   1.524   8.747 -0.2237  0.0865 -0.2187
41290W        W49890  10.284   0.053   9.739 -0.1480  0.0407 -0.0439
41291W        W49891  28.180   4.582  16.904 -0.4209  0.2412 -0.1497
41292W        W49892  14.998   3.608   5.346  0.3064  0.4471  0.3507
41293W        W49893   4.250   1.689  25.033  0.1036 -0.1345 -0.2029
41294W        W49894   9.366   4.594  22.259 -0.0516 -0.2311  0.0906
41295W        W49895  17.636   3.755   1.000 -0.1761 -0.0581  0.1178
41296W        W49896   0.188   2.961  18.981  0.1202  0.1324  0.0537
41297W        W49897  14.285   1.840  17.573  0.1241  0.3432 -0.0661
41298W        W49898  25.656   4.015   9.356 -0.3256 -0.0056  0.1571
41299W        W49899   3.078   7.482   2.491  0.0376 -0.1775  0.1211
41300W        W49900  24.180   6.981  20.486  0.1868  0.1592 -0.0965
41301W        W49901  28.017   3.397   9.906 -0.3716  0.1761 -0.1397
41302W        W49902   8.169   5.684   3.275  0.1762 -0.0632  0.3039
41303W        W49903   4.041   2.946  20.591 -0.3316  0.0225 -0.1165
41304W        W49904  11.669   2.064  22.077  0.2574 -0.0304 -0.0291
41305W        W49905  13.516   0.243  18.782  0.0773 -0.0320 -0.0091
41306W        W49906   1.489   1.099   5.049  0.2763  0.0601 -0.3318
41307W        W49907  21.525   4.755  17.752 -0.0866 -0.1939  0.3304
41308W        W49908   4.541   4.619   7.881  0.0370  0.0698 -0.2807
41309W        W49909  11.132   6.240  16.974  0.0120  0.1760  0.0474
41310W        W49910  27.179   5.472  21.350  0.1571  0.1621  0.0808
41311W        W49911  31.044   3.583   7.757  0.2033 -0.0143  0.1536
41312W        W49912  31.075   7.541   1.657  0.0198 -0.0808 -0.2030
41313W        W49913   7.503   7.743   5.141  0.0525  0.0092  0.2969
41314W        W49914  17.398   2.196  20.311  0.0043  0.4631 -0.1884
41315W        W49915  15.933   7.382  15.082  0.0934 -0.0765  0.0048
41316W        W49916  20.382   3.755   0.683  0.0245  0.3311 -0.1791
41317W        W49917  30.281   4.075   3.064 -0.3017 -0.2272 -0.0263
41318W        W49918  30.832   3.695  16.881  0.1861 -0.0443  0.0539
41319W        W49919  17.504   6.422   3.023 -0.2496  0.0894  0.1885
41320W        W49920  22.404   7.031  22.738  0.0286  0.0057  0.0808
41321W        W49921  10.454   5.343   0.236  0.0854 -0.1301 -0.4000
41322W        W49922   6.214   1.836  23.060  0.1211  0.2476 -0.1509
41323W        W49923   6.586   5.935   5.783 -0.1595 -0.1254  0.2922
41324W        W49924  17.593   2.939  10.215 -0.1582 -0.0945 -0.0082
41325W        W49925   0.244   5.331  23.373 -0.1155  0.2157  0.0232
41326W        W49926  29.897   7.454   6.105  0.0884 -0.2227  0.1370
41327W        W49927  23.627   3.769   7.084  0.1744  0.0842  0.0491
41328W        W49928  24.192   5.145   8.398 -0.0757 -0.2513 -0.1555
41329W        W49929   6.593   2.928  17.081  0.2110 -0.2068 -0.1814
41330W        W49930   6.874   6.709  24.718 -0.0207  0.1498 -0.0587
41331W        W49931  24.046   4.418  25.576 -0.1497 -0.0070 -0.0180
41332W        W49932  25.743   7.550  20.743 -0.2132  0.1942  0.1246
41333W        W49933  18.402   5.889   7.749  0.0287  0.1421  0.0186
41334W        W49934  15.717   0.373  20.911  0.1945 -0.0519  0.0066
41335W        W49935  26.208   7.669  25.681  0.3505  0.2919  0.0544
41336W        W49936   8.656   1.292   0.011 -0.4165 -0.0351  0.0804
41337W        W49937  16.232   3.593   0.370 -0.2078 -0.2460 -0.0355
41338W        W49938  17.711   1.956  25.156  0.0125  0.0028 -0.0232
41339W        W49939   9.801   6.222  20.058 -0.1766 -0.0561  0.0563
41340W        W49940  18.625   4.259   6.530  0.1481  0.2204  0.1382
41341W        W49941  18.377   1.041  22.052 -0.2849 -0.2969  0.0519
41342W        W49942  10.992   4.733  19.647  0.4686  0.1374  0.0062
41343W        W49943   1.683   6.592  22.641 -0.1916 -0.0211  0.1233
41344W        W49944   6.057   3.094  10.549 -0.0764 -0.0869  0.3687
41345W        W49945  10.804   4.277  23.206  0.3041  0.2318 -0.0862
41346W        W49946  28.717   6.529  10.299  0.0563 -0.2003 -0.0833
41347W        W49947  18.997   2.192  21.787  0.0487  0.5381 -0.0383
41348W        W49948  18.977   6.084   6.806 -0.1031  0.2003  0.2392
41349W        W49949   1.932   7.669  17.246 -0.0132 -0.0405  0.1839
41350W        W49950   5.884   3.045   0.791 -0.1378  0.0006  0.0675
41351W        W49951   2.262   5.387   2.551  0.0146  0.0475  0.0633
41352W        W49952  28.956   0.023   3.356  0.2870  0.2144 -0.1400
41353W        W49953  18.179   4.692   8.341 -0.2668  0.2560 -0.1805
41354W        W49954  25.556   1.386  12.022  0.2336 -0.0669  0.0099
41355W        W49955   3.123   7.561  22.636 -0.3923  0.1406  0.2890
41356W        W49956  20.824   7.790   6.164 -0.0689  0.0010 -0.0469
41357W        W49957  18.283   7.645  23.732 -0.2778 -0.0632 -0.1457
41358W        W49958  12.292   3.711  26.208 -0.1569  0.0874  0.0854
41359W        W49959  29.770   0.662  19.450 -0.1195  0.3276 -0.2323
41360W        W49960  13.896   5.047   5.122 -0.0588 -0.0848 -0.1236
41361W        W49961  24.774   3.718  24.639 -0.0667  0.0819 -0.1828
41362W        W49962  11.935   2.124   5.369 -0.1689  0.0287  0.1738
41363W        W49963  27.945   1.102   1.611  0.1210 -0.2584 -0.2502
41364W        W49964   7.330   3.695  20.191  0.1569 -0.1292 -0.0241
41365W        W49965  26.888   5.622  23.816  0.1477  0.0650 -0.0671
41366W        W49966  11.200   4.331  26.176 -0.1979 -0.1471 -0.1366
41367W        W49967  15.191   2.768   0.129 -0.2198  0.2096  0.0043
41368W        W49968   0.287   3.123  10.469 -0.0316 -0.0089 -0.2246
41369W        W49969  10.488   1.100   8.250  0.2136  0.1278 -0.1460
41370W        W49970  19.642   3.673  26.397  0.0426 -0.0192  0.1508
41371W        W49971   5.964   2.662  24.215  0.0189  0.0023  0.1667
41372W        W49972  17.012   6.065  19.386  0.0697 -0.0415 -0.1484
41373W        W49973   5.084   3.891  11.437 -0.2669  0.1081 -0.0855
41374W        W49974  20.236   5.189  15.081  0.2246  0.0851  0.4113
41375W        W49975  11.567   5.528   3.653  0.0177 -0.0412  0.2306
41376W        W49976   2.070   6.650  16.537  0.0117  0.0836 -0.2282
41377W        W49977  23.202   7.576  19.707 -0.1779 -0.3637 -0.3845
41378W        W49978  25.722   3.832  18.538 -0.1455 -0.1193 -0.2586
41379W        W49979  26.092   2.884   9.511  0.3351  0.3086 -0.0489
41380W        W49980  19.780   0.071   5.135  0.3776 -0.0747  0.1621
41381W        W49981  28.395   1.205  26.266 -0.1533 -0.2061  0.3624
41382W        W49982  18.898   5.070   0.047 -0.0879  0.1157  0.2253
41383W        W49983  29.880   1.611   5.365 -0.1046 -0.1271 -0.1320
41384W        W49984   9.640   5.799  26.348  0.0680 -0.2341  0.1575
41385W        W49985  18.944   4.005   0.752 -0.0205 -0.1075  0.1911
41386W        W49986  11.098   2.174   8.810  0.2315 -0.0039  0.3026
41387W        W49987  18.966   7.408   5.851 -0.2260 -0.1597 -0.3120
41388W        W49988   3.862   0.580   9.537  0.0682 -0.2378 -0.1307
41389W        W49989  11.195   5.950   4.506 -0.0950 -0.0154  0.0646
41390W        W49990  12.049   3.363  19.142 -0.2334 -0.1193  0.1370
41391W        W49991  14.192   3.568  19.439 -0.0711  0.2690 -0.1641
41392W        W49992  13.676   6.903  17.841 -0.2954 -0.0642 -0.4882
41393W        W49993  21.999   5.352   3.596 -0.1869  0.1087  0.0394
41394W        W49994  28.206   2.135   0.380  0.0492 -0.2141  0.1647
41395W        W49995  18.048   1.307  10.172 -0.1780  0.3553 -0.0631
41396W        W49996  28.705   1.518   8.182 -0.0173 -0.0934 -0.1539
41397W        W49997   4.593   6.735  10.610 -0.1074 -0.0651 -0.4101
41398W        W49998   2.228   3.535   8.930 -0.0972  0.1785  0.2617
41399W        W49999  19.564   1.170   8.072  0.3105 -0.0397  0.2511
41400W        W50000  15.201   4.013  26.311  0.0640  0.0651 -0.0350
41401W        W50001  26.856   7.357   2.278  0.0413  0.2738  0.0261
41402W        W50002   0.105   1.071  25.425 -0.0478  0.1672 -0.1215
41403W        W50003  24.343   3.603  17.976  0.2678  0.1672  0.1320
41404W        W50004   9.069   3.590   0.559 -0.3270  0.1200 -0.2908
41405W        W50005  12.546   2.427   3.777  0.1626  0.0312  0.1546
41406W        W50006   1.515   3.402  26.295 -0.0714  0.0280  0.0709
41407W        W50007  17.125   3.837   4.169 -0.1546  0.1904 -0.2884
41408W        W50008  29.900   2.187   4.161  0.0554 -0.3484  0.1446
41409W        W50009   9.385   0.692   6.830  0.1219 -0.0629  0.3095
41410W        W50010  29.569   5.534  10.588  0.0692  0.0148  0.1533
41411W        W50011  16.546   3.046  20.138 -0.3164 -0.0572  0.1418
41412W        W50012  16.180   1.017   6.099 -0.0851 -0.0722  0.2045
41413W        W50013  11.177   2.606  23.597  0.0371 -0.4191  0.0603
41414W        W50014  13.093   4.097  26.090 -0.0099 -0.2336  0.2330
41415W        W50015  22.414   0.165  24.930  0.3943 -0.1234 -0.3812
41416W        W50016  21.922   4.425  19.909 -0.2310 -0.2584  0.2196
41417W        W50017  15.647   2.767  25.982  0.0760 -0.0766 -0.1327
41418W        W50018   1.189   1.966   2.918 -0.0495 -0.0826 -0.0305
41419W        W50019  14.180   2.078  17.140 -0.0794 -0.1436  0.0362
41420W        W50020   7.885   2.298   2.488  0.0622 -0.0001  0.3531
41421W        W50021  30.127   0.762   7.653  0.0210 -0.0642 -0.1844
41422W        W50022  24.226   2.466   4.100  0.1722 -0.0339  0.4249
41423W        W50023  12.332   7.645  16.899 -0.0366  0.3878  0.0393
41424W        W50024  13.442   6.255   8.774 -0.0625  0.0470 -0.1433
41425W        W50025  17.639   1.323   7.489 -0.0413 -0.2755 -0.1371
41426W        W50026  16.533   1.093   9.178  0.1075  0.3702  0.0491
41427W        W50027  23.116   1.022  18.634  0.0761  0.1839  0.0293
41428W        W50028  12.458   7.692   3.030 -0.2273 -0.0006  0.0004
41429W        W50029  28.503   3.560  20.039 -0.1003  0.0089 -0.0961
41430W        W50030   4.003   5.370  17.869  0.1222  0.1216  0.0382
41431W        W50031   4.858   2.726   3.172  0.0713  0.2761 -0.2785
41432W        W50032   7.545   1.396  21.701  0.3512 -0.2198 -0.4124
41433W        W50033  20.529   4.334   1.340  0.1684  0.1246  0.1925
41434W        W50034  22.320   7.570   9.020 -0.1813 -0.2238  0.0428
41435W        W50035  27.052   4.200   5.180 -0.1636 -0.0544  0.3591
41436W        W50036  10.060   0.593   2.907  0.1341  0.1708 -0.1149
41437W        W50037  18.595   6.697   3.234  0.0587 -0.0310  0.2760
41438W        W50038  24.297   6.802   5.921  0.2174  0.1668 -0.1693
41439W        W50039  20.994   2.125   0.425  0.3430 -0.2411  0.4348
41440W        W50040   9.708   6.446  23.330 -0.1376  0.0981 -0.0368
41441W        W50041   8.632   7.534   4.484  0.0457  0.2529 -0.1980
41442W        W50042  24.300   7.625  25.588 -0.1214 -0.1700  0.3002
41443W        W50043   1.422   4.600  17.319  0.0667  0.0737  0.0480
41444W        W50044  21.554   4.723  18.391 -0.0102  0.0061 -0.0660
41445W        W50045   5.405   2.666   7.339  0.0694  0.1400 -0.0480
41446W        W50046  20.281   0.060   9.888  0.0063 -0.0768  0.4757
41447W        W50047  10.736   0.618   0.033 -0.3778 -0.0570 -0.1858
41448W        W50048  12.455   6.222  15.388 -0.1309 -0.0446 -0.2458
41449W        W50049  28.949   4.160   6.104 -0.0285  0.1607  0.0086
41450W        W50050  13.681   2.759  18.208 -0.0310  0.0534 -0.1696
41451W        W50051   6.090   4.147  24.879  0.1875  0.1433 -0.0584
41452W        W50052   7.752   7.613  15.835  0.1232 -0.0317  0.0779
41453W        W50053  27.365   4.232  22.315 -0.0347 -0.1165 -0.1581
41454W        W50054   3.152   2.240  24.977  0.5594  0.0727 -0.0731
41455W        W50055  23.711   6.644  19.639 -0.0685 -0.5058 -0.0956
41456W        W50056   6.746   5.055  18.691  0.0728  0.1388 -0.1758
41457W        W50057  20.981   0.726  21.816  0.1271 -0.1774  0.0085
41458W        W50058   6.888   7.074   3.446 -0.0181  0.0241 -0.0524
41459W        W50059  23.051   0.184  23.641  0.1010 -0.1349 -0.3892
41460W        W50060  11.357   3.313  24.815 -0.3089 -0.0346  0.3476
41461W        W50061  10.412   3.347   1.067 -0.1034 -0.1120  0.2186
41462W        W50062  18.644   6.559   9.337  0.0215 -0.0679  0.0147
41463W        W50063  20.680   7.007  17.662  0.0004 -0.1437 -0.3164
41464W        W50064  12.245   1.385  16.370  0.1184 -0.0018 -0.1032
41465W        W50065   0.257   6.345  18.685  0.3055  0.0831  0.1753
41466W        W50066   3.144   6.165   2.594  0.1379  0.3234 -0.0547
41467W        W50067  26.794   5.072  22.289  0.0411 -0.0231  0.0188
41468W        W50068   2.628   0.371   1.047  0.0102  0.1407  0.2783
41469W        W50069   4.763   6.346   1.261 -0.2206 -0.2454 -0.1423
41470W        W50070  13.729   3.959   0.555  0.0767 -0.0433  0.1825
41471W        W50071  22.166   6.955  20.411  0.1371  0.0029 -0.2130
41472W        W50072   1.848   0.325  25.825 -0.4195  0.0590 -0.1256
41473W        W50073  24.082   2.938  20.238  0.1311  0.2026  0.0575
41474W        W50074   0.253   4.522  10.271 -0.0767  0.0607  0.1152
41475W        W50075  30.810   7.487   5.001 -0.1328  0.0058  0.1268
41476W        W50076  28.992   5.253  19.910  0.0283  0.3984 -0.0209
41477W        W50077  25.378   6.313  24.439  0.0016 -0.1684  0.3274
41478W        W50078  20.864   3.509   9.885 -0.0806  0.0709  0.1205
41479W        W50079  24.409   4.108  19.947  0.2232 -0.1891  0.2488
41480W        W50080   8.895   0.386   0.392 -0.1488  0.1007 -0.3928
41481W        W50081  18.563   5.138  18.041 -0.2065 -0.1011 -0.1410
41482W        W50082  21.719   1.831  19.960 -0.1523 -0.0134  0.0456
41483W        W50083  14.644   7.751   4.141 -0.1033  0.0744  0.1427
41484W        W50084  31.103   7.274   7.811  0.1555 -0.0069 -0.2538
41485W        W50085   4.023   2.397   3.460 -0.0911 -0.1149 -0.0720
41486W        W50086   1.867   4.083   3.351  0.2211  0.2550  0.1099
41487W        W50087   4.914   5.006   4.976  0.2701 -0.1439 -0.2211
41488W        W50088  19.956   1.613  16.753 -0.0562  0.1086  0.1576
41489W        W50089   7.352   6.555  10.463 -0.0849  0.1017  0.3232
41490W        W50090  19.381   4.171   1.125  0.1153 -0.1394 -0.1286
41491W        W50091   7.612   1.041  19.318 -0.2614 -0.1578  0.0771
41492W        W50092  14.372   0.221  15.405 -0.2434 -0.0250 -0.0782
41493W        W50093  29.890   1.474  17.747 -0.1217  0.2966 -0.3165
41494W        W50094  24.690   5.241  22.367 -0.1363  0.0493  0.1361
41495W        W50095  21.465   2.743   8.433 -0.1512  0.0251 -0.0717
41496W        W50096  15.125   0.769   4.633  0.2824  0.4063  0.0839
41497W        W50097  13.290   5.954  23.255 -0.1693  0.0664 -0.0365
41498W        W50098  30.687   1.000  10.603 -0.0087  0.2047 -0.0214
41499W        W50099  13.392   4.978  18.124  0.2093 -0.1649 -0.3712
41500W        W50100  10.912   0.560  25.263 -0.0698  0.0794 -0.2170
41501W        W50101  20.255   4.789  23.784  0.1506 -0.1033  0.0452
41502W        W50102  26.840   7.710   7.390  0.3360  0.2782  0.0585
41503W        W50103  23.171   7.355  24.692 -0.0614 -0.3559 -0.0053
41504W        W50104   0.965   3.255  21.491  0.2027 -0.0297 -0.0802
41505W        W50105  15.945   1.917  23.623  0.1443 -0.0833 -0.2281
41506W        W50106  27.408   6.002  25.892  0.0734  0.0415 -0.1977
41507W        W50107   0.311   4.923  26.380 -0.2298  0.1279  0.0034
41508W        W50108   2.806   0.425   7.564  0.1987  0.0488  0.1543
41509W        W50109   0.858   4.424   1.360  0.0051 -0.0390 -0.1859
41510W        W50110  17.134   0.722  18.618  0.2939 -0.0469 -0.1679
41511W        W50111  25.296   2.367  24.519  0.1277  0.0724  0.1831
41512W        W50112  26.410   3.539   1.533  0.2628  0.1137  0.0409
41513W        W50113  17.230   4.103   6.730 -0.0975 -0.0687 -0.0604
41514W        W50114  17.421   2.938  25.904  0.0794 -0.2445 -0.1679
41515W        W50115  29.802   5.751  16.332 -0.0001 -0.0520 -0.2219
41516W        W50116   4.318   0.559  18.451  0.2422 -0.0514  0.1209
41517W        W50117  12.796   3.651  20.010 -0.0213 -0.0451 -0.0523
41518W        W50118   2.445   1.612   5.371  0.0012  0.3405  0.2323
41519W        W50119   4.658   3.501  17.356  0.6234  0.0426  0.0950
41520W        W50120  10.621   0.128   9.364  0.0320 -0.0478  0.0394
41521W        W50121  22.946   5.872  15.449  0.0347 -0.2048  0.1273
41522W        W50122   3.508   0.263  17.813 -0.1047  0.2306  0.0452
41523W        W50123   1.602   3.249   5.268 -0.0376  0.0602 -0.2244
41524W        W50124  16.849   2.967   2.370  0.4945  0.0190  0.1316
41525W        W50125  16.023   6.010  10.792  0.1499  0.0784  0.1944
41526W        W50126  23.085   1.485   9.285  0.1844  0.0027  0.0255
41527W        W50127  28.497   5.353   8.271  0.0585 -0.2055  0.4103
41528W        W50128  24.752   6.656   0.682 -0.2838 -0.0038  0.0008
41529W        W50129  12.119   4.680  21.181  0.0509  0.2026  0.1425
41530W        W50130  12.675   4.810   0.576 -0.0519  0.2935 -0.3359
41531W        W50131   1.642   3.133   7.644  0.0835  0.0150  0.1812
41532W        W50132  16.737   2.977  10.467 -0.3252  0.3033 -0.0069
41533W        W50133   3.342   2.488  23.768 -0.0473 -0.1934  0.0628
41534W        W50134   1.973   5.169   4.838  0.0827  0.0797 -0.3158
41535W        W50135   2.927   7.273   7.615  0.4018 -0.0900  0.0437
41536W        W50136   6.293   4.061   2.751  0.1906  0.0067 -0.1250
41537W        W50137  21.255   3.050  17.944 -0.3458  0.0273 -0.0920
41538W        W50138  14.974   6.232  16.916  0.2272  0.0904  0.1129
41539W        W50139   3.937   7.595   8.140 -0.1920 -0.0415  0.0363
41540W        W50140  21.829   2.822   1.433  0.0047  0.0973  0.1767
41541W        W50141  14.583   5.332  23.523 -0.1796 -0.0819 -0.2164
41542W        W50142   5.458   0.019  17.482 -0.0381 -0.0054  0.1563
41543W        W50143   2.810   6.519   4.888  0.0103 -0.1926  0.0508
41544W        W50144  16.206   1.991   3.577 -0.1964 -0.1910  0.2450
41545W        W50145   8.373   7.286   6.513  0.0070  0.2453 -0.1358
41546W        W50146  17.340   0.914  20.687 -0.0583  0.0619 -0.1714
41547W        W50147  16.290   6.007   0.150 -0.0083  0.0690 -0.1582
41548W        W50148   0.408   0.153   5.527  0.0180 -0.0534 -0.1800
41549W        W50149  18.062   3.196  10.319  0.2214 -0.1390  0.0102
41550W        W50150   8.602   1.381  21.389  0.0989 -0.0425 -0.0328
41551W        W50151  14.635   4.910   2.764 -0.0479  0.0725  0.1204
41552W        W50152   0.841   6.901  19.717  0.1535 -0.0912  0.1861
41553W        W50153   6.497   2.517   4.239  0.3356 -0.2629  0.2524
41554W        W50154  21.593   6.629  17.128 -0.2758  0.1852 -0.2146
41555W        W50155  13.169   5.463  23.437 -0.2579 -0.2405  0.3031
41556W        W50156  20.063   1.133   4.162  0.0720  0.0072  0.1142
41557W        W50157   1.255   2.521  20.453  0.1356 -0.1866  0.1890
41558W        W50158  13.090   1.089  19.377 -0.0887 -0.1179  0.0707
41559W        W50159  16.725   3.010  24.244 -0.0709 -0.0732 -0.1859
41560W        W50160   4.335   4.773  25.880  0.0838  0.1247 -0.2742
41561W        W50161  25.018   5.718   3.937 -0.0772 -0.0048  0.1031
41562W        W50162  26.276   1.881  21.532 -0.0698 -0.0466  0.1544
41563W        W50163  12.043   2.517  22.314 -0.0973  0.0841 -0.1949
41564W        W50164  19.880   1.228  23.423  0.1062 -0.1155  0.0674
41565W        W50165   0.927   5.344   1.125  0.0338  0.2506 -0.1213
41566W        W50166  20.495   6.326   0.092 -0.0035  0.1734 -0.1539
41567W        W50167  27.326   6.493  24.354  0.0635 -0.0177 -0.4698
41568W        W50168  17.189   2.376   9.019  0.2670  0.1476  0.0046
41569W        W50169  30.301   2.584  24.596 -0.2031 -0.1250 -0.1300
41570W        W50170  14.186   2.553   6.984  0.1474 -0.1078 -0.2532
41571W        W50171   3.484   7.113   6.879  0.0519 -0.1743  0.2902
41572W        W50172  16.135   4.069   4.633  0.2548  0.2149  0.3587
41573W        W50173  23.104   0.209  18.494  0.0305 -0.0958  0.0039
41574W        W50174  24.799   0.532   8.114  0.1465 -0.1195 -0.0463
41575W        W50175  30.788   6.190  21.211  0.0146  0.1351 -0.3776
41576W        W50176   7.325   2.279  19.774  0.0334  0.3375 -0.4131
41577W        W50177  28.027   3.919   7.716 -0.0596 -0.1402 -0.0019
41578W        W50178  20.827   1.142   5.884  0.2773 -0.1069  0.0950
41579W        W50179   1.537   1.618  17.340  0.0145  0.2434 -0.2809
41580W        W50180  22.773   3.039  25.019  0.1406 -0.0010 -0.0041
41581W        W50181  18.678   5.749  16.654  0.1858 -0.0332  0.0075
41582W        W50182   1.585   6.310  26.391  0.2696  0.1172 -0.1267
41583W        W50183  15.946   1.749   9.289 -0.2841  0.0858  0.0362
41584W        W50184   0.835   2.575   5.097 -0.1935 -0.4363 -0.0253
41585W        W50185  11.960   7.206   4.304  0.0384  0.1211 -0.1307
41586W        W50186   2.563   5.429  21.551 -0.1186  0.2018 -0.0976
41587W        W50187  14.116   1.520  21.515  0.1665  0.2995 -0.1192
41588W        W50188   4.672   0.801   5.073  0.1311 -0.1890 -0.1165
41589W        W50189  15.054   7.769  23.023 -0.0770 -0.0965  0.2857
41590W        W50190  21.773   0.165  21.871 -0.2901  0.0975 -0.1085
41591W        W50191  14.978   3.938   0.859 -0.0115 -0.1121  0.0086
41592W        W50192   5.553   4.474  24.068  0.0868  0.0950 -0.1778
41593W        W50193  16.503   3.844  19.437  0.1051  0.1215 -0.1686
41594W        W50194   2.594   0.921  10.120 -0.2419 -0.0227  0.1814
41595W        W50195   3.309   2.092  21.439 -0.0259 -0.0741  0.2264
41596W        W50196  10.486   2.877  11.029 -0.1529  0.0121  0.0251
41597W        W50197  14.083   3.979   9.629  0.0162 -0.1647  0.2196
41598W        W50198  13.639   4.750   4.817 -0.0505 -0.2251  0.0557
41599W        W50199  20.482   4.093   6.324 -0.1496  0.0076  0.1734
41600W        W50200  12.509   5.639   2.730  0.4206 -0.0941 -0.1390
41601W        W50201  23.956   0.956  26.403  0.0487  0.1385 -0.0268
41602W        W50202  28.310   0.777   3.300 -0.0748 -0.3035 -0.0799
41603W        W50203   5.951   7.610   9.701 -0.1087  0.2266 -0.0350
41604W        W50204  17.281   3.307  11.007 -0.0871  0.0526 -0.1162
41605W        W50205  25.108   4.183  20.232 -0.0268  0.1853 -0.0322
41606W        W50206  20.832   7.020   7.971  0.0723  0.0725 -0.2022
41607W        W50207  19.154   6.870  21.936 -0.2026 -0.0194  0.1515
41608W        W50208  28.649   3.424  17.775 -0.2873 -0.2703 -0.1579
41609W        W50209   0.394   3.607  23.313  0.2349 -0.4011 -0.1331
41610W        W50210  21.260   3.091  24.097  0.1597  0.0598  0.1388
41611W        W50211  27.282   4.341   6.815  0.1258  0.4063 -0.1270
41612W        W50212  27.060   3.533   6.944  0.0975  0.0184 -0.1414
41613W        W50213  22.566   1.491   8.917  0.0399 -0.2732  0.0948
41614W        W50214  18.570   5.285  26.146 -0.1864 -0.0845  0.4308
41615W        W50215  10.276   0.189   7.451  0.1232 -0.1308 -0.1006
41616W        W50216  16.735   7.432  16.477  0.4099  0.2147 -0.0313
41617W        W50217  30.454   2.845   4.281  0.1163 -0.0428 -0.1588
41618W        W50218  20.887   2.036   8.335  0.1029  0.0398 -0.1100
41619W        W50219  20.662   5.931   3.366 -0.2192 -0.2118  0.3777
41620W        W50220  16.765   0.166   7.412  0.0434  0.0324 -0.1253
41621W        W50221  27.238   5.533   4.323 -0.1194  0.0389 -0.0402
41622W        W50222  21.577   6.228  15.323 -0.0290  0.1458  0.0906
41623W        W50223  24.458   1.791   5.593  0.1121  0.2035 -0.2043
41624W        W50224   5.793   1.360  24.331 -0.0391  0.1521 -0.3588
41625W        W50225   8.761   3.083  19.857  0.1934 -0.0309  0.2473
41626W        W50226   5.651   5.403   7.167  0.3001  0.0053 -0.2246
41627W        W50227  12.969   3.494  18.078  0.1438 -0.0054 -0.3465
41628W        W50228   3.964   5.094   3.903  0.1582  0.0802  0.0107
41629W        W50229  12.810   4.188   3.874 -0.1133 -0.1416  0.2179
41630W        W50230   8.875   6.462  16.987 -0.0500 -0.1036  0.0400
41631W        W50231  30.723   6.644  25.612 -0.1229 -0.1347  0.1033
41632W        W50232   0.153   0.352  11.063 -0.1506  0.1548 -0.0281
41633W        W50233  15.549   7.268  10.183  0.1252  0.0167  0.0696
41634W        W50234  19.758   5.275   7.668  0.1210  0.0829 -0.0259
41635W        W50235  16.012   0.609   1.781 -0.2003  0.1688 -0.2060
41636W        W50236  30.643   3.359  24.039  0.0890  0.1904 -0.0651
41637W        W50237  22.703   3.199   4.473  0.2110  0.1665 -0.0361
41638W        W50238  21.423   0.624   1.512  0.0855  0.1345  0.3287
41639W        W50239   8.023   5.653  19.125 -0.1752  0.0455  0.1575
41640W        W50240  21.511   5.863  18.243  0.1427 -0.1297  0.1547
41641W        W50241   6.458   2.946   3.855 -0.1052 -0.0766  0.0648
41642W        W50242  13.123   0.124  22.051  0.0780 -0.0609  0.1681
41643W        W50243   4.425   7.638  19.733 -0.0254 -0.2128 -0.3035
41644W        W50244  11.084   5.288   1.863  0.0210  0.3316 -0.4230
41645W        W50245  28.091   3.679  11.475 -0.0667 -0.1558 -0.3106
41646W        W50246  15.927   2.790   3.068 -0.0721  0.2554  0.2688
41647W        W50247  23.427   2.134  15.935  0.0518 -0.3137 -0.0898
41648W        W50248   6.792   2.256   5.178  0.2018 -0.0429  0.3641
41649W        W50249  29.489   0.191   7.886  0.2578 -0.2474 -0.0324
41650W        W50250  22.080   3.917   5.290  0.0605  0.1984  0.1375
41651W        W50251   7.609   0.516  17.459 -0.0118 -0.4211 -0.2357
41652W        W50252  15.670   4.997  19.503 -0.2335 -0.0621 -0.1516
41653W        W50253   5.778   1.549  18.739  0.0711  0.0583 -0.3587
41654W        W50254  12.754   5.811   7.753  0.0837  0.2829 -0.1027
41655W        W50255  11.157   3.391   4.193  0.2473 -0.0438 -0.0190
41656W        W50256  25.473   0.305   1.556  0.0580 -0.2100 -0.0306
41657W        W50257  19.512   7.222   3.870  0.1790 -0.1156 -0.0111
41658W        W50258  16.096   3.300   3.820 -0.1086 -0.0470  0.0179
41659W        W50259  13.386   2.358   0.083  0.1486  0.2479 -0.0376
41660W        W50260  28.140   7.261  22.600 -0.0989  0.0813  0.1795
41661W        W50261  27.664   0.579  21.084  0.1083 -0.2816  0.0500
41662W        W50262  22.783   4.078  23.940 -0.1524 -0.0212  0.1036
41663W        W50263  14.649   7.334  18.048  0.1179  0.0676 -0.0087
41664W        W50264   0.957   5.701  10.553  0.2553  0.0729 -0.0290
41665W        W50265  29.346   6.798  16.951  0.0630  0.3136 -0.1620
41666W        W50266  27.795   3.448   8.910  0.0440 -0.0595  0.1354
41667W        W50267   3.213   4.010   1.510 -0.0243 -0.0740  0.1135
41668W        W50268   5.141   3.459  11.101  0.2226  0.6680  0.0559
41669W        W50269  18.199   5.173   7.345 -0.1341  0.0053  0.1029
41670W        W50270  19.136   6.950  15.967  0.1508  0.0167  0.2736
41671W        W50271  15.947   0.289  24.311 -0.3270  0.0821 -0.0781
41672W        W50272  16.762   1.678  23.744  0.1879 -0.2293  0.0355
41673W        W50273   9.132   3.154   1.191  0.0970 -0.0324 -0.1220
41674W        W50274  27.429   1.233   6.804 -0.0789 -0.1702  0.1332
41675W        W50275   7.029   5.708   1.075  0.1120  0.1640 -0.2376
41676W        W50276   4.749   3.641   0.840 -0.0114  0.0754  0.0701
41677W        W50277  29.671   2.497  15.656 -0.1651 -0.0306 -0.1241
41678W        W50278   1.701   7.294  18.060  0.1834 -0.1573 -0.2059
41679W        W50279   4.914   5.494  15.019 -0.0686  0.0118 -0.0664
41680W        W50280  14.461   4.126   4.634  0.0083  0.3302 -0.2540
41681W        W50281  24.979   0.363   9.589  0.2377 -0.1336 -0.2812
41682W        W50282  25.558   5.269  16.951 -0.1558  0.0373 -0.1548
41683W        W50283  21.061   7.322  19.252  0.3011 -0.0016 -0.0283
41684W        W50284  16.724   6.734  20.333 -0.1862  0.1106  0.5317
41685W        W50285  26.323   7.416   2.667  0.0918 -0.2273  0.1396
41686W        W50286   3.050   7.109   2.947 -0.0411 -0.2065  0.1389
41687W        W50287   2.460   4.837  16.522 -0.0719 -0.2070  0.3144
41688W        W50288  20.924   0.712   1.419  0.2607 -0.0266 -0.2270
41689W        W50289  23.658   5.243   1.822  0.1961 -0.0228  0.0903
41690W        W50290   6.503   3.354  24.816 -0.0026 -0.0839  0.0012
41691W        W50291  22.649   0.716   5.794 -0.0283  0.2801  0.1067
41692W        W50292  15.049   2.015  21.751 -0.0030 -0.0436  0.0037
41693W        W50293  20.460   2.779  22.305  0.1727 -0.2763  0.0746
41694W        W50294   5.053   1.730  24.630 -0.0916  0.1670 -0.0325
41695W        W50295  12.251   3.418   0.203  0.2622  0.0435 -0.0493
41696W        W50296  27.966   0.153   7.868  0.2497  0.2422  0.1088
41697W        W50297  11.136   1.081  15.142  0.0539 -0.1762  0.3388
41698W        W50298  26.437   2.547   5.159 -0.0998  0.2787 -0.2803
41699W        W50299  11.753   5.554  16.079  0.0877  0.1502 -0.0035
41700W        W50300  27.751   2.994  18.062 -0.2361  0.2213  0.0240
41701W        W50301  18.421   5.479   0.899  0.1926  0.1472  0.4008
41702W        W50302   7.518   1.006   7.917 -0.2989 -0.0684 -0.0998
41703W        W50303   8.897   0.333  21.389 -0.0437  0.0764 -0.1373
41704W        W50304  15.602   2.100   4.078  0.0310  0.1165  0.0409
41705W        W50305  17.587   7.477   4.125 -0.1345  0.0763  0.3500
41706W        W50306  30.254   6.134  22.799 -0.2809  0.1302 -0.3236
41707W        W50307   1.856   5.457   9.550 -0.2162  0.1851  0.0921
41708W        W50308  19.633   5.219  19.462  0.1639 -0.1776 -0.1150
41709W        W50309  28.950   2.447  19.684 -0.3864 -0.0126 -0.1030
41710W        W50310   0.564   5.691  17.449 -0.2917  0.0525 -0.0111
41711W        W50311  24.061   0.166  21.490 -0.0776  0.0377 -0.0867
41712W        W50312   3.519   1.212  18.184 -0.4812 -0.0698  0.0646
41713W        W50313   7.950   5.643   1.843 -0.2367 -0.1786  0.2346
41714W        W50314  26.379   3.206  26.236  0.1089  0.0137  0.0420
41715W        W50315   9.590   1.804   6.732 -0.0208  0.1645  0.0570
41716W        W50316  19.575   7.534   0.816 -0.1594 -0.2667  0.0843
41717W        W50317   5.684   1.466   4.731 -0.1129  0.0717  0.1269
41718W        W50318   8.493   1.558  23.318  0.1417 -0.2263  0.0763
41719W        W50319  13.253   4.885   6.444 -0.1896  0.2431 -0.0783
41720W        W50320  25.921   5.152   5.794  0.0769 -0.1329  0.1077
41721W        W50321   4.435   3.892  23.651  0.1073 -0.2552 -0.4414
41722W        W50322  20.265   4.087  19.043  0.2844 -0.0664  0.3173
41723W        W50323  17.860   2.112   9.894  0.0296 -0.0714  0.0179
41724W        W50324  27.047   2.915  21.899  0.2636 -0.0561 -0.0704
41725W        W50325   7.860   3.164  26.178 -0.0987 -0.2465 -0.1839
41726W        W50326  26.172   3.915   7.159  0.2376  0.1104  0.0899
41727W        W50327  21.926   3.478   5.411  0.1215 -0.1424 -0.3791
41728W        W50328  14.350   5.432   5.901 -0.1842  0.1213 -0.3659
41729W        W50329  15.035   5.921  25.207  0.0256  0.0470 -0.0511
41730W        W50330   6.916   2.256  10.226 -0.0906 -0.2353 -0.2605
41731W        W50331  12.790   7.729  17.172  0.0136 -0.0450 -0.1454
41732W        W50332  30.829   6.405  20.790 -0.3026  0.0120 -0.0829
41733W        W50333  11.286   2.400  21.979  0.1367  0.0989 -0.0654
41734W        W50334  26.237   0.658  11.038  0.3508 -0.1149 -0.1081
41735W        W50335   4.976   4.474  23.567  0.2244  0.0928  0.0673
41736W        W50336  27.860   3.579  25.895  0.2506 -0.0403  0.2821
41737W        W50337  11.634   1.137   8.236 -0.0367 -0.3042  0.1127
41738W        W50338   9.626   0.936  25.531  0.1598  0.2992  0.1396
41739W        W50339  24.796   0.239  22.142 -0.2398  0.0618 -0.0090
41740W        W50340  14.907   7.177   2.395  0.1064  0.0010 -0.0756
41741W        W50341  23.957   5.073  20.097  0.0524  0.0364  0.0369
41742W        W50342  11.073   0.963   9.149 -0.4146 -0.0091  0.0632
41743W        W50343   2.628   6.129   9.174 -0.0975 -0.0414 -0.0259
41744W        W50344   4.340   5.020  15.579 -0.0846  0.0403 -0.1997
41745W        W50345  10.728   5.918   0.425 -0.1671 -0.1793 -0.1871
41746W        W50346  30.768   5.425   3.978 -0.0606  0.0243  0.1503
41747W        W50347   2.757   6.745  11.676  0.0377  0.1445 -0.2576
41748W        W50348  30.635   0.587  10.342  0.1420  0.1647 -0.0637
41749W        W50349   4.750   5.888   9.460 -0.0658 -0.1285 -0.0716
41750W        W50350  29.335   6.507  24.432 -0.2136  0.0233 -0.0000
41751W        W50351   7.072   1.460  24.959  0.3165  0.3589  0.0512
41752W        W50352   0.361   0.101   8.186  0.0896  0.2134  0.1918
41753W        W50353  29.813   0.956  18.869  0.0398 -0.1503  0.0052
41754W        W50354  31.001   5.241   9.684 -0.0450 -0.0655 -0.2201
41755W        W50355  15.571   7.628  20.846  0.0531  0.2132  0.0580
41756W        W50356  14.921   3.346   1.307 -0.0984  0.0350  0.1061
41757W        W50357  14.724   0.836   1.292  0.0590 -0.0852  0.1369
41758W        W50358   3.586   0.534   6.381  0.0211  0.0897  0.0813
41759W        W50359  21.880   6.378  18.879 -0.0190 -0.1480 -0.2175
41760W        W50360   1.708   5.069   0.883  0.0718  0.1725  0.1977
41761W        W50361  30.342   2.419  19.931 -0.2750 -0.0354  0.1287
41762W        W50362   0.926   6.835  19.041 -0.0456 -0.3052 -0.0093
41763W        W50363  14.220   4.884  17.192  0.0678 -0.0005 -0.1783
41764W        W50364  10.843   7.185  22.102 -0.2298 -0.2015  0.3122
41765W        W50365  30.833   6.546   8.123 -0.1015  0.0340  0.2125
41766W        W50366   8.030   0.225  24.521 -0.1518 -0.0969 -0.3885
41767W        W50367  17.211   3.631  21.629 -0.2443 -0.1612  0.0517
41768W        W50368  27.727   7.258   7.397  0.1680  0.1323  0.1877
41769W        W50369  29.467   1.231   3.065  0.1362  0.1233  0.0496
41770W        W50370  27.433   7.204   8.195  0.1421 -0.0823 -0.0224
41771W        W50371  13.854   5.452   6.858 -0.1494 -0.0383 -0.1964
41772W        W50372   1.965   0.652  26.225  0.2541  0.1205 -0.0423
41773W        W50373  13.433   6.928  19.287 -0.1145  0.0533 -0.2464
41774W        W50374   3.139   0.304  15.770  0.1938 -0.1087 -0.0114
41775W        W50375   3.965   2.866  20.040  0.0836  0.0219 -0.0460
41776W        W50376   6.786   6.677   5.831  0.1251  0.3486  0.1603
41777W        W50377  20.316   7.204  24.943 -0.1692 -0.2027  0.0338
41778W        W50378   1.910   5.355   8.533 -0.1188  0.0740 -0.3214
41779W        W50379  29.886   4.694  23.583  0.2040  0.0813 -0.3974
41780W        W50380   2.928   2.311   8.146 -0.2192 -0.4181 -0.2051
41781W        W50381  30.089   0.253  17.160  0.1688  0.3295 -0.0272
41782W        W50382  12.446   3.327  22.765  0.1583 -0.0410 -0.1422
41783W        W50383  24.643   6.331   9.004  0.0115 -0.1399 -0.1123
41784W        W50384   6.012   1.010   0.513 -0.1815 -0.2816  0.0258
41785W        W50385   4.009   0.468  16.652 -0.0607  0.2577  0.2623
41786W        W50386  25.734   6.833   1.527 -0.4025 -0.3329 -0.0032
41787W        W50387  15.597   0.672  24.309 -0.0630  0.1833  0.0744
41788W        W50388  13.202   2.199   3.063  0.0990 -0.0089 -0.0519
41789W        W50389  30.176   4.215   5.483  0.0878  0.1442 -0.2946
41790W        W50390   8.570   1.601  20.771  0.3660 -0.1592  0.4726
41791W        W50391   5.504   0.822   7.157 -0.1156  0.1462 -0.0460
41792W        W50392   1.675   1.649  10.890 -0.0289 -0.0341 -0.0251
41793W        W50393   3.407   3.226   9.878 -0.0349  0.2267  0.3518
41794W        W50394  18.620   4.999   0.564  0.0404 -0.0568  0.1527
41795W        W50395   2.760   3.031  15.478  0.1169 -0.3233  0.0141
41796W        W50396   7.615   1.910   5.490 -0.2392  0.0560 -0.4187
41797W        W50397  11.654   2.371   7.165 -0.4616 -0.1785  0.2441
41798W        W50398  31.155   7.784  24.224 -0.0935  0.0808 -0.0149
41799W        W50399  19.941   2.963  11.454  0.4304 -0.2455  0.3493
41800W        W50400  20.008   3.686  21.568 -0.3287 -0.0228 -0.0825
41801W        W50401  22.641   0.989  11.054  0.3234  0.0321 -0.4581
41802W        W50402   4.662   6.696  18.536 -0.4580 -0.1133  0.1390
41803W        W50403  24.105   6.463  20.408  0.0555 -0.2403  0.1630
41804W        W50404   5.199   1.066  11.327  0.0869 -0.0026  0.2551
41805W        W50405  28.648   3.630   6.027 -0.2262  0.2075  0.0499
41806W        W50406  15.755   3.699  25.673  0.2077  0.1321  0.0051
41807W        W50407  27.293   5.343   5.254  0.0016 -0.0330  0.0533
41808W        W50408  15.733   1.838   4.948  0.0630  0.0451  0.1121
41809W        W50409   0.336   0.106  20.186 -0.2706  0.1361  0.3123
41810W        W50410  17.056   6.406   0.278 -0.2756  0.0901 -0.1113
41811W        W50411  20.101   5.989   5.095  0.1071  0.0918 -0.3721
41812W        W50412  13.835   2.445   2.481 -0.1353  0.0721 -0.3863
41813W        W50413   1.587   1.637  22.257 -0.0834 -0.1337  0.0511
41814W        W50414  16.596   2.517  25.611  0.3855 -0.1495 -0.0238
41815W        W50415  11.063   6.478  23.787  0.1286 -0.0077  0.0558
41816W        W50416  12.769   1.069  16.397  0.0653 -0.0424  0.3046
41817W        W50417  18.966   4.265   0.205 -0.2725 -0.3039  0.1662
41818W        W50418  10.375   0.423  19.677 -0.0951 -0.0060  0.0113
41819W        W50419   8.085   5.183  25.594  0.5764 -0.0992  0.0304
41820W        W50420   2.295   4.611  18.661  0.2146 -0.0942  0.2435
41821W        W50421   7.823   4.854  16.824  0.1137 -0.1682 -0.1816
41822W        W50422  14.430   6.053  22.736 -0.0581  0.0517 -0.2881
41823W        W50423  13.101   4.658  16.525 -0.0204  0.0020 -0.0542
41824W        W50424   8.629   1.994  22.428 -0.4387 -0.0599 -0.0407
41825W        W50425   3.315   1.067   3.365 -0.1194  0.0282  0.2008
41826W        W50426  27.398   5.352   8.849 -0.2144 -0.0788 -0.1385
41827W        W50427   8.594   1.392   4.222 -0.1756  0.0255  0.1300
41828W        W50428  11.639   4.772   7.644  0.0261 -0.1210 -0.0077
41829W        W50429   4.915   2.117   8.776  0.2120  0.3721 -0.0575
41830W        W50430  13.070   0.246   0.678  0.1326 -0.2899  0.0792
41831W        W50431  29.963   0.740  15.844 -0.1962 -0.0278  0.0801
41832W        W50432  11.623   7.244   8.371 -0.0452  0.4470  0.2160
41833W        W50433  30.279   5.900  24.732 -0.0263  0.0587  0.0341
41834W        W50434  23.962   4.052  21.513  0.0927  0.4609 -0.1698
41835W        W50435  30.572   1.160   5.296 -0.2977  0.3803 -0.2287
41836W        W50436  25.012   1.936   1.948 -0.2179  0.0629  0.2589
41837W        W50437   7.053   1.182  20.415 -0.0124 -0.0370  0.0348
41838W        W50438   2.708   4.227  15.925 -0.0543 -0.1819 -0.0232
41839W        W50439  23.118   0.596   0.978  0.1045  0.1249  0.3162
41840W        W50440  10.856   0.889  19.439  0.1523  0.0420 -0.2394
41841W        W50441  14.056   1.459   0.923 -0.2120 -0.2824  0.1168
41842W        W50442   0.369   3.161   5.594 -0.2772  0.1128 -0.3574
41843W        W50443  21.242   4.256   3.330  0.0499  0.1839 -0.0978
41844W        W50444  16.423   5.068   8.360 -0.0981  0.1723 -0.1458
41845W        W50445  19.317   6.738  15.263  0.2139  0.4061 -0.1963
41846W        W50446  26.417   6.711  22.446  0.0299 -0.0266  0.2351
41847W        W50447   9.080   0.817  23.720  0.1608 -0.0947 -0.3169
41848W        W50448  12.029   5.469  14.966  0.1759 -0.0397 -0.5551
41849W        W50449  17.834   4.696   4.484 -0.2173  0.1108  0.1736
41850W        W50450  25.951   1.512  17.791 -0.0508 -0.0532  0.2512
41851W        W50451   6.575   2.367   0.386 -0.0896 -0.3772 -0.1557
41852W        W50452   3.259   4.980  23.630 -0.2786 -0.2407 -0.1336
41853W        W50453   3.066   4.383   2.786  0.2376  0.2011  0.2238
41854W        W50454   4.822   7.545   2.446  0.0363  0.2434 -0.1658
41855W        W50455  16.419   0.809  19.475  0.1134  0.2819  0.1931
41856W        W50456   4.077   6.680   6.039  0.6294  0.0885 -0.1063
41857W        W50457   9.491   5.448  21.101 -0.1908  0.0661 -0.0448
41858W        W50458  27.592   7.091  25.077 -0.0209  0.2133 -0.0184
41859W        W50459   5.974   1.479   4.315  0.2558  0.1933  0.1268
41860W        W50460   4.205   5.848  17.529  0.0749 -0.1053  0.0463
41861W        W50461  27.433   3.471  21.140  0.3475 -0.1991  0.0169
41862W        W50462   5.569   2.482  24.006 -0.0648 -0.2821 -0.1208
41863W        W50463  25.261   2.273   8.701 -0.2018  0.0056 -0.0559
41864W        W50464  20.686   4.768   3.671  0.1485 -0.1345  0.1288
41865W        W50465   1.396   0.637   4.897  0.0063  0.1711  0.1588
41866W        W50466   2.829   1.342   3.509  0.1178  0.1967  0.0558
41867W        W50467  11.164   1.307   4.311  0.3854 -0.1751  0.3150
41868W        W50468  11.849   4.102  20.808  0.1814  0.1268 -0.1472
41869W        W50469  27.087   3.845   8.427  0.0488 -0.2672  0.2730
41870W        W50470   4.422   5.315   3.799  0.0515  0.0672 -0.3057
41871W        W50471   7.640   3.345  19.709  0.0437 -0.0548 -0.0131
41872W        W50472   4.987   7.439   9.424 -0.0491 -0.1947 -0.1988
41873W        W50473  15.934   5.340  24.031  0.0394  0.1340  0.1849
41874W        W50474   7.942   3.723   8.986  0.0624 -0.0641  0.0279
41875W        W50475  19.012   3.243  17.917 -0.0278 -0.1789 -0.0318
41876W        W50476  21.212   6.125  22.786 -0.1936 -0.1514 -0.1522
41877W        W50477  23.089   4.125  10.157  0.1406 -0.4915 -0.1141
41878W        W50478  28.454   5.186   7.780 -0.0951  0.1444  0.2727
41879W        W50479  24.638   1.624  17.149  0.2998  0.1523 -0.2189
41880W        W50480  17.138   3.267  10.470  0.0949  0.0603 -0.3001
41881W        W50481   5.141   2.859   9.108  0.2279  0.0391 -0.2320
41882W        W50482  15.896   4.714   8.992  0.1765 -0.3367  0.0869
41883W        W50483   4.563   3.308  25.567 -0.0028 -0.1866 -0.3289
41884W        W50484   8.598   1.407  24.966 -0.0593 -0.0697 -0.2650
41885W        W50485  24.774   2.947   0.889 -0.0132 -0.3930  0.1785
41886W        W50486  22.238   2.265  25.389  0.0722  0.0320  0.0059
41887W        W50487  30.429   0.193  20.470  0.0503  0.2637  0.2326
41888W        W50488  10.431   1.230  21.905 -0.1544  0.0665  0.0715
41889W        W50489  14.876   1.341  24.707  0.1501  0.3401 -0.0832
41890W        W50490   7.436   6.035  20.294  0.0963 -0.1271  0.0332
41891W        W50491   1.506   6.745  15.783 -0.0159  0.2851 -0.1069
41892W        W50492  23.554   0.732  25.651 -0.5497  0.1856 -0.1138
41893W        W50493   8.920   5.918  18.933  0.1311 -0.2392  0.3824
41894W        W50494  17.348   3.122   8.244  0.1119  0.1941 -0.0957
41895W        W50495  29.218   5.357   3.024 -0.0544  0.3153 -0.1022
41896W        W50496  11.442   3.061  22.116 -0.0062  0.0747 -0.1785
41897W        W50497  21.322   2.483   6.991 -0.0498  0.1724  0.0210
41898W        W50498  14.538   0.444  17.286  0.0396 -0.4301 -0.3502
41899W        W50499  10.902   1.376  16.270  0.2237 -0.0779  0.0759
41900W        W50500  29.635   1.875  10.101 -0.1233  0.1192 -0.0298
41901W        W50501  10.258   3.714  17.877  0.2157 -0.0011 -0.1878
41902W        W50502  25.214   5.761  15.572 -0.0463 -0.2749 -0.0054
41903W        W50503  20.499   1.094  21.791 -0.1344  0.1520  0.1073
41904W        W50504   4.881   1.348  10.841  0.1010  0.0856  0.2169
41905W        W50505  30.643   0.748  19.262 -0.1286 -0.2149  0.0089
41906W        W50506  24.483   6.787  20.148  0.0329 -0.2503 -0.0835
41907W        W50507  21.771   4.376   9.054 -0.0682  0.3485  0.2029
41908W        W50508  26.794   2.288  24.503  0.1719 -0.0042  0.2409
41909W        W50509  15.089   7.657   5.478  0.0667 -0.1541 -0.0489
41910W        W50510  11.601   2.303   9.958 -0.3394 -0.0173 -0.0586
41911W        W50511  28.038   1.828  10.049 -0.2057  0.0308  0.1095
41912W        W50512   8.109   5.611   8.470  0.1835 -0.0633  0.0795
41913W        W50513  28.523   7.490  11.070 -0.1586  0.0217  0.0309
41914W        W50514   1.604   5.776   7.874 -0.1956 -0.1375 -0.0324
41915W        W50515   4.382   1.449   0.486  0.1375  0.2469  0.0852
41916W        W50516  14.917   0.817   9.308  0.0262  0.2304  0.1168
41917W        W50517  12.074   4.686   3.061  0.2129  0.3005  0.1033
41918W        W50518   7.618   1.677  20.099 -0.0807  0.0735 -0.2395
41919W        W50519   6.957   2.529  25.600 -0.0630 -0.3109 -0.3492
41920W        W50520   6.578   2.263   9.572  0.0118  0.1530  0.3221
41921W        W50521  24.534   3.037  25.555  0.2574 -0.0557 -0.0066
41922W        W50522  21.136   5.307   5.925  0.0861 -0.0718  0.0415
41923W        W50523   7.809   4.371  17.225 -0.0821 -0.3355  0.2956
41924W        W50524  26.593   3.223  20.272  0.1860 -0.0447 -0.2263
41925W        W50525   4.925   7.363   8.889 -0.3735 -0.0804 -0.2463
41926W        W50526  19.177   4.772  21.670 -0.4447  0.1953 -0.0623
41927W        W50527  14.017   0.122  16.671  0.3623  0.1525  0.3074
41928W        W50528  25.753   7.211  17.804 -0.0288  0.3554 -0.0288
41929W        W50529   8.745   2.495  17.010 -0.0884 -0.0374 -0.2100
41930W        W50530  24.572   0.326  21.274 -0.2466  0.4827 -0.1623
41931W        W50531   2.789   5.127  23.933  0.1058  0.2102 -0.2885
41932W        W50532   0.856   3.804  17.883  0.2437  0.1533 -0.1887
41933W        W50533  20.006   1.533  25.892 -0.0604 -0.1572 -0.2295
41934W        W50534   3.195   6.580   5.218  0.0304  0.0504 -0.1095
41935W        W50535  20.940   6.382   3.277 -0.0677 -0.0722 -0.1869
41936W        W50536   5.717   3.337  16.322 -0.0437  0.2723  0.1431
41937W        W50537   2.487   7.138   7.715 -0.1571 -0.0293 -0.3011
41938W        W50538   4.586   2.286  15.464  0.0915 -0.2494 -0.1140
41939W        W50539  25.899   5.901   4.121 -0.1935 -0.0315 -0.0851
41940W        W50540   8.173   6.786   9.105 -0.0026 -0.0313  0.1363
41941W        W50541  13.013   6.607   8.614 -0.1007 -0.1304  0.2370
41942W        W50542   5.595   5.219  21.272  0.1761 -0.1464 -0.1281
41943W        W50543  26.983   4.344  23.582  0.0397  0.0300 -0.0765
41944W        W50544  30.244   6.164  16.608  0.0037  0.1270  0.0988
41945W        W50545   4.783   1.430  24.918  0.0933 -0.0618 -0.0926
41946W        W50546  17.359   7.175   3.819  0.1659 -0.0156 -0.0435
41947W        W50547  16.485   3.562  10.334 -0.0267 -0.0013  0.0313
41948W        W50548  11.542   0.568  20.549 -0.1282  0.2183  0.0385
41949W        W50549  19.052   2.888   5.770 -0.2078 -0.2572 -0.2848
41950W        W50550  22.147   5.006  23.332  0.2215  0.1228  0.0138
41951W        W50551  30.210   6.798   3.260 -0.0878 -0.2398  0.1086
41952W        W50552  21.391   0.232  19.236  0.4084  0.0044  0.3755
41953W        W50553  10.666   3.262   4.227  0.0828  0.1028 -0.0147
41954W        W50554  25.283   3.645  18.385  0.4245 -0.0488 -0.1023
41955W        W50555  24.798   5.709   4.391 -0.0680  0.1574 -0.4426
41956W        W50556  18.480   6.282  20.703  0.3010  0.0730  0.0951
41957W        W50557  12.776   5.179  24.190 -0.3651  0.0859  0.2199
41958W        W50558  22.165   7.747  11.964  0.2948 -0.0604  0.0942
41959W        W50559  20.135   3.684  22.047 -0.2206  0.1845 -0.0986
41960W        W50560  24.053   7.679  22.470 -0.3033 -0.3253  0.1019
41961W        W50561   0.151   4.519  19.318  0.1261 -0.0501 -0.0411
41962W        W50562   0.326   7.798   0.868  0.0588 -0.0334  0.0188
41963W        W50563  17.795   7.304  24.152  0.0155  0.0100 -0.2348
41964W        W50564   7.927   2.542   3.719 -0.3275 -0.2439 -0.3262
41965W        W50565   7.244   1.335   8.650 -0.0324  0.0284 -0.0033
41966W        W50566  16.810   0.324   9.232  0.0362  0.0961  0.1400
41967W        W50567  27.536   4.204   5.350 -0.0125 -0.2256  0.1141
41968W        W50568  28.013   2.652  24.856  0.1643  0.2790  0.1138
41969W        W50569  27.621   4.124  10.578  0.1536  0.0039  0.0458
41970W        W50570  20.625   5.201   7.462 -0.1093 -0.0558  0.0772
41971W        W50571  11.326   3.795  18.111  0.2666 -0.0567  0.0914
41972W        W50572  24.888   2.637  24.640 -0.3699 -0.1036 -0.0107
41973W        W50573  11.631   4.272  21.507  0.1977 -0.1690  0.3692
41974W        W50574  13.901   2.885   1.547  0.0400 -0.1583 -0.1978
41975W        W50575  17.735   1.337  18.990 -0.1986  0.1041 -0.2573
41976W        W50576  14.633   3.626   6.367  0.2084  0.2938 -0.1341
41977W        W50577  29.148   0.231   4.705  0.2692  0.1601 -0.1375
41978W        W50578  16.691   4.752   9.639  0.0541  0.0777 -0.1378
41979W        W50579  18.606   1.288   2.304 -0.2242  0.1515  0.0626
41980W        W50580  26.824   5.518   4.993  0.0908  0.0672 -0.3242
41981W        W50581   4.991   6.612   4.055  0.2210 -0.0246 -0.0157
41982W        W50582  24.853   6.025  19.721  0.0007 -0.0671 -0.1602
41983W        W50583   9.777   2.180  22.358 -0.2501 -0.1692 -0.0113
41984W        W50584  29.226   0.197  15.744  0.2693 -0.0307  0.2063
41985W        W50585  20.482   3.713  19.425 -0.2137  0.2376 -0.0970
41986W        W50586   7.273   1.447  10.790 -0.0029 -0.1466 -0.2490
41987W        W50587  14.315   5.281  17.597  0.1913  0.0473  0.0422
41988W        W50588   6.925   5.797   3.295 -0.1395  0.2126  0.2685
41989W        W50589  28.139   6.202   0.107  0.0653 -0.0523 -0.0102
41990W        W50590  21.592   2.475   1.144  0.0385 -0.0288  0.2598
41991W        W50591  17.417   5.034   5.111 -0.2567  0.0579 -0.0255
41992W        W50592  27.748   4.999  16.136  0.0522 -0.0182  0.0276
41993W        W50593  12.079   1.718   5.709  0.0361  0.0824  0.0273
41994W        W50594   5.240   4.143   2.390 -0.0444 -0.1196  0.1423
41995W        W50595  28.509   1.762   6.368  0.1411 -0.0746 -0.2776
41996W        W50596   0.433   6.189   2.729 -0.0675 -0.0745 -0.0555
41997W        W50597   1.109   4.868   9.463  0.3334 -0.1951  0.0104
41998W        W50598  19.342   7.050  23.266 -0.1492 -0.1623  0.2528
41999W        W50599  18.805   0.027  21.783 -0.3176  0.1201 -0.3809
42000W        W50600   8.406   6.081  22.221  0.1641 -0.0587 -0.3161
42001W        W50601  16.684   1.935   9.822 -0.0484 -0.0942  0.1108
42002W        W50602  22.544   2.391   8.804 -0.3616 -0.0052 -0.0148
42003W        W50603   1.937   5.797   2.778  0.3670 -0.0367  0.2628
42004W        W50604  20.256   6.570  11.497  0.2970  0.2974  0.0070
42005W        W50605   8.467   3.211  18.618  0.0974  0.0052  0.0113
42006W        W50606  19.694   2.902  25.859  0.2599  0.1898  0.0916
42007W        W50607  11.311   1.776   1.436 -0.2511  0.3548  0.2149
42008W        W50608  21.800   5.434  10.849 -0.0545 -0.0573  0.1800
42009W        W50609   4.874   7.215   5.434  0.0437 -0.1466 -0.1701
42010W        W50610  23.061   3.209   7.591 -0.3716 -0.0905  0.0576
42011W        W50611  10.114   6.072   5.714  0.0698 -0.1264 -0.0844
42012W        W50612  23.991   2.903   7.050 -0.2378  0.1230 -0.1819
42013W        W50613  14.806   0.313  20.036 -0.0639 -0.0822  0.0842
42014W        W50614  14.155   6.146   2.417  0.1364 -0.1584  0.0355
42015W        W50615  27.221   5.707  20.662 -0.3751 -0.1703  0.1524
42016W        W50616   5.287   1.499  24.129 -0.3403  0.0403 -0.1115
42017W        W50617  22.567   0.697  23.741 -0.1895  0.0786 -0.0703
42018W        W50618  21.948   5.615  19.181 -0.0952  0.1194  0.0439
42019W        W50619  18.011   1.045  17.681  0.1265  0.0960  0.1643
42020W        W50620  29.811   2.924  16.228  0.1209  0.3220  0.1086
42021W        W50621   2.030   3.768  25.545 -0.0366  0.1650  0.0297
42022W        W50622  16.381   4.585   1.465 -0.0197 -0.1724 -0.0092
42023W        W50623  11.762   2.710   2.676  0.2110  0.0381 -0.2486
42024W        W50624  28.009   2.300   4.818  0.0644 -0.1189  0.2124
42025W        W50625  31.101   3.027   8.425  0.0171 -0.1630  0.1487
42026W        W50626  18.084   0.057   8.880 -0.1197 -0.2859  0.0753
42027W        W50627  28.982   1.296   4.331  0.1324 -0.0266  0.0965
42028W        W50628  28.063   4.365   5.723 -0.2234 -0.0287 -0.0453
42029W        W50629  22.744   5.646  15.859 -0.1196  0.0269 -0.0043
42030W        W50630   7.184   5.964  25.006 -0.0364 -0.1133  0.0783
42031W        W50631  20.466   1.080   0.208 -0.0527  0.0462  0.0656
42032W        W50632   1.448   0.116  17.433 -0.0257 -0.0013  0.0119
42033W        W50633  23.751   5.808  16.902  0.0224 -0.1357  0.1548
42034W        W50634   2.320   4.647   7.137 -0.1040  0.0125 -0.1362
42035W        W50635   6.634   4.538   4.114  0.1039  0.2823  0.0005
42036W        W50636  23.572   1.773   8.430  0.1446  0.2043  0.2855
42037W        W50637  26.653   5.484  25.877  0.0232  0.0138 -0.0979
42038W        W50638  11.048   6.265   0.280  0.1093  0.1710  0.2107
42039W        W50639  20.593   5.633   6.694 -0.0875 -0.1961  0.2346
42040W        W50640  24.578   5.677   1.479  0.0785  0.3111 -0.1356
42041W        W50641  10.037   1.664   3.342 -0.1646 -0.2334  0.0496
42042W        W50642  10.685   6.625   2.041  0.0302 -0.1640  0.3560
42043W        W50643   6.460   5.692  22.428  0.0545  0.0702  0.1531
42044W        W50644  29.093   3.614  23.003 -0.1485  0.1459 -0.1275
42045W        W50645  30.064   7.717   3.120 -0.2623 -0.2070  0.1465
42046W        W50646  29.907   1.120   3.232  0.0367  0.1059  0.0459
42047W        W50647  14.546   6.409   1.630 -0.1475  0.2718  0.2242
42048W        W50648  24.709   4.273  19.485 -0.0963 -0.3130 -0.2784
42049W        W50649  14.416   3.785  25.771  0.0557  0.1375  0.1196
42050W        W50650  11.955   4.646  15.376  0.0277  0.1503  0.0866
42051W        W50651  16.792   3.854   3.463 -0.1987 -0.1987  0.1144
42052W        W50652   0.389   4.966  10.112 -0.0413 -0.1892 -0.0428
42053W        W50653   8.462   6.664  25.089 -0.1416 -0.2395 -0.1221
42054W        W50654  16.705   7.406  23.336  0.2077  0.1843 -0.1173
42055W        W50655  23.716   5.734   1.501  0.3335 -0.0467  0.0845
42056W        W50656  26.364   4.641   9.399 -0.2293 -0.0371 -0.0425
42057W        W50657  25.192   2.518  17.772 -0.0138 -0.1820 -0.1798
42058W        W50658   0.494   6.065   1.702 -0.1123 -0.0234  0.1479
42059W        W50659  30.666   6.197  19.122 -0.1048 -0.1534 -0.2648
42060W        W50660  30.818   2.316  24.086 -0.2199  0.0244 -0.0860
42061W        W50661  18.793   5.246   2.982  0.4554  0.0736 -0.0155
42062W        W50662  12.447   4.720  23.027 -0.1861  0.2187  0.1213
42063W        W50663  14.441   3.350   7.305  0.0085  0.1221 -0.2263
42064W        W50664  23.410   5.415  11.183 -0.0560 -0.4431 -0.0470
42065W        W50665  18.960   4.239   8.438  0.0683 -0.4213 -0.0229
42066W        W50666  16.896   6.691  21.036  0.0608  0.0655 -0.0349
42067W        W50667   9.963   3.090  25.821 -0.2824 -0.0035 -0.2712
42068W        W50668   2.762   3.974   6.682 -0.1231 -0.6720  0.1035
42069W        W50669  29.878   4.223   1.068 -0.0251 -0.1765  0.4302
42070W        W50670  29.676   2.203   1.506  0.3004 -0.1798  0.0874
42071W        W50671   4.636   4.917   9.716 -0.4627  0.1855  0.0869
42072W        W50672  23.503   6.544   2.409 -0.2165  0.2991  0.2693
42073W        W50673  28.923   4.001   8.917 -0.0414  0.1659 -0.0553
42074W        W50674  25.655   2.636   2.968 -0.1663 -0.0545 -0.1503
42075W        W50675  23.298   2.744   2.664  0.1551  0.4228 -0.1818
42076W        W50676  22.699   5.910  10.967  0.1187  0.1534  0.0121
42077W        W50677  28.830   6.116  10.659 -0.1550 -0.1103  0.0597
42078W        W50678   6.141   1.713  24.632  0.1013 -0.1857 -0.2233
42079W        W50679  26.605   2.660   5.740 -0.0671 -0.5118  0.0478
42080W        W50680  22.975   0.523  16.443  0.1391  0.2816 -0.0577
42081W        W50681  28.650   3.511  16.453  0.0091 -0.0684  0.1446
42082W        W50682   3.948   4.786   8.557 -0.0295  0.2042 -0.1256
42083W        W50683  30.920   1.232  25.033 -0.0440 -0.1378  0.2709
42084W        W50684  12.261   5.738   4.672 -0.0908 -0.0136 -0.1363
42085W        W50685  13.240   0.641   3.571 -0.0402  0.0539  0.2813
42086W        W50686  23.787   6.575   0.970 -0.1391 -0.2026 -0.1319
42087W        W50687  16.685   4.613   4.343 -0.1669  0.1026  0.0381
42088W        W50688  10.437   2.809   7.864 -0.2754  0.1955 -0.0036
42089W        W50689  13.956   6.957  21.475  0.0054 -0.1026  0.3221
42090W        W50690   2.828   2.598   4.303  0.1584  0.2000 -0.2424
42091W        W50691  19.588   2.195   3.366  0.0294 -0.0949 -0.0559
42092W        W50692   1.200   7.267  19.308  0.0472 -0.3411 -0.0638
42093W        W50693  15.486   4.305  14.994  0.0163 -0.0570 -0.0920
42094W        W50694  15.276   3.920   1.290  0.1050  0.2504  0.0104
42095W        W50695  14.972   0.084   9.865 -0.1508  0.1702  0.2148
42096W        W50696  14.408   7.223  20.108  0.2598  0.0186  0.0158
42097W        W50697  19.400   6.651  18.955 -0.0319  0.2215 -0.0000
42098W        W50698  29.660   1.541  19.156  0.1801  0.0979 -0.2823
42099W        W50699  25.791   7.214  22.777  0.0251  0.0512 -0.0973
42100W        W50700  29.251   2.186   9.217 -0.1976 -0.0615 -0.1119
42101W        W50701  23.834   5.885   4.286  0.1676  0.2139 -0.2457
42102W        W50702  19.442   3.940  19.897  0.3905 -0.1091  0.2324
42103W        W50703   1.168   7.484  20.299 -0.1561  0.1745  0.1010
42104W        W50704   1.483   3.197   2.578 -0.0847 -0.1754 -0.0744
42105W        W50705  15.401   6.173   7.297 -0.1381  0.0944  0.0283
42106W        W50706  29.214   4.809  19.822  0.0603  0.1089 -0.1883
42107W        W50707  26.964   5.807  26.158 -0.0803  0.1977 -0.1987
42108W        W50708  13.654   3.481  22.460  0.2022  0.0431  0.3245
42109W        W50709  22.895   6.560   9.798 -0.2345  0.1309 -0.2026
42110W        W50710  22.413   6.448  17.484 -0.1662 -0.1807  0.2356
42111W        W50711  25.622   6.514   9.483  0.0820 -0.3391 -0.1640
42112W        W50712  20.649   5.090  16.289 -0.0872  0.0275 -0.0633
42113W        W50713  19.917   5.280  15.586  0.1767 -0.2254 -0.0751
42114W        W50714  28.899   0.356  20.921  0.2161  0.1830 -0.2204
42115W        W50715  28.389   6.311  21.080  0.2510 -0.0257 -0.2791
42116W        W50716  23.101   1.540  18.546 -0.0837  0.1220  0.1591
42117W        W50717  26.514   2.194   9.219  0.1199 -0.0255 -0.1424
42118W        W50718  21.101   4.553  17.459 -0.2623  0.1239  0.1138
42119W        W50719  27.970   6.525   5.328  0.1634 -0.4354  0.1621
42120W        W50720   2.269   7.061   8.222  0.2052  0.1922  0.4132
42121W        W50721  15.386   1.152  20.500 -0.1730  0.2823  0.1842
42122W        W50722   1.072   1.993  19.904 -0.2530  0.2487 -0.2953
42123W        W50723  11.831   0.324   9.889 -0.2326  0.4326  0.0902
42124W        W50724  21.339   7.330   1.481  0.0762  0.2352 -0.2044
42125W        W50725   3.715   0.268  24.531  0.1362  0.0627  0.1554
42126W        W50726  19.127   3.224   2.532  0.0010  0.0173  0.2583
42127W        W50727  11.415   2.712   5.559 -0.1688  0.1562  0.1220
42128W        W50728  26.394   2.139  11.763  0.1570 -0.2749  0.1198
42129W        W50729  14.196   4.544  19.449  0.0215 -0.0384 -0.1664
42130W        W50730  24.536   3.184   3.484 -0.3975 -0.2005  0.2409
42131W        W50731   5.716   2.014  18.334  0.0181 -0.2072  0.2725
42132W        W50732   6.007   1.401  19.634 -0.2473  0.0005  0.1122
42133W        W50733   4.690   4.211   5.305  0.1231 -0.0194 -0.1021
42134W        W50734  25.539   2.607  25.477 -0.0531 -0.1924 -0.3386
42135W        W50735   7.833   2.732   4.568 -0.1956 -0.1254  0.1986
42136W        W50736   5.474   4.253  25.914 -0.0457 -0.4028 -0.1436
42137W        W50737  29.210   5.457  21.702 -0.0263 -0.1393 -0.1020
42138W        W50738  15.840   4.565  10.968  0.3839  0.0130 -0.0325
42139W        W50739  26.822   3.099  25.672 -0.0264  0.3665  0.1297
42140W        W50740   3.407   6.011  16.941 -0.1421 -0.0951 -0.0416
42141W        W50741  29.943   2.188   0.172  0.0224  0.0251  0.0803
42142W        W50742  20.833   4.067  22.304 -0.1999  0.0007  0.0886
42143W        W50743  10.153   0.022   3.231  0.0175  0.3211  0.0453
42144W        W50744  15.141   4.264   7.791  0.0948  0.0704  0.0159
42145W        W50745  30.419   0.497   5.023  0.0975 -0.3703  0.1830
42146W        W50746  10.820   3.454  18.404 -0.1062 -0.0264  0.2061
42147W        W50747  16.860   4.964  18.921 -0.0048 -0.2445 -0.1934
42148W        W50748  27.769   4.345  16.834  0.0037 -0.3742 -0.2549
42149W        W50749  10.687   5.821  15.986 -0.3070 -0.0498 -0.1045
42150W        W50750  27.865   0.299  15.697  0.0023 -0.1230 -0.0879
42151W        W50751  19.691   2.634  17.510 -0.3263 -0.0055  0.1637
42152W        W50752   5.701   6.803  23.771  0.0234  0.1019 -0.3130
42153W        W50753  11.258   5.070   0.530 -0.2027 -0.2598 -0.1439
42154W        W50754   4.728   3.213  20.538  0.1415  0.0649  0.1853
42155W        W50755  19.500   5.523   9.828  0.0218 -0.0854  0.0212
42156W        W50756  19.597   2.533  10.355  0.0353  0.2272 -0.1385
42157W        W50757  30.421   1.545   7.413  0.0358 -0.2885 -0.4063
42158W        W50758  22.390   5.229  21.966 -0.1161  0.2401 -0.1400
42159W        W50759  26.314   0.176   8.172 -0.0864 -0.0625  0.2279
42160W        W50760   4.966   3.997   9.651  0.0920 -0.3628 -0.0249
42161W        W50761  16.874   5.532  10.852  0.1237  0.0135  0.0232
42162W        W50762  26.857   6.754  21.617 -0.0912  0.3655 -0.2124
42163W        W50763   9.096   1.193  16.076 -0.3820  0.2693 -0.1674
42164W        W50764  14.213   7.368  23.112  0.5938 -0.0287  0.1506
42165W        W50765  14.578   6.554  21.026  0.0869 -0.2191 -0.2242
42166W        W50766  16.840   1.673   2.862 -0.0831 -0.1194 -0.2797
42167W        W50767  22.550   5.061  20.014  0.1301 -0.0743 -0.0079
42168W        W50768  21.676   3.583  19.404 -0.2381  0.2527  0.1598
42169W        W50769   9.242   5.789  18.601  0.0453  0.2074  0.1050
42170W        W50770   5.955   5.885  24.695 -0.3028  0.2574  0.1878
42171W        W50771  13.148   5.545  24.441  0.0133 -0.3028  0.0837
42172W        W50772   9.006   7.778   8.596  0.0308 -0.0742  0.1904
42173W        W50773  21.038   7.561  24.298 -0.1720 -0.0607 -0.1495
42174W        W50774  17.249   5.347   4.717  0.0148 -0.2249  0.0005
42175W        W50775  27.092   2.825   8.095 -0.3668  0.2193  0.0367
42176W        W50776  13.458   6.841   3.299 -0.1775  0.0473 -0.1761
42177W        W50777  13.485   0.209  24.542 -0.0323 -0.2446  0.0181
42178W        W50778   4.667   0.946   2.156  0.4009 -0.0228  0.0477
42179W        W50779  22.129   2.568  17.911 -0.2539 -0.2046  0.0346
42180W        W50780   8.386   7.098  24.583 -0.1323 -0.0001 -0.0157
42181W        W50781  16.817   5.367   8.790  0.0581 -0.0018 -0.1294
42182W        W50782  28.818   4.794  18.002  0.1565 -0.1335 -0.2065
42183W        W50783   4.821   3.189   7.655  0.1819 -0.1069  0.0284
42184W        W50784   0.060   3.275   6.063 -0.1507  0.2137 -0.0798
42185W        W50785  26.561   0.072   4.524 -0.2323  0.0375 -0.0474
42186W        W50786  25.212   2.921   1.261 -0.0818  0.3034 -0.1970
42187W        W50787   0.814   5.833  19.385  0.0112  0.0513  0.3460
42188W        W50788  28.922   5.671  15.726  0.1887 -0.1188  0.0301
42189W        W50789  19.224   6.085   6.161  0.1844  0.3596  0.0167
42190W        W50790  19.307   1.289  17.900  0.0558 -0.0787 -0.3475
42191W        W50791  29.027   6.011  11.434  0.0264  0.2354  0.0884
42192W        W50792   2.129   3.409   2.395  0.4009 -0.0910  0.4304
42193W        W50793   4.638   6.898   4.775 -0.1229 -0.1425  0.1478
42194W        W50794   4.358   1.955   6.459  0.1604  0.1190 -0.1057
42195W        W50795  21.301   3.776   2.425  0.2289  0.2713 -0.1028
42196W        W50796  17.466   5.425  17.427  0.0667  0.0868 -0.0376
42197W        W50797   8.870   6.773   0.679 -0.3575  0.0193 -0.2250
42198W        W50798  10.785   2.398   3.347 -0.2344  0.0403  0.1128
42199W        W50799   4.312   7.595   4.771  0.0783  0.2303 -0.1118
42200W        W50800   0.934   6.404   5.230 -0.3142  0.0852  0.0020
42201W        W50801   8.983   1.377  23.621  0.1336  0.3294  0.0963
42202W        W50802  17.528   7.352   2.807 -0.0032 -0.0478 -0.0653
42203W        W50803  22.342   3.721   4.144  0.1166  0.2175 -0.0598
42204W        W50804   3.501   3.090  22.395  0.4648  0.0144  0.3015
42205W        W50805  31.090   0.560  19.479 -0.0574 -0.2163  0.0964
42206W        W50806  30.545   0.813  24.824  0.1390  0.1482 -0.4477
42207W        W50807   3.213   0.202  25.596  0.1277 -0.3567  0.0640
42208W        W50808  23.588   6.949  16.526  0.0765 -0.0741  0.0274
42209W        W50809  28.736   3.986  22.874 -0.0092 -0.1361  0.0015
42210W        W50810  29.572   0.364   9.438 -0.0702  0.0346  0.0576
42211W        W50811  14.451   1.877   8.060 -0.1806 -0.1748  0.1380
42212W        W50812   7.890   2.942  23.300  0.3786  0.1060  0.3149
42213W        W50813  11.672   2.117  26.016 -0.1215 -0.1821  0.0814
42214W        W50814  25.184   2.633  11.886  0.0157 -0.1239 -0.2875
42215W        W50815  19.289   6.060   1.648  0.1559  0.0281 -0.2043
42216W        W50816   8.128   4.334   9.711  0.0832 -0.1998 -0.3344
42217W        W50817  24.035   3.186  16.346  0.1078  0.0638 -0.2282
42218W        W50818  29.415   1.049  25.296  0.1473 -0.1043 -0.0356
42219W        W50819  13.866   7.230  20.856 -0.2549  0.1617  0.2516
42220W        W50820  23.737   6.660   4.815  0.1783 -0.0124 -0.1455
42221W        W50821  23.300   1.087  23.496  0.0802 -0.0884 -0.1767
42222W        W50822  26.698   0.059   1.125 -0.2986 -0.4179 -0.0321
42223W        W50823   0.904   7.078  10.609 -0.2868  0.0976  0.2713
42224W        W50824   2.982   6.235  15.207  0.3669  0.0014 -0.2028
42225W        W50825  22.377   4.410  23.277 -0.0683 -0.0617  0.0307
42226W        W50826  19.120   7.228   5.398  0.1700 -0.2055  0.5236
42227W        W50827  22.183   1.748  17.734 -0.0713 -0.3332 -0.0868
42228W        W50828   9.921   2.263  18.580  0.0307 -0.0037  0.0222
42229W        W50829  27.214   4.224  17.806  0.1232 -0.0114 -0.2919
42230W        W50830  27.503   2.507   2.912  0.1891 -0.3263  0.2383
42231W        W50831  10.227   1.105  11.087  0.5177  0.0493 -0.1605
42232W        W50832  10.135   3.006  23.893 -0.0119 -0.1010  0.2260
42233W        W50833   0.030   5.409   1.006 -0.1797 -0.1100  0.2368
42234W        W50834   2.132   5.531  18.714 -0.1948 -0.1771 -0.2011
42235W        W50835   0.855   6.422   6.082 -0.0013 -0.1727  0.3999
42236W        W50836   5.447   7.074   5.466 -0.1405  0.0250  0.0567
42237W        W50837  16.900   3.765  15.157 -0.1711 -0.2213 -0.1522
42238W        W50838   2.502   7.230   0.563  0.1568 -0.4123  0.0252
42239W        W50839  16.503   6.189   5.863  0.0984 -0.0325  0.1713
42240W        W50840  30.485   5.833  10.258  0.1983 -0.0615  0.0779
42241W        W50841   1.220   6.160  10.168 -0.0021 -0.1389  0.0562
42242W        W50842  13.573   1.748  11.441  0.3580  0.1464  0.1280
42243W        W50843  14.911   0.215  26.378  0.1213 -0.1456 -0.0764
42244W        W50844  19.253   1.218  22.173 -0.2872 -0.3231  0.0118
42245W        W50845  27.242   6.470  15.067 -0.0065  0.2489  0.1314
42246W        W50846   5.836   0.348  21.635  0.2449 -0.1277  0.0835
42247W        W50847  22.913   6.435   0.580 -0.0372  0.0218  0.2359
42248W        W50848  29.888   7.583   2.032  0.3683  0.0287 -0.2240
42249W        W50849  20.761   5.622  24.354  0.0266 -0.2593 -0.0713
42250W        W50850  17.064   3.247   0.742 -0.0823  0.1813 -0.0378
42251W        W50851   9.766   1.427   2.310  0.1039  0.2094  0.0729
42252W        W50852  25.954   1.566   0.357 -0.0070  0.0032 -0.0009
42253W        W50853  22.396   0.363  24.177  0.1702  0.0963  0.4804
42254W        W50854  28.823   7.663  18.796 -0.0425  0.1452 -0.2046
42255W        W50855   5.594   5.339  22.378 -0.1371  0.1830 -0.2813
42256W        W50856  22.507   2.754   4.457 -0.4040 -0.2802  0.3852
42257W        W50857  19.332   2.228  11.321 -0.1388 -0.1646 -0.0307
42258W        W50858  26.788   3.739   1.766 -0.0893 -0.3090  0.0793
42259W        W50859  13.883   7.127   1.396 -0.0708 -0.0472 -0.0851
42260W        W50860  24.194   5.487  22.083  0.0736  0.2811 -0.1982
42261W        W50861  11.936   2.808  17.518 -0.0936  0.1474  0.2192
42262W        W50862  26.406   3.404   4.675 -0.1329 -0.1823 -0.2104
42263W        W50863   1.045   7.610   9.409  0.1072  0.1152 -0.1816
42264W        W50864  14.316   6.949  20.535 -0.0458  0.2415  0.1997
42265W        W50865  12.266   6.301  17.465  0.1635  0.0840 -0.1515
42266W        W50866  14.126   7.763  10.715  0.1455 -0.1166 -0.2818
42267W        W50867  11.617   0.296  18.309 -0.1829 -0.1207  0.2426
42268W        W50868   4.959   0.410  25.820  0.0017 -0.0942  0.1473
42269W        W50869  14.043   6.099  26.230 -0.2128 -0.3400  0.2687
42270W        W50870  23.601   6.325   7.092  0.2929  0.3253  0.1959
42271W        W50871  20.970   3.630   1.418 -0.0000 -0.2118  0.2782
42272W        W50872   5.657   3.302   6.133  0.0865  0.4559 -0.0761
42273W        W50873   7.629   3.014   9.567 -0.0636  0.0740  0.1245
42274W        W50874  19.577   4.418  25.740  0.2234 -0.1887  0.0477
42275W        W50875  20.021   6.479  19.772  0.3442 -0.2868 -0.2243
42276W        W50876   3.320   3.793  25.604 -0.1166  0.0061 -0.0815
42277W        W50877  10.260   4.540  21.198 -0.0539  0.0970 -0.0166
42278W        W50878  18.217   2.716  10.396 -0.0012  0.1461  0.1176
42279W        W50879  26.222   0.255   1.039  0.1388 -0.1916  0.0474
42280W        W50880   4.822   3.468  17.879 -0.0494 -0.2389 -0.2102
42281W        W50881  25.053   5.928  24.522  0.3719  0.0909 -0.1395
42282W        W50882   7.888   3.320   2.630  0.1764  0.1650 -0.1114
42283W        W50883  28.403   2.425  20.870  0.4477  0.1651 -0.1974
42284W        W50884   9.286   6.004   3.203  0.0087  0.0795  0.0062
42285W        W50885  25.119   5.922  25.812  0.0054 -0.0139  0.2165
42286W        W50886   7.969   4.872  11.534 -0.0933 -0.0292 -0.0231
42287W        W50887  10.641   6.767   8.842  0.0998  0.3896  0.0977
42288W        W50888   1.881   5.579  10.695  0.3859 -0.1212  0.1003
42289W        W50889   1.245   4.122  16.257  0.2777  0.0198  0.1710
42290W        W50890   1.823   0.025   0.632 -0.1856 -0.1446  0.0353
42291W        W50891  27.790   3.342   4.405 -0.1424 -0.2928  0.0511
42292W        W50892   3.663   1.105  21.419 -0.2067 -0.1089 -0.1254
42293W        W50893  24.957   4.588   3.101 -0.1545 -0.0940  0.1255
42294W        W50894  11.481   0.610  24.676 -0.0276  0.1143 -0.0936
42295W        W50895  25.158   0.971   3.363 -0.2558  0.1043  0.0894
42296W        W50896  15.092   1.079  16.471 -0.1250  0.0619 -0.0375
42297W        W50897  19.570   5.775  21.791 -0.0257  0.2877  0.2160
42298W        W50898  29.749   0.976  25.698  0.0245  0.1625 -0.0081
42299W        W50899  21.096   4.881   4.032  0.3054  0.0296 -0.1289
42300W        W50900  18.027   2.705   3.004 -0.1862  0.0885  0.0913
42301W        W50901   5.951   4.107  17.391 -0.2112 -0.0760 -0.1971
42302W        W50902  13.960   2.626   7.878  0.1184  0.0572  0.2711
42303W        W50903   8.567   7.606   7.290 -0.1855  0.0357 -0.0088
42304W        W50904  14.501   6.993  26.282 -0.1346 -0.0295 -0.1455
42305W        W50905  16.242   4.236  22.934 -0.2520 -0.3170 -0.1127
42306W        W50906   9.635   0.546  25.050 -0.2094  0.1505 -0.2737
42307W        W50907   7.305   1.577   0.678  0.1975  0.0451 -0.1951
42308W        W50908  25.821   3.329   1.248  0.0965 -0.1940  0.0584
42309W        W50909   7.023   2.953   6.351 -0.2774 -0.0593 -0.0268
42310W        W50910  24.551   1.215   3.753 -0.0405  0.3394 -0.1984
42311W        W50911  28.134   4.836   2.375  0.4008 -0.0492  0.1665
42312W        W50912  26.709   7.233   0.934  0.2176  0.0301  0.1266
42313W        W50913  10.187   5.452   3.953 -0.6037 -0.0753 -0.0799
42314W        W50914   5.685   6.113   7.587 -0.0880  0.1078  0.1852
42315W        W50915  26.805   0.679  24.617  0.0883  0.2489 -0.1654
42316W        W50916   8.688   4.594   2.685 -0.0154 -0.1257  0.0357
42317W        W50917   3.545   5.603  21.171 -0.4256 -0.3377 -0.1314
42318W        W50918  24.585   0.927  20.007  0.1765  0.1407 -0.0910
42319W        W50919  29.731   7.458   4.512 -0.2999 -0.2010 -0.0701
42320W        W50920  19.305   2.670  16.378  0.0903 -0.2838  0.0349
42321W        W50921  31.012   7.199  25.194 -0.0347 -0.4383  0.0111
42322W        W50922   3.258   6.701  18.733  0.3241  0.2528 -0.2789
42323W        W50923  12.839   1.106   6.290 -0.0950 -0.1661 -0.1243
42324W        W50924  18.284   4.336  26.422 -0.2213 -0.0686 -0.1207
42325W        W50925   6.439   3.360   6.038  0.0246 -0.1499 -0.0916
42326W        W50926  22.739   3.212  21.134  0.1662  0.3593  0.1466
42327W        W50927  12.133   3.441   6.985  0.1256  0.1594  0.0032
42328W        W50928  23.018   2.257  17.885 -0.2101  0.1123  0.2787
42329W        W50929  19.444   0.458  21.759  0.0787 -0.0198 -0.1001
42330W        W50930   3.658   6.491   0.644  0.1988  0.0474  0.1637
42331W        W50931   7.049   1.462  17.369  0.0992 -0.3385 -0.1652
42332W        W50932  15.163   1.024  25.833  0.0396  0.0533 -0.0880
42333W        W50933  13.795   5.006  24.575 -0.1185 -0.2818  0.1734
42334W        W50934  22.671   2.745  21.895 -0.2366 -0.1507  0.1118
42335W        W50935  17.210   6.183  22.356  0.2885  0.0809  0.0618
42336W        W50936  14.267   2.181   5.407 -0.1959 -0.1302  0.1799
42337W        W50937  29.600   7.495   8.072 -0.2233 -0.1508  0.1734
42338W        W50938  26.524   4.550   3.230  0.1676 -0.0919  0.0905
42339W        W50939  14.126   2.303   0.937 -0.0210 -0.2448 -0.3149
42340W        W50940  29.622   6.690  10.524  0.4320 -0.2061  0.1090
42341W        W50941   9.151   4.216  22.526  0.0908 -0.2353 -0.0531
42342W        W50942  25.212   6.044   6.491  0.0716 -0.1651 -0.1767
42343W        W50943  28.401   1.099  23.759 -0.3706  0.0046 -0.0104
42344W        W50944   5.957   0.754   3.037 -0.1173  0.0326 -0.0803
42345W        W50945   9.240   3.440  16.606 -0.1722 -0.1235  0.1633
42346W        W50946  29.942   4.047  25.947 -0.3628 -0.3354  0.0815
42347W        W50947  11.033   0.433  19.363 -0.1109  0.1080 -0.0027
42348W        W50948  14.422   3.145  19.535 -0.1234  0.0359 -0.0231
42349W        W50949   2.655   1.483  11.164  0.1154 -0.0759 -0.1805
42350W        W50950  27.434   0.824  23.639  0.1047  0.2945 -0.3350
42351W        W50951  19.907   4.681   9.537  0.2007  0.2676 -0.0228
42352W        W50952  30.515   1.868   8.984 -0.0042 -0.2496 -0.1246
42353W        W50953  21.397   6.412  25.083 -0.2900 -0.3301  0.0587
42354W        W50954   0.434   5.313   0.215  0.1525 -0.0480  0.0237
42355W        W50955   6.463   6.671   1.739  0.0622 -0.1360 -0.1713
42356W        W50956   1.729   1.373  24.923 -0.0560  0.0856 -0.0247
42357W        W50957   0.167   1.277  21.433  0.2970  0.2757 -0.0156
42358W        W50958  20.925   2.620  22.039 -0.2174 -0.1100 -0.0279
42359W        W50959   2.398   7.508   2.390 -0.1637  0.0533  0.0462
42360W        W50960   7.879   4.634   8.598  0.1331 -0.2963 -0.1060
42361W        W50961   4.140   6.714  19.842 -0.1684 -0.0536 -0.0800
42362W        W50962  16.402   7.061   5.536 -0.1943  0.2842  0.1926
42363W        W50963  14.476   3.436  24.595 -0.0857  0.1407  0.0299
42364W        W50964  29.443   4.019  23.901 -0.1640  0.0607 -0.1260
42365W        W50965  31.027   4.901  25.694 -0.0703 -0.0038  0.1638
42366W        W50966  18.685   2.516  15.911  0.0546 -0.0394 -0.0029
42367W        W50967   3.047   3.042  17.867 -0.0888  0.0866 -0.1810
42368W        W50968  22.367   5.967  10.560  0.2552 -0.0811 -0.2380
42369W        W50969   1.051   5.857  19.904 -0.0942  0.1681 -0.0718
42370W        W50970  22.699   3.099   1.912 -0.0205 -0.1170 -0.0886
42371W        W50971  23.470   0.991  21.514 -0.2716 -0.0746 -0.1090
42372W        W50972  13.972   1.419  19.215 -0.2261 -0.1684 -0.0805
42373W        W50973  13.898   0.641   1.111 -0.2197  0.0396  0.0492
42374W        W50974   7.918   5.998  20.286 -0.2603 -0.2912 -0.2260
42375W        W50975  22.997   3.182   2.479  0.1858  0.1878  0.0451
42376W        W50976   2.648   1.903  25.360 -0.0341 -0.0612 -0.2775
42377W        W50977   1.208   7.390  24.427  0.2183  0.1852  0.1743
42378W        W50978   2.554   4.823  22.236  0.1212 -0.0685  0.2160
42379W        W50979   0.444   7.746  10.625  0.1583  0.0546 -0.0867
42380W        W50980   3.431   6.572   5.677  0.1045 -0.1750 -0.2280
42381W        W50981  29.623   5.172   7.469 -0.0423 -0.0257 -0.0154
42382W        W50982  15.616   1.093   0.850 -0.1768 -0.4423 -0.0639
42383W        W50983   6.617   5.292  22.718  0.1857  0.1337 -0.2832
42384W        W50984   0.826   5.328   7.585  0.3638  0.0371  0.2523
42385W        W50985  22.816   2.780   9.006  0.1182  0.2818  0.1880
42386W        W50986   0.983   2.046   7.287 -0.0693  0.3221 -0.1059
42387W        W50987  30.578   2.394   3.574 -0.1222 -0.1624 -0.0419
42388W        W50988  21.452   2.477   0.477  0.1160  0.0465  0.0055
42389W        W50989   2.782   0.997  25.588 -0.0624  0.0936 -0.0997
42390W        W50990  17.929   1.581  23.957 -0.0932 -0.0839 -0.2044
42391W        W50991   5.969   6.148   3.073  0.2171  0.1880  0.0410
42392W        W50992  13.429   7.683  19.584 -0.0714  0.4007  0.0901
42393W        W50993   6.784   6.157   4.650  0.1403  0.1298  0.1626
42394W        W50994  28.444   4.122  24.739  0.0632  0.0734 -0.0087
42395W        W50995   5.464   1.530  19.554 -0.2862  0.1481 -0.3070
42396W        W50996  28.318   2.108   0.898 -0.1926  0.2431  0.0249
42397W        W50997  24.729   1.237  11.658  0.1746 -0.0866  0.3200
42398W        W50998  14.010   5.680  22.632  0.2100 -0.1776  0.0548
42399W        W50999   3.909   2.437   2.931  0.0690 -0.0868  0.0561
42400W        W51000  17.659   6.537  10.462  0.0901 -0.2346 -0.3287
42401W        W51001   9.107   7.641  18.671 -0.3061 -0.1613  0.2962
42402W        W51002  17.680   2.050   5.220  0.1605 -0.0092  0.2292
42403W        W51003   4.577   2.853  10.276 -0.0742  0.0489  0.6003
42404W        W51004  22.958   0.699   7.565  0.1403 -0.3492 -0.1843
42405W        W51005   7.155   4.192  19.311 -0.0909  0.2171  0.1620
42406W        W51006   6.296   3.822  24.112  0.0010 -0.0133 -0.0395
42407W        W51007  28.481   1.440  25.684 -0.1091 -0.0878 -0.2042
42408W        W51008  23.163   3.613  23.314  0.1691 -0.1682 -0.1714
42409W        W51009   1.762   7.645  25.551 -0.1405  0.4203  0.0064
42410W        W51010   4.232   4.818  16.036 -0.0032 -0.2867 -0.0064
42411W        W51011   9.112   1.930  17.675 -0.2200 -0.0289  0.2118
42412W        W51012   7.060   4.792  23.525 -0.0451  0.2104 -0.1222
42413W        W51013  23.957   5.687  15.856  0.2436 -0.0997 -0.3208
42414W        W51014  27.959   2.077   8.827  0.1721  0.0140 -0.0613
42415W        W51015  20.842   1.515  18.865  0.3543 -0.3118 -0.2067
42416W        W51016  25.605   4.314   7.614 -0.2772  0.2833 -0.0704
42417W        W51017   5.578   5.850   3.144  0.1033  0.1003  0.0475
42418W        W51018  22.263   2.128  18.569 -0.3825  0.0125  0.1855
42419W        W51019  21.699   4.750   6.594 -0.0951 -0.2686 -0.0074
42420W        W51020  23.474   2.691   8.356 -0.2621  0.2297  0.0177
42421W        W51021   7.867   1.317  22.012 -0.0416 -0.0498 -0.0349
42422W        W51022  21.862   5.585  17.361 -0.1020 -0.0665 -0.0678
42423W        W51023   7.192   0.529  21.801  0.1177  0.0208 -0.1706
42424W        W51024  11.858   3.725   2.513 -0.1775 -0.0719  0.0261
42425W        W51025  22.857   3.768  18.219 -0.2370 -0.0433  0.3521
42426W        W51026   5.248   1.038   0.854 -0.0668  0.0209  0.0583
42427W        W51027   6.027   0.010   1.309  0.1561 -0.0268  0.0305
42428W        W51028  25.639   5.123   8.183 -0.1020  0.1486  0.2956
42429W        W51029   2.745   6.673  10.575  0.3049 -0.1146  0.1731
42430W        W51030   3.100   2.212   9.041 -0.0690  0.1524  0.5184
42431W        W51031  22.185   4.744  24.130  0.1788 -0.1982 -0.1813
42432W        W51032   2.830   4.659  16.187  0.1315 -0.1858 -0.1691
42433W        W51033  29.957   1.573  16.644 -0.0107  0.1784 -0.2442
42434W        W51034  12.150   6.546  18.994 -0.3419 -0.1390  0.0289
42435W        W51035  12.885   2.489   8.965 -0.0551  0.1649  0.0899
42436W        W51036  18.827   6.965  15.536  0.0297  0.1049  0.0893
42437W        W51037  25.926   6.096  24.527  0.1338  0.0275  0.0404
42438W        W51038  30.952   5.125   0.674  0.0334 -0.0564 -0.0957
42439W        W51039   8.659   5.025  23.606  0.2466  0.1134 -0.0893
42440W        W51040  23.926   3.916  17.727  0.1607 -0.2329 -0.0979
42441W        W51041  23.159   6.217   7.354 -0.1183 -0.1029  0.1617
42442W        W51042  28.513   1.152   5.424 -0.0914 -0.2450 -0.0376
42443W        W51043  19.420   1.492   2.805  0.0079  0.0696  0.3038
42444W        W51044  14.837   4.877  23.635 -0.2351  0.0066 -0.1885
42445W        W51045  11.105   0.013   9.601  0.2748 -0.2300  0.1821
42446W        W51046  18.226   4.888   9.804  0.1907 -0.0943 -0.0978
42447W        W51047  21.610   5.885   3.694  0.1417  0.1144  0.1249
42448W        W51048   8.899   1.774   0.623 -0.2850  0.2553 -0.0745
42449W        W51049  27.034   7.506  17.606 -0.0731 -0.0020 -0.2663
42450W        W51050  28.589   4.798   0.818 -0.1920  0.3610  0.0960
42451W        W51051  15.404   1.183   4.454 -0.0141 -0.0439  0.1777
42452W        W51052  18.832   0.907  21.834  0.1013 -0.1473  0.0019
42453W        W51053   6.414   1.767  22.475 -0.0765 -0.3275 -0.1266
42454W        W51054  29.770   3.284  17.043 -0.1898  0.1453 -0.0112
42455W        W51055   8.788   1.926  23.192  0.1292  0.0041 -0.0135
42456W        W51056  14.189   0.707  16.141 -0.2148 -0.0093 -0.4443
42457W        W51057   7.707   0.004  16.864  0.3125  0.1181  0.2379
42458W        W51058  14.567   4.482  18.618  0.0223 -0.5343  0.1172
42459W        W51059  13.744   4.836  10.684  0.2813 -0.0792  0.0687
42460W        W51060  26.027   2.235   3.636  0.0101  0.2341  0.0837
42461W        W51061  17.977   5.962   9.561 -0.2363  0.2347 -0.0794
42462W        W51062  16.946   2.696  20.545 -0.2714 -0.2123  0.0118
42463W        W51063  24.485   3.705  20.787 -0.2278 -0.0221 -0.0389
42464W        W51064  18.717   6.203  16.400  0.1317 -0.1224  0.0751
42465W        W51065  22.628   6.541  10.982 -0.1772 -0.1361 -0.0065
42466W        W51066  22.170   6.239  10.190 -0.0131 -0.3076  0.0600
42467W        W51067  12.218   1.780  20.921  0.0358  0.2271  0.0087
42468W        W51068  10.632   7.730  17.982  0.1133  0.0314  0.0979
42469W        W51069  15.614   4.975  21.384  0.0147 -0.1496  0.1691
42470W        W51070  22.903   7.176   0.111  0.1021  0.2362  0.1481
42471W        W51071  22.524   1.895  16.162 -0.3075 -0.0202 -0.1892
42472W        W51072  29.354   3.247  19.683 -0.2931 -0.1711 -0.1186
42473W        W51073  12.067   5.649  24.325 -0.0989 -0.1078 -0.3761
42474W        W51074  28.506   7.603   3.439 -0.1802  0.0385  0.1799
42475W        W51075  13.466   5.229  19.841 -0.0326  0.1108 -0.0511
42476W        W51076   1.382   6.489   4.072  0.0795  0.0632  0.1562
42477W        W51077   2.443   6.757   0.228  0.1587  0.0140 -0.1814
42478W        W51078  23.570   3.115  20.694 -0.1649 -0.2018  0.2975
42479W        W51079  20.315   4.192  25.281 -0.0897  0.1757 -0.2874
42480W        W51080  26.537   7.290  24.973  0.1933 -0.0778  0.0688
42481W        W51081   9.946   4.860  19.883 -0.4155 -0.0711 -0.1071
42482W        W51082   0.898   2.099   5.275  0.2296 -0.0571  0.0670
42483W        W51083  30.449   4.801  16.148 -0.1656 -0.0144 -0.3616
42484W        W51084  21.100   5.644  17.869 -0.2886 -0.2617 -0.2943
42485W        W51085  16.241   3.053   8.942  0.1991 -0.1179 -0.2878
42486W        W51086  22.124   2.727   8.635 -0.2329  0.1285 -0.3404
42487W        W51087  23.853   1.102  21.160 -0.0680  0.1669 -0.2296
42488W        W51088   5.712   1.815  24.058  0.0627  0.1967  0.1581
42489W        W51089  31.188   6.908  18.041  0.3933  0.1986 -0.2412
42490W        W51090  14.836   1.296   8.952  0.2231 -0.0337  0.1375
42491W        W51091  15.519   2.220  22.715  0.0533 -0.2554  0.0368
42492W        W51092   3.247   6.686   0.406  0.3639  0.1402 -0.3649
42493W        W51093   2.538   3.820  25.002  0.0211  0.1950 -0.1940
42494W        W51094   7.180   2.381  16.100  0.0398 -0.1198  0.3734
42495W        W51095   3.717   3.791  25.321  0.3554 -0.0278 -0.0433
42496W        W51096  13.587   4.206   4.825  0.1740 -0.2443 -0.0953
42497W        W51097  26.421   4.096  10.691  0.2249  0.1026 -0.0298
42498W        W51098  14.732   7.122  24.244  0.0303  0.1167 -0.1704
42499W        W51099  22.358   0.902  16.701 -0.3061  0.1955 -0.0424
42500W        W51100  30.744   6.961   5.733  0.1006  0.0261 -0.2819
42501W        W51101  12.872   0.311  20.251 -0.0232 -0.0097 -0.0486
42502W        W51102  25.956   3.321  22.676 -0.3008 -0.1580 -0.0069
42503W        W51103  12.684   3.630  15.477  0.1423  0.3146  0.0265
42504W        W51104   5.913   4.231  19.938  0.2638 -0.1198 -0.1529
42505W        W51105  19.097   5.879  10.587 -0.0848 -0.0469 -0.0262
42506W        W51106  14.960   7.600  21.648  0.1408  0.1250 -0.1038
42507W        W51107   4.088   0.978  24.431 -0.1386  0.0601 -0.2904
42508W        W51108  15.153   0.599  19.103  0.1232  0.2316 -0.0952
42509W        W51109  27.340   0.582  24.611  0.0324  0.0277 -0.1991
42510W        W51110  19.613   0.986   6.183 -0.2362  0.0960  0.0656
42511W        W51111  27.475   3.057   1.925  0.0441 -0.0297 -0.1235
42512W        W51112   4.104   0.247  25.932 -0.3363 -0.1681  0.0075
42513W        W51113   8.108   5.022  22.632 -0.0632  0.2375 -0.0565
42514W        W51114   9.367   5.789   3.824  0.1630  0.0443 -0.0388
42515W        W51115   0.799   3.260   7.807 -0.0251  0.0014 -0.0149
42516W        W51116  12.266   1.941  19.446  0.0354 -0.1162 -0.1157
42517W        W51117  12.364   4.523   6.007  0.3388 -0.2013 -0.0311
42518W        W51118   8.560   1.507  18.743  0.0834  0.1175 -0.2004
42519W        W51119  15.808   6.150   3.644 -0.0138  0.1515 -0.1721
42520W        W51120   9.780   2.224   1.837 -0.1115  0.2657  0.2226
42521W        W51121   0.073   6.566  15.841 -0.2173  0.2308  0.1229
42522W        W51122  19.812   2.687   2.384  0.2681 -0.0352  0.0805
42523W        W51123   5.140   1.083  19.395  0.3234  0.0622  0.0446
42524W        W51124   1.133   3.930  25.481 -0.1193  0.0919 -0.1143
42525W        W51125  23.929   7.055  15.092  0.2047 -0.1041 -0.0234
42526W        W51126   3.953   6.730  24.136  0.1776 -0.2369  0.1286
42527W        W51127   3.219   0.092  16.830  0.1057  0.0949  0.3021
42528W        W51128  30.681   4.375   1.637  0.0510  0.1283 -0.2135
42529W        W51129  11.420   6.733  25.706 -0.1638  0.1124  0.1735
42530W        W51130   5.740   5.757  23.460 -0.1629 -0.0778  0.0961
42531W        W51131  27.381   2.814   9.954 -0.0795  0.1355  0.1027
42532W        W51132  21.191   5.137   6.634 -0.0320 -0.3169  0.0717
42533W        W51133   5.212   2.137   8.378  0.0301  0.0303 -0.2452
42534W        W51134  25.982   7.096  23.686 -0.0225  0.0438  0.5191
42535W        W51135  22.556   0.819  10.533  0.2110  0.1000  0.3256
42536W        W51136   6.000   6.483  24.552  0.3334 -0.1809  0.0538
42537W        W51137  23.325   2.534  16.521  0.1865 -0.0902  0.0112
42538W        W51138  17.660   2.431  25.836  0.2218  0.0095  0.0182
42539W        W51139  12.620   5.712   6.293  0.0780  0.0742 -0.0872
42540W        W51140  16.967   7.016   9.667  0.0690  0.0784 -0.0693
42541W        W51141  13.704   4.263  19.456  0.2120  0.0093 -0.1211
42542W        W51142   2.679   6.249  10.399  0.3060 -0.0097 -0.1850
42543W        W51143  14.394   4.656   1.063  0.0560 -0.3268  0.1338
42544W        W51144  14.748   0.625  18.803  0.2479  0.4137  0.1811
42545W        W51145   2.927   6.536   7.201  0.2227 -0.0746 -0.0746
42546W        W51146  27.252   3.453   5.143  0.2533  0.0308 -0.2654
42547W        W51147  18.971   6.447   6.400  0.0682 -0.0511  0.0935
42548W        W51148   0.734   3.772  25.133  0.3001  0.4394  0.0128
42549W        W51149  25.188   3.121   7.312  0.2974 -0.1779 -0.0448
42550W        W51150  14.345   1.794  15.241  0.1936  0.2635 -0.0497
42551W        W51151  21.717   1.603  19.147 -0.2874 -0.0134  0.0684
42552W        W51152  14.954   2.748   3.514  0.3842  0.0005  0.0065
42553W        W51153  16.665   4.322  15.794 -0.0575 -0.0346 -0.3236
42554W        W51154  30.672   1.335  18.509  0.0250  0.3959  0.0229
42555W        W51155  11.454   0.204   1.319 -0.2085  0.1110  0.0541
42556W        W51156  17.269   6.167   5.751 -0.0613  0.1962 -0.0270
42557W        W51157  30.721   0.569  22.482 -0.0417  0.0006  0.2028
42558W        W51158  24.757   1.286  23.175 -0.0152  0.0104 -0.1192
42559W        W51159  20.261   5.761  19.045 -0.3843 -0.1602  0.0906
42560W        W51160   3.007   2.340   9.499  0.2414 -0.0800 -0.0235
42561W        W51161   0.228   3.584  19.752  0.0811 -0.0699  0.1636
42562W        W51162  16.378   5.075   6.923  0.1217 -0.0091 -0.2605
42563W        W51163  16.803   5.162  24.604 -0.0504  0.1774  0.1118
42564W        W51164  22.500   4.881   0.634  0.3555  0.2280 -0.0593
42565W        W51165  17.722   6.103   6.028 -0.0564  0.1730 -0.2064
42566W        W51166  10.917   6.900  25.845  0.1088  0.3800 -0.3036
42567W        W51167   6.627   5.594  21.916 -0.0354 -0.0481 -0.0496
42568W        W51168  14.947   1.053  20.106 -0.2508 -0.1966  0.0999
42569W        W51169   7.153   6.674   0.373 -0.1017  0.0686  0.0027
42570W        W51170   2.529   5.135  18.625 -0.1660 -0.0748 -0.0386
42571W        W51171   1.825   6.328   2.781  0.1565  0.1742 -0.0676
42572W        W51172  11.395   7.739   9.081 -0.0653  0.0291  0.0454
42573W        W51173   1.587   0.256  16.568 -0.0466 -0.1885 -0.4056
42574W        W51174   3.690   4.433   0.995  0.1808 -0.2967  0.1543
42575W        W51175   4.025   2.633   2.100 -0.3194  0.2741 -0.0386
42576W        W51176   6.034   3.367  15.402  0.2259  0.2410 -0.0333
42577W        W51177  10.390   7.520  17.050  0.1006 -0.0396  0.0884
42578W        W51178  29.253   6.427   3.889  0.2968 -0.2996  0.1522
42579W        W51179   6.075   1.394  15.150  0.0857  0.1029 -0.0127
42580W        W51180  22.587   6.775  20.015  0.0440 -0.2322 -0.1686
42581W        W51181   2.974   5.678   1.541  0.2840 -0.1345  0.1764
42582W        W51182   7.535   2.561   0.532 -0.1337 -0.0321 -0.1526
42583W        W51183   7.352   2.269   9.155  0.3476 -0.2344  0.2640
42584W        W51184   1.696   4.213   2.342 -0.3127 -0.1005 -0.2157
42585W        W51185  26.739   1.443  24.721 -0.3514 -0.2128 -0.6475
42586W        W51186  29.699   4.891  24.510  0.5277  0.0331 -0.3203
42587W        W51187  23.772   0.032   8.224 -0.0712 -0.0325 -0.2562
42588W        W51188   3.157   4.934   0.252  0.3351  0.1657  0.1590
42589W        W51189  29.536   6.544  10.053 -0.1728 -0.1505  0.0014
42590W        W51190  21.555   1.808   3.554  0.0529 -0.0047  0.3640
42591W        W51191  26.298   5.897  15.370 -0.2204 -0.1375  0.0198
42592W        W51192  15.849   4.146  20.191  0.2769 -0.1240 -0.2577
42593W        W51193  18.510   4.811   6.716  0.0172  0.2275  0.0254
42594W        W51194  12.579   0.221  24.969 -0.2803 -0.1815 -0.1624
42595W        W51195  28.232   5.649   0.131  0.0674  0.2430 -0.0161
42596W        W51196  16.317   6.049  17.177 -0.0110 -0.4882  0.0098
42597W        W51197   4.790   2.472   8.145 -0.0366 -0.0876 -0.1471
42598W        W51198  27.078   1.344   4.420  0.0568 -0.1352 -0.2330
42599W        W51199   5.951   4.572   7.022  0.0125 -0.1644  0.0430
42600W        W51200   4.577   7.719   5.397  0.0997 -0.2193  0.1786
42601W        W51201  25.163   6.876  11.416 -0.2066 -0.0461 -0.1603
42602W        W51202  13.462   4.995  16.650 -0.0309 -0.2033  0.0730
42603W        W51203   5.532   2.434  18.684  0.1177  0.0028 -0.0924
42604W        W51204   1.513   7.721  16.937  0.2163  0.0615 -0.2177
42605W        W51205  17.894   1.377  19.677 -0.1598 -0.0342  0.2605
42606W        W51206  15.856   3.879   7.108 -0.0295  0.1263  0.0996
42607W        W51207  31.138   7.068  15.783  0.0530 -0.0802  0.0559
42608W        W51208  19.999   3.485   8.827 -0.0509  0.1321 -0.1167
42609W        W51209  22.805   5.895   0.625  0.3050  0.1627  0.1418
42610W        W51210   6.880   0.844  26.361  0.1591  0.2326  0.1230
42611W        W51211  12.750   2.084   1.654 -0.1192 -0.2090 -0.1919
42612W        W51212   7.413   3.714  20.946 -0.3768 -0.1298  0.0453
42613W        W51213  26.731   2.153  10.070 -0.2381  0.0922  0.1122
42614W        W51214  29.682   0.251  21.268  0.0663 -0.1538  0.1126
42615W        W51215  18.592   1.606  25.510  0.0743 -0.1448  0.1029
42616W        W51216  18.515   7.426  22.601  0.0191 -0.3899  0.1171
42617W        W51217  23.927   0.824  25.012 -0.1715 -0.0723 -0.0216
42618W        W51218  15.683   1.828  24.685 -0.1784 -0.1887 -0.0130
42619W        W51219  29.262   3.251   0.025  0.1875 -0.0850 -0.0405
42620W        W51220  29.905   6.229   1.351 -0.1125  0.1724  0.0017
42621W        W51221  30.278   2.403  26.155 -0.2423  0.1639 -0.1104
42622W        W51222   6.774   1.103  16.987  0.0375 -0.3640  0.0313
42623W        W51223  17.148   7.048  17.118 -0.0210  0.0438  0.1800
42624W        W51224  14.048   0.836  20.554 -0.2341 -0.0540  0.2787
42625W        W51225  20.491   2.827   5.191 -0.0887 -0.0911 -0.2288
42626W        W51226  29.209   6.156  24.970  0.0651 -0.0162 -0.0130
42627W        W51227  23.733   2.220  21.092  0.0240 -0.0318 -0.0115
42628W        W51228   6.680   3.805  23.189 -0.0254 -0.0593  0.0537
42629W        W51229  17.603   3.589   5.797  0.3346 -0.3111 -0.2983
42630W        W51230  19.631   6.884  16.942 -0.0764  0.0631  0.1560
42631W        W51231  16.432   6.329   7.729  0.0617 -0.0205  0.0011
42632W        W51232   0.489   3.407  25.288 -0.0731 -0.1533  0.1440
42633W        W51233   2.388   4.913   3.297  0.0464 -0.1179  0.1225
42634W        W51234  13.099   7.103  18.798  0.0039  0.4461  0.1600
42635W        W51235  15.067   2.400   3.000 -0.0697  0.0036 -0.0007
42636W        W51236  15.980   1.115  22.640 -0.3517 -0.3437 -0.2303
42637W        W51237  20.317   2.678   2.475 -0.0575 -0.0340 -0.0930
42638W        W51238   4.081   4.484  10.946  0.1194  0.0222  0.1710
42639W        W51239  26.424   0.426  10.680 -0.3538  0.0437 -0.0188
42640W        W51240   1.167   3.136  10.704 -0.1210 -0.1747 -0.0179
42641W        W51241  18.130   7.185  14.599 -0.0083 -0.0156  0.1839
42642W        W51242  18.399   0.727  21.553 -0.0540 -0.4074  0.2766
42643W        W51243   9.560   4.857   5.907  0.1136  0.0105 -0.1070
42644W        W51244  30.053   4.792   8.375  0.1365  0.1177  0.1823
42645W        W51245  13.435   0.504  24.107 -0.2276 -0.1359 -0.2325
42646W        W51246   2.298   0.185  19.694  0.1176 -0.0866 -0.1630
42647W        W51247  26.616   5.067   0.579 -0.2170 -0.3735 -0.0785
42648W        W51248  18.828   7.703   0.227  0.1558  0.1392  0.1637
42649W        W51249   4.264   3.400  21.296 -0.2844 -0.0744  0.0628
42650W        W51250   4.182   5.036   4.321 -0.1011 -0.0196  0.0698
42651W        W51251  27.217   5.158   1.358  0.1856  0.3059  0.0159
42652W        W51252   6.969   7.641   3.471 -0.1139 -0.1037 -0.2637
42653W        W51253  24.601   7.374  24.731 -0.0730 -0.0036  0.0897
42654W        W51254  19.039   0.465  17.377  0.0681  0.1991 -0.1781
42655W        W51255  22.949   6.929  23.817  0.3306 -0.0191  0.0633
42656W        W51256  18.162   6.197   8.069  0.0516  0.0724  0.1251
42657W        W51257  10.908   4.254   1.803  0.0212 -0.1768 -0.2769
42658W        W51258   9.509   3.463   0.213 -0.3130  0.1052 -0.0371
42659W        W51259  12.191   4.790   7.348  0.0248 -0.0743 -0.0577
42660W        W51260  27.129   4.162  11.132  0.2603 -0.0623 -0.1673
42661W        W51261  11.154   1.525  19.935  0.1128 -0.3110  0.1083
42662W        W51262   4.328   2.199  14.978 -0.0302  0.1884  0.1022
42663W        W51263  28.147   6.228   7.221  0.0256  0.1513 -0.0150
42664W        W51264  18.738   0.706  19.583  0.4614  0.1759  0.4103
42665W        W51265   9.695   6.979   5.739 -0.0874  0.0128  0.0563
42666W        W51266  18.523   1.612   0.898 -0.0836  0.1844 -0.0324
42667W        W51267   5.126   6.717  10.552 -0.2703 -0.1772 -0.0568
42668W        W51268  16.498   4.323  18.156  0.1016  0.1931  0.1997
42669W        W51269  26.242   6.865   0.885  0.2421  0.0026 -0.0917
42670W        W51270  29.136   2.111  25.218 -0.2726  0.2909 -0.1500
42671W        W51271  20.245   5.121  10.175 -0.0718  0.0374  0.0447
42672W        W51272  18.988   2.908  16.069  0.0837  0.1183  0.4088
42673W        W51273  29.406   1.993  21.084  0.2700 -0.0306 -0.0348
42674W        W51274   4.229   1.209  16.187 -0.0340  0.2944 -0.1578
42675W        W51275   9.237   4.777   3.407  0.1276  0.0082  0.0294
42676W        W51276  21.568   6.021   5.988  0.1814 -0.0804 -0.2236
42677W        W51277  29.663   6.547  17.977  0.1455 -0.0111  0.2044
42678W        W51278   6.159   7.051  19.990 -0.1160 -0.3541  0.1153
42679W        W51279  10.231   6.944   0.768 -0.2492 -0.2259 -0.0885
42680W        W51280  14.276   4.200  16.420  0.0113 -0.1632  0.0548
42681W        W51281  17.109   0.926   3.981 -0.3270  0.1893  0.0522
42682W        W51282  11.298   5.545  19.115  0.1466 -0.0240  0.2044
42683W        W51283   1.611   5.740  16.240 -0.2126  0.0699  0.2846
42684W        W51284   1.384   2.295   1.191 -0.0121  0.0715 -0.3917
42685W        W51285   3.107   3.948  22.022  0.0787  0.1715 -0.0579
42686W        W51286  18.849   2.817   9.747  0.2193 -0.0804 -0.1902
42687W        W51287   1.091   4.927  16.519  0.0887  0.0539 -0.2027
42688W        W51288   8.809   0.295   5.223 -0.1935  0.4131 -0.0270
42689W        W51289  12.738   2.325  25.078  0.0793 -0.1759 -0.0829
42690W        W51290   5.776   2.196  25.029 -0.0313  0.0990 -0.0284
42691W        W51291  18.194   3.292   8.822 -0.0240 -0.1988  0.1749
42692W        W51292  29.729   1.002   1.536 -0.1148  0.0279  0.0861
42693W        W51293  20.394   2.597  18.110  0.0261 -0.1039  0.1762
42694W        W51294  10.037   4.480   6.469 -0.0667 -0.0875  0.0449
42695W        W51295  26.152   1.227  18.163  0.2150 -0.1186 -0.0726
42696W        W51296  28.121   2.269  22.384  0.2018  0.0089 -0.0804
42697W        W51297  14.689   4.872  20.514  0.0278  0.2266 -0.0467
42698W        W51298   1.993   2.224   1.762 -0.0565  0.0520  0.1340
42699W        W51299  29.206   5.026   3.447  0.1546  0.1234  0.1435
42700W        W51300  12.798   7.244  20.397  0.3699 -0.0080  0.0076
42701W        W51301  30.140   0.064   9.196 -0.0128 -0.2512 -0.4263
42702W        W51302  25.859   0.326  21.432  0.1192 -0.3647 -0.1170
42703W        W51303  19.363   5.652  21.220 -0.0995  0.4078  0.1843
42704W        W51304  27.468   6.789  25.983 -0.0239  0.0800  0.1278
42705W        W51305   8.074   0.086   0.286  0.0022 -0.2089  0.1109
42706W        W51306  23.313   1.469  26.422 -0.0996 -0.0575 -0.2148
42707W        W51307  22.731   4.744  18.139 -0.2040  0.0095  0.1680
42708W        W51308  12.623   4.871   9.892  0.1723 -0.3078 -0.1103
42709W        W51309   8.805   4.356   7.337 -0.2241  0.2287  0.0756
42710W        W51310  10.737   0.313   9.810 -0.0708  0.0696 -0.1365
42711W        W51311   9.462   6.417  16.859  0.2287 -0.3531 -0.1843
42712W        W51312   5.323   1.380  17.260 -0.0678 -0.3256 -0.0650
42713W        W51313  13.508   2.092  16.468 -0.0677  0.0124  0.1686
42714W        W51314  26.851   2.491   0.619  0.2216 -0.2688 -0.4152
42715W        W51315  30.208   4.292   4.092 -0.0535  0.2290  0.1578
42716W        W51316   5.347   2.428   0.418  0.4581  0.1214  0.0147
42717W        W51317  14.402   2.580   3.629 -0.0275 -0.0006 -0.1710
42718W        W51318  28.677   3.195  14.885  0.5348 -0.0046 -0.2168
42719W        W51319  21.067   5.467   8.160 -0.0059 -0.1268 -0.0849
42720W        W51320   9.950   6.771  25.896  0.0906  0.1767 -0.0507
42721W        W51321  19.635   2.618  23.847  0.0193  0.1660 -0.0131
42722W        W51322  28.133   6.704  21.999  0.1253  0.4126 -0.0495
42723W        W51323  21.805   6.363  21.078  0.1030 -0.1488  0.1742
42724W        W51324  25.160   7.666   7.827  0.1329  0.0057  0.0018
42725W        W51325  23.856   3.394  20.359 -0.0414 -0.1307  0.1963
42726W        W51326  11.503   7.691   4.882 -0.0938  0.0658 -0.0731
42727W        W51327   1.069   6.665  23.698  0.0903 -0.0552 -0.3049
42728W        W51328  10.808   0.602   1.842 -0.4379 -0.1580  0.0327
42729W        W51329  29.033   5.961  21.746  0.1655  0.2238 -0.1799
42730W        W51330  22.644   0.312   3.735 -0.2008  0.0390  0.2115
42731W        W51331  14.790   7.587  19.055  0.0123 -0.1829  0.0287
42732W        W51332  24.461   5.695  21.124 -0.1154 -0.0559 -0.0764
42733W        W51333  22.530   2.178  22.482  0.1239 -0.1389 -0.1886
42734W        W51334  28.502   5.183  20.342 -0.4937  0.0606 -0.0356
42735W        W51335  30.396   0.101  16.392 -0.0642  0.4459 -0.1494
42736W        W51336  24.110   3.815  18.478  0.0387  0.0742  0.0982
42737W        W51337   8.290   2.164   6.895 -0.0667  0.2242 -0.0292
42738W        W51338  17.088   6.724  23.967  0.0127 -0.2184 -0.0379
42739W        W51339   8.968   7.598   5.311  0.2666  0.1738  0.3256
42740W        W51340  25.850   6.057  25.390 -0.0062 -0.0845  0.1345
42741W        W51341  26.052   1.905  20.447  0.0497 -0.0156 -0.2825
42742W        W51342  27.771   5.317  21.431  0.1046 -0.1234 -0.0031
42743W        W51343  22.104   0.623   6.028 -0.1920  0.4046  0.1048
42744W        W51344   8.443   5.890   9.480 -0.0949 -0.2568  0.2938
42745W        W51345   3.201   7.293  10.334  0.0367  0.0759  0.0263
42746W        W51346  16.775   5.010   8.046 -0.1939  0.3093  0.2622
42747W        W51347  18.469   1.976  10.922  0.0702  0.2482 -0.3831
42748W        W51348  11.240   2.492   2.156  0.2092  0.1641 -0.2490
42749W        W51349  18.527   1.757   7.428  0.0771  0.1187  0.0115
42750W        W51350   3.149   4.681   4.772  0.0747 -0.4998 -0.2455
42751W        W51351   0.303   3.679  18.145 -0.2156  0.1124 -0.2189
42752W        W51352  24.224   2.670  23.360 -0.2718 -0.0812  0.1150
42753W        W51353  27.100   6.427  26.050 -0.0622 -0.1930 -0.0726
42754W        W51354  17.965   3.506   5.491 -0.3651 -0.1539  0.2036
42755W        W51355   6.891   1.854   3.439 -0.1050  0.2282  0.0362
42756W        W51356  10.300   3.618   1.996 -0.2179  0.0103  0.0246
42757W        W51357  22.374   7.249   3.384  0.1993  0.3533 -0.1287
42758W        W51358  12.654   6.026  17.983  0.2120 -0.0729 -0.0717
42759W        W51359  24.760   5.994   9.503 -0.0256 -0.1788  0.0997
42760W        W51360  14.066   7.282  16.538 -0.0258  0.0581 -0.0305
42761W        W51361   5.350   2.761  23.029 -0.1103  0.2615 -0.0560
42762W        W51362   4.360   4.718  25.318 -0.1887 -0.4308 -0.0159
42763W        W51363  15.852   2.341   3.288  0.1792 -0.2931 -0.1857
42764W        W51364   9.533   1.104  24.333  0.0135 -0.0632 -0.3204
42765W        W51365   6.643   5.723   0.180  0.0525 -0.2590  0.0418
42766W        W51366  30.940   2.963   0.523 -0.2421  0.1675  0.2516
42767W        W51367  24.991   4.493  17.170  0.0760  0.0337 -0.0587
42768W        W51368  27.694   3.362   0.261 -0.0737  0.0425 -0.4845
42769W        W51369   8.701   7.066  18.328 -0.0572 -0.1232  0.0520
42770W        W51370  29.450   2.072  15.786  0.2969 -0.3151  0.1800
42771W        W51371  30.423   1.165   0.975 -0.0615  0.1472 -0.0173
42772W        W51372   7.543   6.666   7.778  0.1427 -0.0156 -0.0914
42773W        W51373  13.545   1.939   1.503  0.0631 -0.1523 -0.1657
42774W        W51374  14.853   1.319   0.318 -0.1813  0.0209 -0.0605
42775W        W51375  19.304   7.359  20.661 -0.3369 -0.0035 -0.0482
42776W        W51376  23.041   0.192  15.571 -0.1706 -0.3572 -0.0481
42777W        W51377   7.072   7.601  18.916 -0.2813 -0.0865 -0.1337
42778W        W51378   1.166   1.062  16.190  0.1555 -0.0749  0.1035
42779W        W51379  16.306   7.461  20.705  0.1775  0.2087 -0.0941
42780W        W51380  18.208   4.520   5.764 -0.2375 -0.2799 -0.2652
42781W        W51381  19.450   5.609   1.543 -0.0191 -0.1839 -0.0313
42782W        W51382  21.015   7.354  16.914  0.0612 -0.0383 -0.0838
42783W        W51383  26.139   0.708  26.255 -0.1132 -0.1496  0.1477
42784W        W51384   7.336   5.511  21.315 -0.0889  0.1770  0.1628
42785W        W51385  23.346   6.505   9.499  0.1805 -0.0993 -0.0075
42786W        W51386  11.923   5.565  17.087  0.1626 -0.2942 -0.2230
42787W        W51387   5.725   2.954  26.276  0.0633  0.0492  0.2567
42788W        W51388  14.645   7.144   4.273  0.0871 -0.1283  0.2035
42789W        W51389   8.910   1.448  15.114 -0.0902 -0.1403  0.2909
42790W        W51390  20.388   3.359  25.724  0.1203  0.0007  0.0185
42791W        W51391  21.166   7.525   1.936  0.2034 -0.0557 -0.1984
42792W        W51392  17.533   5.960   2.281 -0.0929  0.1788  0.1591
42793W        W51393  26.798   7.306  26.074 -0.0476  0.1160 -0.0671
42794W        W51394  21.890   5.637  26.244 -0.3944  0.0386 -0.2425
42795W        W51395  24.361   0.123   9.596 -0.0855 -0.1696 -0.1836
42796W        W51396  15.977   7.151  17.371 -0.2409  0.1245 -0.0200
42797W        W51397   5.989   2.826   8.080  0.0663 -0.1029 -0.0707
42798W        W51398  14.648   5.062  21.660  0.0101 -0.0388  0.1571
42799W        W51399  22.068   2.667  19.564 -0.0527  0.3243  0.0345
42800W        W51400   4.002   7.569  26.099  0.1244  0.1519 -0.2109
42801W        W51401  26.164   1.595   7.045  0.1596 -0.1447 -0.1009
42802W        W51402  15.592   2.327   8.683 -0.0408  0.2818 -0.1486
42803W        W51403  10.675   2.268  17.974 -0.1395  0.0214  0.1616
42804W        W51404  29.392   0.912  10.344 -0.2906 -0.0040  0.0419
42805W        W51405  12.790   3.659   6.790 -0.0213  0.0245  0.0241
42806W        W51406   6.947   5.680  22.735  0.0138 -0.1776 -0.0077
42807W        W51407  14.583   3.260  19.096  0.0625  0.1289  0.1527
42808W        W51408  11.783   1.987  24.791 -0.1107 -0.2782 -0.1340
42809W        W51409   9.511   5.353  16.090 -0.4536 -0.1438  0.0174
42810W        W51410   5.474   3.751  19.172  0.1504  0.0514  0.3298
42811W        W51411   5.544   6.484   1.890 -0.0890 -0.2139 -0.1320
42812W        W51412   3.924   3.210  18.302 -0.0841  0.1506  0.2160
42813W        W51413  20.345   1.736  18.770 -0.2797 -0.0585  0.0554
42814W        W51414  25.585   6.469  18.294 -0.0424 -0.0758 -0.1418
42815W        W51415  20.485   2.290   0.290  0.2969  0.3327  0.1251
42816W        W51416   4.984   4.474  16.805 -0.2248 -0.0018 -0.2482
42817W        W51417  19.396   2.722   9.035 -0.1684 -0.1700 -0.0492
42818W        W51418  16.056   5.412  18.235 -0.0184 -0.0763  0.0115
42819W        W51419  21.197   1.033   4.942 -0.0720  0.1269  0.1485
42820W        W51420  17.453   3.775  17.842 -0.0200  0.0020  0.3187
42821W        W51421  30.109   0.589  25.903  0.1068 -0.0771 -0.0448
42822W        W51422  19.750   0.773  20.855  0.1507 -0.3482 -0.1137
42823W        W51423   9.745   6.454   2.433  0.0042  0.1782  0.1165
42824W        W51424  21.165   5.254  24.729 -0.0671 -0.0309  0.0411
42825W        W51425  16.038   1.925  21.771  0.0407 -0.0324 -0.1215
42826W        W51426   9.956   6.169  25.087 -0.1152  0.4485  0.1561
42827W        W51427  23.604   1.624   5.563  0.0863  0.2024 -0.1534
42828W        W51428  31.064   3.483  24.791  0.2137 -0.0847 -0.1548
42829W        W51429   6.347   5.240   0.581 -0.4311  0.0911  0.0661
42830W        W51430  28.480   2.951   4.572 -0.3896 -0.2307 -0.0837
42831W        W51431  20.423   2.377  23.974 -0.1430 -0.0060 -0.1058
42832W        W51432  12.694   1.995  22.322  0.0117  0.1972 -0.3101
42833W        W51433  24.228   1.136  17.526 -0.2526  0.0547 -0.1930
42834W        W51434   8.966   6.654  16.283 -0.3401  0.0230  0.0901
42835W        W51435   2.016   4.857   1.267  0.0522  0.1751 -0.0157
42836W        W51436   3.092   5.000   1.102 -0.0348 -0.1897 -0.0911
42837W        W51437  28.932   0.061  20.420 -0.0647 -0.1416  0.0628
42838W        W51438   8.744   5.898   7.845  0.0632 -0.3843 -0.1056
42839W        W51439  14.046   3.804   1.979 -0.0433  0.2020 -0.1539
42840W        W51440   1.986   5.511   0.137  0.1227 -0.0000  0.0382
42841W        W51441  14.764   5.056  16.413  0.0540 -0.0098  0.1195
42842W        W51442  11.967   0.716  24.538  0.0109  0.3417 -0.3070
42843W        W51443  13.298   7.716  17.212 -0.0366 -0.0180 -0.1344
42844W        W51444  29.756   5.582   2.014  0.0190  0.0267  0.0464
42845W        W51445   9.288   4.911   9.373 -0.0430 -0.0800  0.1283
42846W        W51446  26.767   5.239   7.710 -0.1303 -0.0619  0.0129
42847W        W51447   3.108   0.402  25.028 -0.1938  0.0787  0.1462
42848W        W51448  28.040   5.099  21.045  0.0641 -0.2195 -0.0810
42849W        W51449   5.259   0.261   1.779  0.1218  0.1400  0.1336
42850W        W51450   2.062   0.462   6.519 -0.4753  0.2053  0.2340
42851W        W51451  13.454   3.732   4.737  0.0682  0.2033  0.1430
42852W        W51452  12.725   7.466  24.974 -0.0058  0.1939 -0.0186
42853W        W51453  26.707   0.525   8.209  0.3037 -0.0364 -0.0984
42854W        W51454  20.431   4.576  17.298  0.1762 -0.1646 -0.2816
42855W        W51455  15.618   0.009   7.557 -0.1218  0.0853 -0.0012
42856W        W51456  18.469   5.062  16.040 -0.0408 -0.1157 -0.0237
42857W        W51457   0.989   4.059   4.129  0.0512 -0.1984  0.0235
42858W        W51458  18.734   4.674  26.074  0.2814 -0.1047  0.1855
42859W        W51459   9.599   2.024  24.391 -0.1006 -0.2298 -0.1267
42860W        W51460   5.431   5.226  10.338  0.0166 -0.2427  0.1253
42861W        W51461   1.913   7.534  18.414  0.2437 -0.2779 -0.2655
42862W        W51462  26.635   3.132  16.278  0.1647  0.1200  0.0946
42863W        W51463  10.633   3.558  16.473  0.2411 -0.1459 -0.0186
42864W        W51464  16.483   5.254  23.779 -0.3288 -0.0891 -0.1337
42865W        W51465   1.107   1.051   1.030 -0.3224 -0.0560 -0.1181
42866W        W51466  27.670   6.171   7.977 -0.0212  0.0124 -0.0125
42867W        W51467   5.582   3.719   7.392  0.0401  0.2271  0.0055
42868W        W51468   1.880   3.773  15.609 -0.0598  0.3428  0.1682
42869W        W51469   6.164   3.204   6.884 -0.0644  0.0199  0.1825
42870W        W51470  26.616   1.149  19.368  0.0844  0.2688  0.0545
42871W        W51471  22.263   3.095   7.935  0.1937 -0.0091  0.0904
42872W        W51472   4.716   2.273  16.736  0.2902  0.1108  0.1818
42873W        W51473  19.231   0.526   4.600 -0.0394 -0.1179 -0.2594
42874W        W51474  28.952   6.607  24.972  0.2135 -0.0262  0.2071
42875W        W51475  12.134   6.202  23.503 -0.0378 -0.2179 -0.2223
42876W        W51476   2.057   4.174  17.899 -0.1866  0.0793  0.3347
42877W        W51477  19.527   4.307  17.790 -0.1774  0.1167 -0.2049
42878W        W51478  27.668   0.333   3.716 -0.0866 -0.0723  0.1982
42879W        W51479  19.932   1.086  11.002  0.1807  0.0071 -0.1967
42880W        W51480  22.209   3.904   4.648 -0.0656  0.0870 -0.0294
42881W        W51481  15.241   0.683  21.089  0.2049 -0.0568  0.0692
42882W        W51482  16.909   1.810  21.706  0.1384  0.0914 -0.1616
42883W        W51483   1.401   4.610  20.394 -0.0059 -0.1860 -0.1342
42884W        W51484  30.494   6.525  19.945  0.0165 -0.3929 -0.0680
42885W        W51485   2.582   6.860  17.611  0.1084  0.2479 -0.1898
42886W        W51486  22.244   7.332  17.186  0.0203 -0.0996  0.3767
42887W        W51487   5.808   2.209   0.340  0.1866  0.1224  0.1347
42888W        W51488  17.084   7.616  23.584 -0.0717 -0.0481  0.0714
42889W        W51489  25.725   4.573  18.152  0.0722 -0.2165 -0.1708
42890W        W51490  23.232   2.219  10.591 -0.0406  0.0123  0.0932
42891W        W51491  21.050   5.109   0.972 -0.2119 -0.3487  0.0712
42892W        W51492  15.453   1.487  20.118 -0.0079  0.0783 -0.0383
42893W        W51493  15.655   7.304   3.432 -0.0324  0.0475  0.0788
42894W        W51494   5.764   1.748   3.937 -0.0843 -0.2058 -0.0245
42895W        W51495  25.303   1.282  26.318 -0.0757 -0.0255 -0.0207
42896W        W51496  15.479   6.531  15.921 -0.0720 -0.2171  0.0458
42897W        W51497  13.676   2.695   5.412  0.2996  0.1678  0.1067
42898W        W51498  11.161   4.263   0.972 -0.0368 -0.1479  0.0768
42899W        W51499  24.704   0.669   9.216  0.0519  0.0853  0.0608
42900W        W51500  21.374   2.223   5.668 -0.1363 -0.0709 -0.0511
42901W        W51501  23.266   7.684  22.880 -0.2029 -0.2876  0.1328
42902W        W51502  20.802   4.715  26.035 -0.3319  0.0664 -0.0309
42903W        W51503  20.815   3.267   7.329 -0.0102  0.0487 -0.3784
42904W        W51504  19.293   2.950  23.765  0.0500 -0.1010  0.0027
42905W        W51505   4.125   0.461   3.430 -0.1988 -0.0626  0.0696
42906W        W51506   5.340   6.246   4.101  0.0101  0.3161 -0.0147
42907W        W51507  10.869   2.596  10.759  0.2808  0.2645 -0.1411
42908W        W51508  15.456   1.298   7.808 -0.0589  0.1113  0.1026
42909W        W51509   6.953   2.991  10.243 -0.2093 -0.2486  0.4469
42910W        W51510  13.426   1.089   0.353  0.1243  0.3050  0.4143
42911W        W51511  16.366   4.989   2.917  0.0515 -0.1291 -0.2260
42912W        W51512   4.482   6.253   8.242  0.0452 -0.1867  0.0401
42913W        W51513  26.543   0.444  16.222  0.0449 -0.0287  0.1714
42914W        W51514  26.820   4.861  16.539 -0.1651  0.1588 -0.0506
42915W        W51515   5.893   2.134  23.732  0.2805  0.1344 -0.1646
42916W        W51516   0.197   6.351   8.235  0.3504 -0.0130 -0.2312
42917W        W51517  22.651   6.630  16.485 -0.0655  0.0688 -0.3918
42918W        W51518  11.853   1.332   3.458 -0.0483  0.0691  0.0904
42919W        W51519   9.132   7.525  23.612  0.1097  0.0319  0.0183
42920W        W51520   5.525   4.977   6.989  0.1644 -0.0997 -0.2103
42921W        W51521   1.932   6.421  25.986  0.0391 -0.1035 -0.1008
42922W        W51522  19.936   2.355   1.431  0.2104 -0.0707  0.0179
42923W        W51523   3.461   4.004  18.012  0.1043 -0.3235 -0.0248
42924W        W51524  18.928   7.163  16.334 -0.0238 -0.1285 -0.2838
42925W        W51525  18.238   2.743  25.797 -0.1971 -0.3273  0.0588
42926W        W51526  23.630   2.656  22.509 -0.1535 -0.4570 -0.2028
42927W        W51527   0.387   6.918   4.606 -0.0915  0.0581 -0.0951
42928W        W51528  22.230   2.805  11.191 -0.1639  0.1021  0.2565
42929W        W51529   0.793   6.247  18.962  0.3080 -0.2041  0.1785
42930W        W51530  21.349   2.203  20.823 -0.1736 -0.1337  0.1115
42931W        W51531  28.840   0.836  15.271  0.1251  0.1596 -0.1194
42932W        W51532  17.420   0.298   6.298  0.0850 -0.1685 -0.2174
42933W        W51533  22.968   6.078   9.635  0.2573 -0.2487  0.2833
42934W        W51534  14.086   4.406   4.817  0.2205  0.0900  0.1404
42935W        W51535  14.529   1.472   3.156  0.0243  0.2905 -0.2505
42936W        W51536  10.659   5.497  23.086  0.4705 -0.0474 -0.1566
42937W        W51537   7.241   1.122  24.667  0.1275 -0.1798  0.2308
42938W        W51538   1.347   0.877  23.591 -0.3778 -0.3136 -0.1407
42939W        W51539   5.798   2.740  22.098 -0.1488  0.1753  0.1236
42940W        W51540  28.528   3.998   6.433 -0.0278  0.0695 -0.1238
42941W        W51541  15.665   3.691  20.064 -0.2470  0.0708 -0.2492
42942W        W51542   1.463   5.919   2.917  0.0293 -0.0414 -0.0610
42943W        W51543   6.129   3.382   4.717  0.0881 -0.0278  0.0167
42944W        W51544  28.089   4.358  16.453  0.0926  0.1457 -0.1916
42945W        W51545  17.188   5.896  18.818 -0.2182 -0.0954 -0.0660
42946W        W51546  23.793   5.427  24.563  0.3123  0.0409 -0.3040
42947W        W51547  14.377   1.138   9.691  0.2972 -0.1262 -0.1121
42948W        W51548   0.771   5.359  23.207 -0.1193 -0.2663 -0.2277
42949W        W51549  25.598   4.932  25.877  0.0616 -0.1431 -0.1546
42950W        W51550  11.031   0.075  18.249  0.0083 -0.1248 -0.0967
42951W        W51551  23.326   0.066   6.282  0.1907 -0.1793  0.0193
42952W        W51552   8.515   0.094   4.195  0.2776 -0.0021 -0.1377
42953W        W51553  17.086   3.691  24.231  0.0453 -0.0720  0.1742
42954W        W51554   0.630   5.402  21.589 -0.1779 -0.1059  0.1830
42955W        W51555  17.626   5.383  19.509 -0.2794  0.1122 -0.1004
42956W        W51556  29.057   5.163  20.790  0.0761  0.1749 -0.0291
42957W        W51557  20.449   2.534  26.182 -0.0724 -0.0706 -0.0071
42958W        W51558   5.903   6.905  15.565 -0.1105 -0.3022 -0.2124
42959W        W51559  30.051   2.528  15.994  0.1388  0.0226 -0.0932
42960W        W51560  29.530   3.204   5.855 -0.0268  0.3261  0.0308
42961W        W51561  14.585   5.457  19.728  0.1860  0.1106 -0.1791
42962W        W51562  19.313   3.054  22.476  0.1821 -0.1687  0.0520
42963W        W51563  22.787   4.112  23.443  0.2375 -0.2674 -0.0513
42964W        W51564  12.057   3.000  22.881  0.2187 -0.0308  0.2578
42965W        W51565   3.702   5.135  19.464  0.0936 -0.0921 -0.0300
42966W        W51566  30.545   5.604  22.617 -0.0604  0.1138  0.2721
42967W        W51567  18.881   1.708   3.462 -0.1876 -0.1693  0.1933
42968W        W51568   9.431   1.740  22.633 -0.0881  0.2562 -0.0536
42969W        W51569  13.187   3.206   6.040  0.0912 -0.0175 -0.2406
42970W        W51570   3.984   5.539  19.319 -0.0421 -0.2067  0.1966
42971W        W51571  30.496   1.906   7.072  0.1134  0.1780 -0.1328
42972W        W51572  30.259   4.674   1.669 -0.1155 -0.2366  0.0592
42973W        W51573  27.671   3.090  17.213  0.1185 -0.0668  0.1373
42974W        W51574  29.736   0.056   4.044 -0.0436  0.0994  0.3395
42975W        W51575  23.769   7.373   2.212 -0.3148  0.0657 -0.0200
42976W        W51576   4.454   2.718  16.655 -0.3522  0.1955  0.3635
42977W        W51577  22.173   2.285   3.821  0.3169  0.0897 -0.5765
42978W        W51578   1.336   7.342   0.021 -0.1105  0.1671 -0.3738
42979W        W51579  30.388   2.737  18.707  0.3374  0.2258 -0.0835
42980W        W51580  19.844   7.565   1.748  0.2236  0.2447 -0.1321
42981W        W51581  29.838   4.244   0.170  0.0167 -0.1704  0.1785
42982W        W51582  16.136   0.985  16.404  0.0538  0.0019 -0.2665
42983W        W51583  14.340   4.704   6.348  0.1492  0.0584 -0.1973
42984W        W51584  27.046   4.195   1.093  0.0266  0.3884  0.1262
42985W        W51585  25.519   6.362  19.274  0.0961 -0.0072 -0.1665
42986W        W51586  13.407   1.746   8.479 -0.3494  0.3658 -0.0639
42987W        W51587   6.374   1.949  23.543 -0.1128 -0.3641  0.0929
42988W        W51588  14.579   4.275  10.061 -0.2230  0.0768 -0.1981
42989W        W51589  11.347   5.846  16.096 -0.2807 -0.0933  0.1539
42990W        W51590  19.964   2.448  21.548  0.2283 -0.3492  0.1109
42991W        W51591  21.300   1.525   6.457  0.1339  0.1668  0.0759
42992W        W51592  15.599   1.635  17.130  0.1688 -0.0255  0.0705
42993W        W51593  26.431   5.587  10.837  0.1706  0.0035 -0.2698
42994W        W51594   1.271   0.732   5.763  0.0076 -0.1342 -0.2962
42995W        W51595  24.780   1.271  10.142  0.1621 -0.0636  0.1256
42996W        W51596  15.775   7.161  18.066 -0.0143  0.0470  0.0288
42997W        W51597  16.637   7.458   4.746  0.0166  0.1921 -0.1532
42998W        W51598  30.256   1.158  25.161  0.1133  0.2361  0.0001
42999W        W51599  30.700   6.444  23.200  0.1179  0.1270 -0.1108
43000W        W51600  27.442   2.343   0.234 -0.0172 -0.1168 -0.2073
43001W        W51601  17.399   0.255  18.246 -0.1501  0.0588 -0.1550
43002W        W51602   7.567   1.868  25.872  0.2101 -0.3041 -0.0936
43003W        W51603  12.993   6.050  22.888  0.0644  0.0036  0.0635
43004W        W51604  31.158   4.696  18.852  0.2522  0.0026  0.0934
43005W        W51605  18.514   0.807  12.036  0.0118  0.0148  0.1380
43006W        W51606  19.103   2.644   3.728 -0.0852  0.2292  0.0974
43007W        W51607   8.622   3.254  19.401  0.0554  0.5870  0.1170
43008W        W51608   4.626   4.924  16.364 -0.2607  0.1379 -0.0254
43009W        W51609   1.698   5.697  21.579 -0.2525  0.0075  0.1790
43010W        W51610  21.094   6.021  17.530 -0.0553  0.0594 -0.0401
43011W        W51611  23.220   5.035   8.253 -0.1818 -0.2884  0.1937
43012W        W51612   7.199   6.984   6.098 -0.0483  0.0303 -0.0561
43013W        W51613  10.955   3.955   2.895 -0.1661 -0.0020 -0.1831
43014W        W51614  30.039   3.742  18.347 -0.1256 -0.3157  0.3053
43015W        W51615   0.185   1.734   8.879  0.0501  0.1307  0.0797
43016W        W51616  25.401   2.232  10.470  0.0634 -0.0347 -0.2940
43017W        W51617  19.276   0.797  10.252 -0.1929  0.0867 -0.1577
43018W        W51618  31.191   3.943   1.865  0.1775  0.3928 -0.2289
43019W        W51619   1.678   2.681  19.028  0.0157  0.1597  0.1969
43020W        W51620   5.739   6.036  19.112  0.1946 -0.1791 -0.0734
43021W        W51621   2.025   7.057   2.924  0.1594 -0.0835  0.2500
43022W        W51622   2.529   7.214   4.296  0.0386 -0.0357 -0.2186
43023W        W51623   9.989   2.742  25.086  0.1267 -0.1279 -0.0156
43024W        W51624   0.406   7.209  10.626 -0.1093  0.1355  0.1662
43025W        W51625  26.600   6.029  17.258 -0.0743 -0.0619  0.2745
43026W        W51626  30.257   1.880  10.875 -0.1161  0.2202 -0.0709
43027W        W51627  24.940   5.995  18.704  0.0717  0.1406 -0.0087
43028W        W51628   9.038   3.479   1.595  0.0922 -0.1956  0.1433
43029W        W51629  16.974   5.980  25.740 -0.1060 -0.0041 -0.1840
43030W        W51630  15.589   7.731   1.144  0.0312 -0.2320 -0.0199
43031W        W51631  28.213   2.018  17.244  0.2926  0.1419 -0.0210
43032W        W51632  30.428   0.567   9.303  0.0166  0.1989  0.0917
43033W        W51633  13.071   1.504   2.826 -0.1124 -0.2584 -0.1227
43034W        W51634  23.960   5.233  17.688 -0.1696 -0.1975  0.1122
43035W        W51635  18.824   5.673  19.449  0.1037 -0.2818  0.2707
43036W        W51636   9.449   2.903   7.336 -0.2828 -0.2855 -0.1665
43037W        W51637  24.295   5.621   4.409 -0.1011 -0.1617 -0.3015
43038W        W51638  16.806   3.702  16.659  0.1395 -0.0044 -0.2249
43039W        W51639  26.687   7.231  22.648 -0.3434 -0.2442 -0.1363
43040W        W51640   3.105   1.857   0.299 -0.1570 -0.3472  0.0079
43041W        W51641   6.127   7.254  22.095 -0.0727 -0.1025 -0.1668
43042W        W51642  11.195   5.989   8.316  0.0581 -0.2495  0.2020
43043W        W51643   5.098   6.462  17.197  0.1336  0.1909  0.3524
43044W        W51644  14.101   6.917  25.940  0.4508 -0.0392  0.3973
43045W        W51645   4.165   6.266  21.834 -0.1976 -0.1445  0.0505
43046W        W51646   1.581   1.333   8.295  0.2235 -0.1806  0.0347
43047W        W51647  21.541   0.304  10.842 -0.1307 -0.3075 -0.0486
43048W        W51648  15.752   6.150   3.116  0.0824  0.1402  0.2430
43049W        W51649  26.872   1.956  23.025  0.0478 -0.0638  0.1500
43050W        W51650   6.513   6.488  18.718  0.0180  0.1805  0.3923
43051W        W51651  14.259   0.234   3.300  0.1856  0.2431  0.2017
43052W        W51652  23.088   1.343  21.658 -0.0023 -0.4670  0.1202
43053W        W51653  10.759   4.230   8.602  0.3824  0.0100 -0.2401
43054W        W51654  13.962   1.461   4.752 -0.0913  0.1476 -0.3709
43055W        W51655  20.905   3.289  21.516  0.2201 -0.0823  0.0718
43056W        W51656  27.741   1.768  19.272 -0.0261  0.2928  0.0335
43057W        W51657  29.949   0.146  15.333 -0.2388  0.1331  0.3887
43058W        W51658  20.911   4.882  22.085  0.0830  0.1634 -0.0404
43059W        W51659  20.561   7.544   7.128 -0.0193 -0.1926  0.1339
43060W        W51660  26.061   5.622   7.515 -0.1049  0.0100 -0.1911
43061W        W51661   4.855   2.530  24.991  0.2146 -0.1488 -0.1293
43062W        W51662  17.741   2.491  17.333 -0.2006  0.0207 -0.1374
43063W        W51663  16.726   6.008   7.973  0.0953  0.0099 -0.1692
43064W        W51664  20.198   1.276   7.239 -0.0370  0.0567  0.0935
43065W        W51665  20.325   3.409  19.932  0.0603  0.3309  0.1908
43066W        W51666  26.884   2.302   4.064 -0.0825  0.2519  0.1013
43067W        W51667  12.279   5.318  25.925  0.0081  0.1026  0.0214
43068W        W51668  21.537   4.418   5.785 -0.1011 -0.0763  0.0752
43069W        W51669  15.317   2.161  19.396  0.2314  0.0560  0.1857
43070W        W51670  15.171   0.880  18.070 -0.1428 -0.2481 -0.0173
43071W        W51671   5.529   1.111   9.585  0.2264  0.1338 -0.0156
43072W        W51672  23.240   2.172  21.099 -0.0523 -0.2088  0.2033
43073W        W51673  22.906   4.475  17.252 -0.1417 -0.1088 -0.2194
43074W        W51674  31.013   4.781  15.533  0.1202 -0.2294  0.2889
43075W        W51675  17.315   1.860  22.540  0.1146  0.2268 -0.0612
43076W        W51676  16.523   5.919  19.360 -0.2355 -0.1521  0.1975
43077W        W51677   9.026   4.100  15.864  0.2905  0.1420 -0.0182
43078W        W51678  26.242   5.221   1.061  0.0030 -0.3629 -0.2567
43079W        W51679  29.861   5.299  20.546 -0.3580 -0.2758  0.0966
43080W        W51680  20.807   5.010  17.250  0.1141  0.1580  0.0393
43081W        W51681  13.697   2.687  20.532 -0.0351 -0.1960 -0.0220
43082W        W51682  15.049   5.409   1.048  0.0323 -0.3547 -0.0326
43083W        W51683  28.480   3.306   0.742 -0.0727  0.1765 -0.0750
43084W        W51684  21.264   6.311   5.697 -0.3122 -0.1175  0.1551
43085W        W51685  23.169   2.189   4.968 -0.1849  0.2045  0.0225
43086W        W51686  22.016   0.297   3.573 -0.1487 -0.1126 -0.0976
43087W        W51687  13.061   4.103   3.389  0.1096 -0.0524 -0.4737
43088W        W51688   1.490   6.570   4.628  0.0131 -0.0189 -0.0840
43089W        W51689   2.619   7.625  17.834  0.3020 -0.2728  0.0602
43090W        W51690  10.649   0.345   5.069 -0.0988 -0.1392  0.0447
43091W        W51691  23.060   6.527  25.441 -0.2595 -0.0832  0.1773
43092W        W51692  25.600   0.055   7.413 -0.1918 -0.1909 -0.0820
43093W        W51693   4.738   4.038   6.674  0.3048  0.1272  0.0981
43094W        W51694  23.131   5.126   9.474  0.0987  0.0254  0.2790
43095W        W51695  10.357   3.620  21.691 -0.2417 -0.0492  0.3153
43096W        W51696  26.311   2.246   6.040  0.0155 -0.0230  0.2080
43097W        W51697  27.267   4.156   8.100 -0.0675  0.0975  0.1533
43098W        W51698  23.707   4.159  22.401  0.0470  0.0076  0.2755
43099W        W51699  28.041   0.819  20.679 -0.2197  0.0791  0.3161
43100W        W51700   6.360   1.650  15.912 -0.0151  0.2488  0.1648
43101W        W51701   6.864   3.816  21.181 -0.2724 -0.1510  0.2947
43102W        W51702  28.531   0.416  16.181 -0.3898  0.0789  0.3191
43103W        W51703  21.263   6.473  21.425  0.1565 -0.1379  0.0939
43104W        W51704   8.620   2.973  24.028  0.0596  0.1973 -0.1868
43105W        W51705   6.855   0.766  10.899  0.0554  0.0232  0.1044
43106W        W51706   2.891   6.915   4.597  0.1833  0.0021 -0.1852
43107W        W51707  18.814   6.997   3.545  0.1703  0.0928 -0.2072
43108W        W51708  23.489   5.532   2.160 -0.0584  0.1802 -0.2019
43109W        W51709  10.621   1.661   9.900 -0.2409 -0.2489  0.1935
43110W        W51710   9.902   6.705  20.036 -0.0525  0.0181 -0.0889
43111W        W51711  22.976   4.910   7.000  0.1644  0.0057 -0.2071
43112W        W51712   9.811   5.052  23.280  0.0542 -0.0735  0.1960
43113W        W51713  14.743   7.699  15.841  0.0054 -0.3040  0.2528
43114W        W51714  27.000   2.470   5.445  0.0426 -0.3442 -0.3067
43115W        W51715  21.255   1.244  11.700 -0.0842  0.0685 -0.1388
43116W        W51716   3.664   6.321  19.157 -0.1578 -0.1206 -0.2095
43117W        W51717  28.950   6.999  25.346  0.1186  0.1851  0.0606
43118W        W51718   8.607   7.148   9.855 -0.1738  0.0108 -0.2155
43119W        W51719  22.203   0.144  15.486  0.0695 -0.1967  0.1018
43120W        W51720  18.379   4.126   0.469 -0.0798  0.2138 -0.0201
43121W        W51721  27.249   1.287   1.735  0.0275 -0.0629  0.0528
43122W        W51722   8.651   2.696   7.503  0.1426 -0.0714 -0.0605
43123W        W51723  29.566   0.025  23.569 -0.2099 -0.0779 -0.1204
43124W        W51724  12.818   6.344  15.012  0.0704  0.0444 -0.2047
43125W        W51725  25.999   4.382  22.739  0.0908  0.1271 -0.0096
43126W        W51726  15.740   5.783  18.299 -0.0461  0.3396  0.0665
43127W        W51727  30.980   1.857  25.740  0.0772  0.0852  0.0376
43128W        W51728  26.591   5.862  24.148  0.1795  0.1859 -0.3053
43129W        W51729  28.099   3.565   0.545  0.0626  0.1593  0.1282
43130W        W51730   9.619   1.795  10.836  0.1214  0.3266  0.2365
43131W        W51731   4.641   6.343  21.727 -0.3608  0.0290  0.0943
43132W        W51732   3.125   2.360   2.200  0.0489 -0.2654  0.1384
43133W        W51733  10.388   5.184  15.413 -0.2206 -0.1138 -0.0293
43134W        W51734   0.987   2.393  24.827 -0.3463  0.4476  0.1716
43135W        W51735  27.259   6.225   4.030 -0.1705  0.0515  0.2207
43136W        W51736   9.786   7.050   7.489  0.2541 -0.4255 -0.0892
43137W        W51737   7.483   3.210  21.113  0.3612  0.0971  0.0079
43138W        W51738  22.398   2.336  19.962  0.1181 -0.0476  0.1787
43139W        W51739  15.310   0.482   7.613 -0.3634  0.0689 -0.2947
43140W        W51740   4.501   1.410  21.179 -0.1114  0.0017 -0.0665
43141W        W51741  11.306   1.282  19.529  0.0427  0.0762  0.3723
43142W        W51742   5.243   4.859  15.655 -0.3611  0.1062 -0.2328
43143W        W51743  22.062   6.664  22.728 -0.1337  0.0246 -0.2364
43144W        W51744  28.540   1.573   1.999 -0.0260  0.0888 -0.2885
43145W        W51745   5.663   5.486   5.257 -0.1278 -0.0496  0.0132
43146W        W51746   2.923   1.145  16.199  0.0819 -0.2739 -0.1180
43147W        W51747  23.147   0.725   5.825  0.2336  0.2530 -0.1533
43148W        W51748   9.927   1.700   5.518  0.3274  0.2049  0.3677
43149W        W51749   8.705   1.408  10.892  0.3310  0.0048 -0.0886
43150W        W51750   0.978   2.092  20.380 -0.0385  0.2587  0.0659
43151W        W51751  26.504   3.674   2.651 -0.2210  0.1052 -0.1824
43152W        W51752  22.710   3.730  21.155  0.2010 -0.2380  0.0939
43153W        W51753  15.688   1.777  22.055 -0.0513  0.0574  0.2023
43154W        W51754  18.575   4.476   6.090 -0.1034  0.0664 -0.2310
43155W        W51755  14.449   5.870   4.776  0.0268  0.1024 -0.1946
43156W        W51756  24.014   6.453  23.004  0.0156 -0.3251 -0.1223
43157W        W51757  11.362   1.392  16.992  0.0714  0.1042 -0.0561
43158W        W51758  13.766   0.285  21.338  0.3172  0.0370  0.1398
43159W        W51759  26.401   1.239   2.609  0.0730 -0.0019  0.1745
43160W        W51760  24.820   6.136  25.378  0.0069  0.2676 -0.1192
43161W        W51761  14.575   5.978  20.559  0.1298  0.1327  0.2251
43162W        W51762  23.734   7.407  22.723 -0.1428 -0.0739 -0.0128
43163W        W51763  29.454   5.342  16.399 -0.1080 -0.0481  0.0964
43164W        W51764   7.438   1.382   4.485 -0.0072  0.1319  0.2567
43165W        W51765  28.545   3.625  24.789  0.0470 -0.0360 -0.0809
43166W        W51766  14.030   7.493  22.601 -0.0532  0.2476 -0.1597
43167W        W51767  23.803   5.264   8.930  0.0363 -0.1781  0.3841
43168W        W51768  30.596   6.275   0.574  0.2284  0.0635 -0.3297
43169W        W51769   3.270   2.364  10.148  0.1939 -0.2487  0.1486
43170W        W51770  14.640   0.184   3.690  0.0091 -0.1446 -0.2058
43171W        W51771   3.749   1.212  22.999 -0.3352 -0.1219 -0.0972
43172W        W51772  25.894   2.187   3.165 -0.0466  0.0445 -0.4333
43173W        W51773  30.331   4.642  16.990 -0.1249 -0.0092  0.1650
43174W        W51774  17.638   3.253   9.311 -0.1229  0.1271  0.4601
43175W        W51775   3.900   7.320  25.375  0.0430 -0.0440 -0.0600
43176W        W51776  16.210   7.570   4.385 -0.1164  0.1196  0.0968
43177W        W51777  11.900   0.871  20.863 -0.0924 -0.0227 -0.0149
43178W        W51778  13.255   5.187  21.094  0.0281  0.1154 -0.0600
43179W        W51779  17.853   7.230  16.667  0.0645  0.1702  0.1362
43180W        W51780  16.248   1.752   1.942  0.0185 -0.2205 -0.0900
43181W        W51781   4.289   3.454   8.742  0.0310  0.1533 -0.3758
43182W        W51782  12.733   2.834   5.640  0.0341 -0.0191 -0.2797
43183W        W51783   6.571   1.575   1.457 -0.1140 -0.0338 -0.2218
43184W        W51784  13.176   6.716   2.331 -0.0509 -0.1466 -0.2574
43185W        W51785  17.999   5.579   7.537 -0.0466  0.2722 -0.1502
43186W        W51786  18.444   4.666  16.390 -0.0497  0.1316 -0.2293
43187W        W51787  13.908   3.375   6.016 -0.1777 -0.3212 -0.0887
43188W        W51788  13.750   4.225   2.101  0.1179  0.2889 -0.0785
43189W        W51789  11.093   0.483  20.829 -0.2448 -0.0972 -0.0310
43190W        W51790  17.067   3.378  16.431 -0.0415 -0.1797 -0.1483
43191W        W51791   1.450   7.048  20.204  0.1224  0.1381 -0.0549
43192W        W51792  19.037   1.448   5.710 -0.0779  0.2078  0.4141
43193W        W51793   9.803   7.086   0.403 -0.0129 -0.1277  0.0654
43194W        W51794  26.071   2.319   5.541  0.1291  0.0658 -0.0735
43195W        W51795   6.996   7.096   0.619 -0.0447  0.3351  0.1195
43196W        W51796  24.159   6.101  26.262 -0.0187 -0.1541  0.0170
43197W        W51797  12.268   4.205  22.302 -0.0668  0.2102  0.3382
43198W        W51798   6.731   5.197   2.296 -0.1834  0.0358 -0.0085
43199W        W51799  14.844   4.008   8.177 -0.1479 -0.0672 -0.4080
43200W        W51800   8.228   0.991  24.901 -0.0082  0.0347 -0.0407
43201W        W51801  22.125   2.035  21.880  0.0605 -0.1236 -0.3416
43202W        W51802   4.516   1.596  23.500 -0.0839 -0.2854 -0.0293
43203W        W51803   6.195   3.713  10.436 -0.1278  0.0403 -0.1565
43204W        W51804   0.680   3.252  14.749  0.1211  0.0390  0.1258
43205W        W51805  20.390   0.036   3.605 -0.0336  0.2563 -0.1362
43206W        W51806  30.913   6.901  17.066 -0.0229  0.0750  0.0252
43207W        W51807  27.588   4.834  21.173 -0.2473 -0.0129 -0.2326
43208W        W51808  28.879   5.548  20.404 -0.3023 -0.1861  0.0680
43209W        W51809  18.084   1.708  25.920 -0.0149 -0.1304  0.2969
43210W        W51810  18.946   7.366  18.492 -0.3278  0.0588  0.2695
43211W        W51811  10.017   6.601  22.711  0.1088  0.1615 -0.1980
43212W        W51812   3.446   3.046  21.767  0.0514 -0.0746  0.1540
43213W        W51813   6.310   3.297   9.270  0.1042  0.1929 -0.1277
43214W        W51814  17.003   2.273  26.399  0.0753 -0.2522 -0.0108
43215W        W51815  21.303   7.689   1.170  0.2474  0.0146  0.0098
43216W        W51816   0.449   2.292   8.026  0.1170 -0.2195  0.0227
43217W        W51817   1.744   3.405  23.801 -0.0388  0.6227  0.2223
43218W        W51818   8.567   4.100   9.580  0.0482 -0.0982  0.2304
43219W        W51819   0.868   4.058  26.303  0.0327 -0.2476 -0.0144
43220W        W51820   7.796   0.422   5.150  0.1240 -0.0352  0.0968
43221W        W51821  12.225   3.662  16.901  0.0011  0.0480 -0.0089
43222W        W51822   4.666   3.219  22.509 -0.0611 -0.2287 -0.2436
43223W        W51823   9.913   1.886  23.321 -0.2359 -0.3717  0.1510
43224W        W51824   2.162   6.707  17.321 -0.1522 -0.0792 -0.0427
43225W        W51825   2.088   7.767   5.023  0.0673 -0.1985 -0.2095
43226W        W51826  28.789   5.886  23.361 -0.0513  0.2716 -0.0021
43227W        W51827  19.272   3.081   7.280  0.1978 -0.0611  0.2380
43228W        W51828  20.973   6.313  24.813  0.3303 -0.1065  0.1711
43229W        W51829   2.688   3.794  16.250  0.3323  0.0614  0.3421
43230W        W51830  27.148   7.348   5.251 -0.0926  0.0772  0.0049
43231W        W51831   6.414   4.543  10.589 -0.0678  0.0118 -0.1390
43232W        W51832  15.786   4.342  23.165  0.0795  0.0243  0.1553
43233W        W51833  10.245   4.210  21.597  0.0595  0.1572 -0.1380
43234W        W51834  29.686   1.022  16.808  0.2491  0.3521  0.1194
43235W        W51835  12.851   1.868  20.268 -0.0973 -0.2500 -0.2261
43236W        W51836  26.621   0.170   3.382 -0.3290  0.1522  0.0101
43237W        W51837  21.478   1.926   8.233  0.0598 -0.1155 -0.2271
43238W        W51838  22.821   1.952   8.698 -0.1160  0.2229 -0.0115
43239W        W51839   1.475   1.450   9.600  0.2313  0.0382  0.0222
43240W        W51840  13.314   2.829  20.931 -0.0334 -0.2333 -0.0507
43241W        W51841  20.391   6.861   3.392 -0.2359 -0.0464  0.3512
43242W        W51842   8.187   5.275   1.020 -0.1938 -0.1568 -0.2716
43243W        W51843   9.830   0.889   6.912  0.1375 -0.1489  0.1351
43244W        W51844  23.392   2.405   1.704  0.1411  0.1187 -0.0422
43245W        W51845  10.318   1.508   5.815 -0.0577 -0.0263  0.0690
43246W        W51846   6.353   0.058  16.893 -0.2156  0.0156  0.1354
43247W        W51847   5.512   1.142  18.433  0.3228 -0.0053 -0.0486
43248W        W51848  12.057   0.981  10.207  0.2192 -0.0034 -0.1145
43249W        W51849  25.479   6.181   1.235  0.1608 -0.0243 -0.3230
43250W        W51850  28.273   3.521  17.066 -0.0389 -0.0466  0.0518
43251W        W51851  12.991   5.671   6.922 -0.0843  0.1578  0.1110
43252W        W51852  13.251   3.946   0.742  0.2185 -0.1347 -0.0255
43253W        W51853  26.935   6.068  25.672 -0.1198 -0.0434  0.1491
43254W        W51854   0.449   2.588  26.126  0.1614 -0.1082 -0.0058
43255W        W51855   7.763   2.830   7.029  0.0642 -0.1511  0.0629
43256W        W51856   4.206   0.435  20.970 -0.3398  0.0687 -0.0528
43257W        W51857  12.089   1.662   6.211  0.0739 -0.0449  0.2323
43258W        W51858  29.793   2.277  26.035 -0.2405 -0.3414  0.1537
43259W        W51859   2.553   4.585   5.858 -0.2536  0.2321 -0.1476
43260W        W51860  24.264   6.072  18.126  0.0702  0.5196 -0.3218
43261W        W51861  14.925   7.235  26.055 -0.1107 -0.0952  0.0058
43262W        W51862   3.507   1.172  19.347  0.0086  0.0648 -0.0013
43263W        W51863   7.297   3.932  15.506 -0.1013 -0.1028 -0.4049
43264W        W51864  19.125   6.188   4.796 -0.2513  0.1047 -0.2830
43265W        W51865  25.962   6.465   2.058  0.0278  0.3152  0.1796
43266W        W51866  21.941   5.328   2.356  0.2336  0.0378  0.1667
43267W        W51867  27.678   1.549  20.148 -0.0799  0.2247  0.2938
43268W        W51868  30.239   4.873  22.082  0.0437 -0.0237 -0.2189
43269W        W51869   9.384   2.937   2.046  0.2938 -0.2256  0.1053
43270W        W51870  22.188   1.186  18.415  0.0382 -0.0423 -0.1213
43271W        W51871   3.472   7.649   8.221 -0.1081 -0.1263  0.2961
43272W        W51872  28.942   1.723  15.764 -0.0690  0.1271  0.0685
43273W        W51873  10.847   0.735   6.623  0.3467 -0.0083  0.0363
43274W        W51874   8.764   7.083   7.340  0.1671  0.1667 -0.1509
43275W        W51875  22.032   3.321  16.613 -0.0836  0.1203  0.0518
43276W        W51876  22.945   7.664   5.628  0.0647  0.1221 -0.0210
43277W        W51877  23.646   4.934  11.947  0.4003 -0.1175 -0.1721
43278W        W51878  12.977   5.631  17.597  0.1772 -0.0388  0.1697
43279W        W51879  22.158   7.565  10.425 -0.1889  0.1603 -0.0604
43280W        W51880  18.822   2.612  23.186  0.4806 -0.2024  0.2623
43281W        W51881  21.842   4.620   6.109 -0.1557 -0.1325  0.1111
43282W        W51882   8.293   4.343   5.881 -0.0421 -0.3072  0.4212
43283W        W51883  12.134   6.384   4.064 -0.2406 -0.2071 -0.2629
43284W        W51884  26.051   7.646  21.879 -0.3992 -0.1574 -0.0824
43285W        W51885   6.339   3.724  18.155  0.0420  0.1159  0.0118
43286W        W51886  12.385   4.241  23.343 -0.0763  0.2820 -0.2550
43287W        W51887   0.215   3.443   5.074  0.3188  0.0886 -0.0577
43288W        W51888   9.925   1.369  16.219  0.1416 -0.0294  0.0142
43289W        W51889   7.414   2.488  15.303 -0.1692  0.1347 -0.0709
43290W        W51890  24.041   4.966   1.386  0.1865  0.0522 -0.1748
43291W        W51891   4.267   1.147  26.388  0.2675 -0.2497  0.1066
43292W        W51892  17.921   7.518   6.940  0.3164  0.0717 -0.0147
43293W        W51893  25.547   0.429   2.724  0.1142 -0.0225 -0.0051
43294W        W51894  18.570   2.250   9.101  0.0789  0.0005  0.2664
43295W        W51895  26.527   5.415  19.846 -0.1554  0.2211 -0.2738
43296W        W51896   7.801   2.555   8.419 -0.1000 -0.2343  0.1424
43297W        W51897  16.547   5.777  20.609 -0.1351  0.0420 -0.0498
43298W        W51898  19.954   3.477  10.907 -0.1752  0.0302  0.4305
43299W        W51899  30.384   5.503   8.851 -0.2003 -0.3227 -0.2178
43300W        W51900  30.856   2.022   0.894 -0.0811  0.1126 -0.3261
43301W        W51901   2.079   6.379   4.632 -0.2155  0.1686  0.1336
43302W        W51902   7.435   0.158  19.017  0.2395  0.2304  0.2040
43303W        W51903   3.420   2.409  25.823 -0.2004 -0.0961 -0.1342
43304W        W51904   5.229   2.288   5.392  0.3299  0.2695 -0.1370
43305W        W51905  16.795   2.064   7.469 -0.3631  0.0459 -0.1933
43306W        W51906   1.678   3.169  17.221 -0.0269 -0.1842  0.0979
43307W        W51907   1.342   6.304   2.647  0.0216  0.0858  0.2954
43308W        W51908  17.264   2.526   7.261  0.2269  0.1414  0.2928
43309W        W51909  17.384   0.907  19.876  0.2900  0.1526  0.3450
43310W        W51910  24.699   5.876  21.699 -0.0931  0.0070  0.1929
43311W        W51911  11.527   5.362  24.249  0.1748 -0.1962  0.1443
43312W        W51912  29.252   7.306  18.086 -0.1535  0.3224  0.0078
43313W        W51913  20.877   4.150   2.428  0.2103  0.1704  0.3056
43314W        W51914  15.574   3.373   0.371  0.2394 -0.2204  0.3072
43315W        W51915   1.745   5.226  22.133  0.1791  0.1514 -0.0098
43316W        W51916  24.642   6.656  19.261 -0.1820 -0.2419  0.1237
43317W        W51917  21.994   1.144   4.780 -0.1713  0.0662  0.0242
43318W        W51918   4.204   2.495   5.613  0.0114 -0.0504 -0.0708
43319W        W51919  27.453   0.512  21.568  0.0323 -0.1661  0.0301
43320W        W51920  26.211   4.534  26.397 -0.0559 -0.2015 -0.2036
43321W        W51921  13.938   1.299   0.311 -0.1226 -0.1855  0.0079
43322W        W51922   2.327   3.421  25.098  0.2235  0.0385  0.0321
43323W        W51923   0.136   6.670   4.120  0.0039  0.2745  0.0659
43324W        W51924  24.090   3.924  22.227  0.2455  0.2550  0.1551
43325W        W51925  19.260   5.334  21.697  0.0361  0.0577  0.1819
43326W        W51926  29.418   5.831  22.215 -0.1205  0.1887  0.1252
43327W        W51927   5.856   6.547  16.816  0.0445 -0.0656 -0.0060
43328W        W51928  24.624   5.563   9.129 -0.2370  0.1084 -0.2978
43329W        W51929   8.479   4.165   4.285  0.0765 -0.0886  0.2696
43330W        W51930  11.850   1.291  24.300  0.0329 -0.2134  0.1111
43331W        W51931   0.615   5.751  24.087  0.0925 -0.1771 -0.0302
43332W        W51932  25.331   5.565   0.006  0.0564 -0.0921  0.0007
43333W        W51933   9.102   4.949  18.435 -0.2288 -0.0131  0.0198
43334W        W51934  16.205   5.827  17.855  0.3306  0.0455 -0.2192
43335W        W51935  17.168   0.519  16.380 -0.0684  0.0775 -0.0912
43336W        W51936  12.330   6.397  14.917  0.0024 -0.0736 -0.1725
43337W        W51937  28.477   1.456  15.682 -0.2558  0.0623  0.2430
43338W        W51938  30.421   0.868  25.554 -0.0643  0.1763  0.1671
43339W        W51939   2.569   5.337  11.208  0.4545  0.0865  0.0415
43340W        W51940  15.425   7.201   8.861  0.2640  0.2040 -0.1767
43341W        W51941  30.424   6.917   7.398  0.1527  0.2728 -0.0119
43342W        W51942  20.652   0.300   7.830 -0.0742 -0.0120  0.2929
43343W        W51943  25.133   4.437  22.725  0.0403  0.0192  0.0720
43344W        W51944  21.533   6.249  11.070  0.0232  0.0673 -0.0563
43345W        W51945  12.478   7.337   3.382  0.1749 -0.0188  0.0486
43346W        W51946   4.287   2.162  23.661 -0.1922  0.1191 -0.1216
43347W        W51947  18.305   7.026   6.964  0.2496  0.1162 -0.3221
43348W        W51948   7.592   1.568   7.297 -0.1608  0.1552  0.2140
43349W        W51949  11.636   7.122  20.422  0.1725 -0.0816 -0.0023
43350W        W51950  15.859   0.017  16.703  0.2256 -0.1424 -0.5107
43351W        W51951  19.194   7.605  15.020 -0.0340 -0.0668  0.2405
43352W        W51952  20.564   2.517  18.609  0.2174  0.0496 -0.0444
43353W        W51953  25.557   7.418  25.466 -0.0175  0.0966  0.0571
43354W        W51954  17.809   2.275   5.633  0.0055 -0.1807 -0.3189
43355W        W51955   9.257   6.474   1.567 -0.0416  0.1340 -0.2784
43356W        W51956  26.287   4.782   4.714  0.1285  0.1237 -0.0086
43357W        W51957  23.842   4.544   5.339  0.2440  0.4743 -0.0451
43358W        W51958  23.098   1.001   4.265  0.0398 -0.3454  0.1787
43359W        W51959   6.863   3.996   4.838 -0.2532 -0.1306 -0.0418
43360W        W51960  29.363   5.014   0.508  0.1282  0.0045  0.0840
43361W        W51961  20.580   1.746  16.106 -0.0146  0.0419 -0.1152
43362W        W51962  28.268   4.154  22.627 -0.1547 -0.0682  0.2812
43363W        W51963   4.371   5.127   2.431 -0.0439 -0.0260 -0.2255
43364W        W51964   2.839   0.168   3.265 -0.2368 -0.0385 -0.0212
43365W        W51965  18.187   4.841   9.315  0.0463 -0.1192 -0.1308
43366W        W51966  28.821   6.365   4.661  0.0730  0.1394 -0.1490
43367W        W51967  30.344   4.242  20.207  0.0388 -0.0785  0.0123
43368W        W51968  22.684   2.297   3.753 -0.1140  0.1709 -0.0097
43369W        W51969  21.992   5.046  15.884 -0.2107 -0.1624 -0.0415
43370W        W51970  11.055   5.540  25.317 -0.2932  0.0986  0.2784
43371W        W51971  30.218   4.945   6.801 -0.1575  0.3245  0.2584
43372W        W51972   9.533   0.568   2.809  0.0178 -0.0528 -0.0060
43373W        W51973   3.283   4.878  25.979 -0.1317  0.0553 -0.0990
43374W        W51974  29.199   6.959   3.831  0.3722  0.0940  0.0091
43375W        W51975   9.399   6.037  19.340  0.0339  0.1817  0.1250
43376W        W51976  30.319   4.485  24.729  0.0848 -0.1305 -0.0282
43377W        W51977  25.969   2.978  14.981  0.2008  0.0799 -0.0878
43378W        W51978  20.248   6.178  22.887 -0.1855 -0.1360 -0.0863
43379W        W51979  30.384   2.684  25.636 -0.2680 -0.1806 -0.0463
43380W        W51980  17.644   5.257   8.751  0.0144  0.2469  0.1938
43381W        W51981  20.758   3.513   5.672 -0.0370 -0.0166  0.0990
43382W        W51982  26.388   3.622  21.324  0.0386  0.0868  0.2486
43383W        W51983  24.838   3.842  19.889 -0.0738 -0.0252  0.2274
43384W        W51984  24.097   6.432   7.214  0.1432  0.2862  0.2006
43385W        W51985  30.069   7.026   9.538  0.1739 -0.2034 -0.3462
43386W        W51986   2.842   4.387   7.438 -0.1940  0.2121 -0.1448
43387W        W51987   7.129   6.025  18.073  0.2463  0.2109  0.3685
43388W        W51988  20.006   7.517   1.248  0.1964 -0.0091  0.3620
43389W        W51989   2.387   2.198  17.375 -0.1871  0.0998  0.1066
43390W        W51990  10.489   7.080  15.481  0.3968 -0.2233 -0.2017
43391W        W51991  24.388   0.033  10.805  0.1803 -0.0079  0.2603
43392W        W51992  23.432   1.695  20.790 -0.1026 -0.0937  0.1900
43393W        W51993   5.210   4.292  25.454  0.1868 -0.2285 -0.0440
43394W        W51994   3.152   3.343   4.509 -0.1865 -0.1395 -0.1159
43395W        W51995  26.203   6.268  22.744 -0.0895  0.0292 -0.0463
43396W        W51996  22.145   7.460   0.424 -0.1638 -0.0190 -0.4611
43397W        W51997   5.843   1.556   8.864  0.2913 -0.0455 -0.3225
43398W        W51998  13.304   4.193  24.903  0.0641 -0.0435  0.2257
43399W        W51999  12.654   7.638  20.078  0.1027  0.1040  0.0509
43400W        W52000   6.931   1.883  21.193 -0.1803 -0.0237  0.0394
43401W        W52001   9.238   2.050   5.544  0.1001 -0.1357  0.0492
43402W        W52002  13.555   5.445   6.321 -0.1541 -0.1009  0.2451
43403W        W52003  23.128   6.989   6.756  0.0245  0.2189 -0.3165
43404W        W52004  25.834   0.793   1.343 -0.1858 -0.0344  0.2753
43405W        W52005   1.404   5.254  24.624 -0.0549  0.4343 -0.0795
43406W        W52006  28.338   0.717  23.417 -0.0206  0.1810 -0.0099
43407W        W52007   5.651   6.878  23.270 -0.1160  0.0219  0.1821
43408W        W52008   3.964   7.481   9.584 -0.1445  0.2165 -0.3195
43409W        W52009   3.934   6.650  15.215 -0.0762 -0.1617  0.2210
43410W        W52010  21.900   1.209  20.079 -0.0971  0.2860  0.0484
43411W        W52011  23.097   0.909   4.877  0.0970  0.0613  0.1675
43412W        W52012  12.411   1.752  25.885 -0.2099 -0.2717  0.0687
43413W        W52013   4.944   4.243  21.432 -0.0694  0.0149  0.2414
43414W        W52014  29.573   6.985   9.956  0.3680  0.1561 -0.1922
43415W        W52015  11.454   5.606  18.636  0.3306  0.0720 -0.0592
43416W        W52016  22.620   7.506   7.326 -0.0721  0.0795 -0.4681
43417W        W52017  13.771   4.829  23.668 -0.7267  0.0159 -0.4656
43418W        W52018  21.077   4.372   5.546  0.0168  0.1893  0.1833
43419W        W52019  27.722   2.071  24.619  0.2942 -0.1486 -0.1025
43420W        W52020  23.284   1.167   5.533  0.1223 -0.1921  0.1859
43421W        W52021   8.122   7.102   2.284  0.1899 -0.3635  0.1646
43422W        W52022   6.932   4.540  23.912  0.0430  0.0964  0.0284
43423W        W52023  11.163   3.807  26.022 -0.0072  0.1236 -0.0712
43424W        W52024   4.032   3.308   0.123  0.1431  0.0646 -0.4356
43425W        W52025  21.506   3.355  18.252 -0.1363  0.0278  0.0576
43426W        W52026   4.045   7.423   6.785  0.1444  0.0890  0.1084
43427W        W52027  31.070   3.263  18.660 -0.0385 -0.2443 -0.2801
43428W        W52028  27.772   0.339  18.540 -0.0488 -0.1961  0.0792
43429W        W52029   6.786   1.156   0.259  0.1312 -0.1517  0.0585
43430W        W52030  20.241   0.248   1.942 -0.0457  0.0786  0.2737
43431W        W52031   1.105   5.199  19.236 -0.0393 -0.1640  0.1150
43432W        W52032  25.323   4.979  16.630 -0.0641  0.0582 -0.0230
43433W        W52033  14.336   7.455  17.177  0.0981  0.0514  0.0149
43434W        W52034  26.352   0.970  17.106 -0.1370  0.0219 -0.2076
43435W        W52035   2.909   4.767  24.287  0.1096  0.1337 -0.0777
43436W        W52036  27.996   5.499  16.471  0.2751  0.4666 -0.0199
43437W        W52037   4.185   6.013  19.307  0.6429 -0.0014 -0.1589
43438W        W52038   2.932   0.216   9.949  0.2039 -0.1452  0.1748
43439W        W52039   1.292   6.833  20.665 -0.0756  0.2072  0.1408
43440W        W52040  23.281   5.053  24.813  0.1930  0.0834 -0.0076
43441W        W52041  20.047   4.504  23.461 -0.3259  0.3986 -0.1578
43442W        W52042   3.751   3.925   5.070  0.0512  0.0363 -0.0884
43443W        W52043  25.757   0.900  22.960  0.0875  0.1339 -0.1156
43444W        W52044  13.544   2.850  24.458  0.3084  0.2677 -0.2117
43445W        W52045  20.574   7.537  17.582 -0.3598  0.1507  0.1111
43446W        W52046  12.063   0.798  22.540  0.2303 -0.0145  0.0371
43447W        W52047  13.330   0.207  10.193  0.2865  0.0587  0.1189
43448W        W52048   6.233   4.142  17.931  0.2704  0.3242 -0.0531
43449W        W52049  29.191   3.078  20.175 -0.3107 -0.0040  0.0559
43450W        W52050   2.734   7.283  21.659 -0.1399 -0.2788  0.1046
43451W        W52051  13.335   5.047  10.348 -0.2732 -0.1798 -0.1637
43452W        W52052  26.565   4.088  20.598 -0.1139 -0.0143  0.1361
43453W        W52053  23.377   0.734   2.163 -0.0972 -0.1539  0.2582
43454W        W52054  21.644   3.025  16.920 -0.0400 -0.1542  0.4031
43455W        W52055   8.228   4.852   7.853 -0.0471 -0.0811  0.0330
43456W        W52056   0.070   6.792  23.235 -0.0586  0.0079  0.1181
43457W        W52057  10.356   2.243   9.767  0.0639 -0.0866 -0.1634
43458W        W52058   8.647   0.463   5.974  0.0901  0.0699  0.1392
43459W        W52059  10.842   4.452   4.265  0.0349  0.2142  0.0037
43460W        W52060   9.681   7.210   3.680  0.1136  0.2450 -0.0542
43461W        W52061   3.833   7.080   9.286 -0.0010 -0.0096  0.0331
43462W        W52062  13.635   3.875  15.785  0.0273 -0.2213 -0.1158
43463W        W52063   2.772   3.480  19.483  0.0192  0.4108 -0.0930
43464W        W52064  25.499   6.721  10.953 -0.0055 -0.1118  0.0553
43465W        W52065  13.972   7.521   8.553  0.3492 -0.2510  0.2464
43466W        W52066   3.961   4.109  15.648  0.1187 -0.2026  0.1984
43467W        W52067  23.066   2.622  10.242 -0.0492 -0.0677  0.2357
43468W        W52068   4.387   4.715  26.425  0.1121 -0.0847 -0.1421
43469W        W52069   4.801   2.331  21.969  0.0901  0.2566 -0.1115
43470W        W52070   1.223   1.788  11.143 -0.2330  0.2727 -0.0352
43471W        W52071  13.693   1.169   2.376 -0.0278 -0.0747 -0.0078
43472W        W52072  17.926   0.003   5.939 -0.1717 -0.1493 -0.2104
43473W        W52073  17.140   6.790   2.199  0.0640  0.0819 -0.1560
43474W        W52074  15.796   0.046  26.143  0.0643 -0.1709  0.0629
43475W        W52075  24.136   1.899   4.560 -0.0348 -0.6505  0.1885
43476W        W52076  30.939   3.979  15.989 -0.1304  0.1373  0.0071
43477W        W52077  30.488   2.286   2.717 -0.0284  0.2071  0.2765
43478W        W52078   9.795   0.295  26.374 -0.1357  0.0184 -0.0136
43479W        W52079  23.940   4.204   3.825 -0.0103  0.0987 -0.1148
43480W        W52080  23.328   6.335   8.240  0.5424  0.1296 -0.1692
43481W        W52081  13.069   4.230  23.567  0.0939 -0.1158  0.1077
43482W        W52082  12.594   4.706   7.022 -0.0959 -0.2714 -0.0638
43483W        W52083  17.108   2.033  25.502 -0.0638  0.2038 -0.1769
43484W        W52084   3.113   0.286   2.754  0.1548 -0.2208 -0.3327
43485W        W52085  23.193   6.815  26.155 -0.0120 -0.0665 -0.2065
43486W        W52086  14.781   5.641   6.198 -0.1628  0.1705  0.0319
43487W        W52087  11.787   6.593  17.527 -0.0011  0.0962  0.4076
43488W        W52088  19.257   6.126  20.362  0.0755  0.0229 -0.1681
43489W        W52089   7.203   1.512   6.473 -0.3365  0.3224  0.1680
43490W        W52090  10.400   3.800   3.720  0.3224 -0.4544  0.0318
43491W        W52091  23.163   4.259   6.398 -0.1447  0.1482  0.1278
43492W        W52092   6.934   1.881  23.458 -0.0701 -0.1562 -0.1899
43493W        W52093  23.027   7.222   7.168 -0.2038  0.2256 -0.1363
43494W        W52094  17.082   6.298   2.157 -0.0652 -0.0018  0.0816
43495W        W52095   6.070   7.193  15.202  0.0837  0.3161  0.2194
43496W        W52096  11.531   5.734  16.567  0.4029  0.3218  0.2969
43497W        W52097   2.701   6.796   6.482 -0.0992 -0.0970  0.1114
43498W        W52098   5.875   5.127  16.807  0.0141  0.1409 -0.0919
43499W        W52099  30.475   5.781  18.860 -0.2521  0.0831 -0.1439
43500W        W52100  13.600   2.658   8.243  0.1157 -0.1184  0.4002
43501W        W52101  21.124   7.616   2.797  0.3413 -0.0175 -0.0100
43502W        W52102  18.514   0.311   6.012  0.1062  0.1660 -0.1127
43503W        W52103   3.614   7.322   1.892 -0.1609  0.3117 -0.1133
43504W        W52104   2.579   7.212  25.726 -0.1218  0.1141  0.1738
43505W        W52105   3.974   1.220   1.360  0.3013 -0.0226 -0.2122
43506W        W52106   6.384   4.173  20.051  0.0500  0.0837  0.0747
43507W        W52107  11.253   0.391   5.774 -0.0955 -0.6400 -0.0363
43508W        W52108  20.154   3.705  16.169 -0.2268 -0.2237  0.2021
43509W        W52109  26.424   1.339  16.275 -0.0193 -0.0045 -0.0810
43510W        W52110   9.969   7.377   3.328 -0.1772 -0.3196 -0.1005
43511W        W52111  26.878   5.909  18.815  0.1555 -0.0223 -0.0047
43512W        W52112   7.708   3.473  20.636 -0.2839  0.0462 -0.0471
43513W        W52113  10.892   6.909   3.387  0.3098 -0.0442  0.0820
43514W        W52114  14.150   1.527  14.803 -0.1671  0.1462  0.0534
43515W        W52115  27.243   5.567  22.190 -0.3944 -0.0208  0.1482
43516W        W52116  30.887   1.877  22.663 -0.0891  0.1595  0.1753
43517W        W52117  30.544   1.219  21.431 -0.1400  0.1863 -0.0063
43518W        W52118  11.879   0.781  19.119  0.0337  0.1099 -0.5577
43519W        W52119  13.541   4.572  15.997 -0.0815 -0.3886  0.3147
43520W        W52120   9.480   4.024  15.806 -0.1933 -0.3715 -0.2159
43521W        W52121  11.725   6.102   4.737  0.0870  0.2992 -0.1424
43522W        W52122  28.479   6.287   3.803 -0.1820 -0.0394 -0.3328
43523W        W52123  11.809   7.667  18.175 -0.1593 -0.1343  0.0562
43524W        W52124  23.864   3.658  22.687  0.0938  0.1039  0.2341
43525W        W52125   7.217   6.608  24.238  0.1117 -0.0130 -0.0675
43526W        W52126  16.683   5.607  22.868  0.1278 -0.2123 -0.0170
43527W        W52127  17.439   1.786  19.313  0.0027  0.1623  0.1332
43528W        W52128   9.602   4.066   3.007  0.0022 -0.3006  0.0106
43529W        W52129  12.726   1.081   7.734  0.0067  0.1200 -0.0156
43530W        W52130   7.434   4.510  19.619  0.1474 -0.1003  0.3384
43531W        W52131   8.594   4.921   1.238 -0.0980  0.1079  0.1317
43532W        W52132   2.518   6.641  24.097 -0.1878 -0.1633  0.2758
43533W        W52133   3.432   6.401   1.765 -0.0025  0.2708 -0.1477
43534W        W52134   0.648   0.843   2.030  0.0094  0.0573  0.2843
43535W        W52135  17.607   7.052  17.618 -0.0919  0.0650 -0.0300
43536W        W52136   8.771   7.256   0.309 -0.0208  0.2999  0.0829
43537W        W52137  20.099   5.039   1.117 -0.0799 -0.4347  0.2237
43538W        W52138  23.758   5.857  18.424 -0.0019 -0.2456  0.1672
43539W        W52139  16.593   3.144   0.285 -0.1767  0.1106  0.1421
43540W        W52140   8.885   0.583   9.831 -0.1441  0.1412  0.1852
43541W        W52141   7.163   6.994  20.237  0.1031  0.3820  0.0327
43542W        W52142  25.995   5.110  22.143  0.0004  0.0018  0.1746
43543W        W52143   3.441   7.583   6.811  0.1404 -0.0086 -0.1670
43544W        W52144   5.718   6.462   0.226  0.1224  0.0610 -0.1871
43545W        W52145  10.828   6.539  21.031 -0.3017  0.0659 -0.2013
43546W        W52146  17.573   6.659   4.325  0.0976  0.2179  0.1765
43547W        W52147  14.367   3.353   3.743  0.1292 -0.2197  0.0960
43548W        W52148  11.905   0.641  18.092 -0.3188 -0.2299  0.0678
43549W        W52149  10.168   7.027  20.654  0.0722 -0.1056  0.0482
43550W        W52150  10.464   1.665   3.035 -0.0096 -0.0396 -0.1386
43551W        W52151  25.364   1.278   9.257  0.4053 -0.0287 -0.0804
43552W        W52152   3.135   7.047  22.490  0.1064  0.0145 -0.0607
43553W        W52153  10.041   6.671   2.814 -0.0198 -0.0178 -0.1114
43554W        W52154  19.520   4.296  23.171 -0.1102 -0.1042 -0.0506
43555W        W52155  12.077   7.406  25.937 -0.1831  0.2578 -0.0542
43556W        W52156  22.251   3.239  15.621 -0.1748  0.0159  0.1253
43557W        W52157   5.479   2.384  10.546 -0.2023 -0.1117  0.1099
43558W        W52158   7.568   2.562   5.884  0.1308 -0.2586 -0.0559
43559W        W52159  14.030   4.866   3.892 -0.0934 -0.0166 -0.3052
43560W        W52160  21.528   2.649  11.033 -0.2603 -0.0208 -0.2900
43561W        W52161   4.699   0.336  18.711 -0.1275  0.0491 -0.0904
43562W        W52162  26.983   7.783  23.903 -0.2282  0.0738  0.3282
43563W        W52163  30.820   3.899   6.432  0.1258  0.2151  0.1942
43564W        W52164   4.250   1.765  10.484  0.0084  0.0431  0.1438
43565W        W52165  27.443   5.539  26.082 -0.0379 -0.1492 -0.2001
43566W        W52166  24.770   5.087  20.492 -0.0443  0.3027  0.0494
43567W        W52167  16.195   1.502  16.373  0.2466 -0.2189 -0.1690
43568W        W52168  20.429   5.900   2.013 -0.2587 -0.1233  0.0901
43569W        W52169   2.091   2.003   0.796  0.0855 -0.0941  0.1200
43570W        W52170  23.964   6.112  10.095 -0.1182 -0.1296 -0.0629
43571W        W52171  27.737   1.857  25.618 -0.4956  0.2354 -0.0612
43572W        W52172  29.696   1.552   7.174 -0.3081  0.2938  0.1791
43573W        W52173  30.121   1.592   3.318  0.0952  0.0993  0.0409
43574W        W52174  29.095   1.581  16.636 -0.1692  0.0832  0.0477
43575W        W52175  23.635   1.153   4.055  0.1082  0.2561 -0.0394
43576W        W52176  11.287   6.596   5.255 -0.1629 -0.2104 -0.2055
43577W        W52177   0.653   3.980  18.488 -0.1036 -0.3530  0.4382
43578W        W52178   1.282   0.733   6.441 -0.0713  0.0246  0.1648
43579W        W52179   8.510   4.089   6.252 -0.0068 -0.1954 -0.1183
43580W        W52180   7.136   1.337   1.161 -0.2973 -0.0901 -0.2381
43581W        W52181  17.400   4.843   0.005  0.0696  0.0346 -0.0327
43582W        W52182  13.696   4.913  20.187  0.0353  0.1527  0.3122
43583W        W52183  11.357   2.691  20.015  0.0910  0.0494  0.0192
43584W        W52184   8.591   4.190   9.075 -0.1192  0.2127  0.0745
43585W        W52185  11.917   3.901  22.359 -0.0386 -0.0773  0.1451
43586W        W52186  29.516   4.970   6.088 -0.0057  0.2072  0.0357
43587W        W52187  11.829   1.598  16.631 -0.3168  0.1368  0.0067
43588W        W52188  21.586   1.277  22.101  0.1061 -0.1986  0.0181
43589W        W52189  14.330   2.032  15.769  0.1927 -0.0086 -0.0872
43590W        W52190  15.664   0.437   1.405 -0.1875  0.2284 -0.3466
43591W        W52191  26.762   2.965  11.432  0.1090 -0.1167  0.0942
43592W        W52192  15.687   5.055  16.667  0.0906  0.0053  0.0825
43593W        W52193  15.477   4.242   3.408  0.0686  0.3091 -0.0267
43594W        W52194   9.504   0.513  23.013 -0.0399 -0.0091 -0.1912
43595W        W52195  15.302   2.567  23.667 -0.0888 -0.1266 -0.0027
43596W        W52196  13.234   0.386  21.259 -0.0855  0.0845  0.0962
43597W        W52197   3.827   6.684  17.498  0.5394  0.3485  0.0480
43598W        W52198  26.649   0.580  24.141 -0.3598 -0.3284  0.0838
43599W        W52199   0.049   7.165   6.945 -0.0573 -0.0996 -0.0487
43600W        W52200   1.762   4.403  11.312 -0.1588  0.3051  0.0418
43601W        W52201  10.824   5.702   6.272  0.0981 -0.1250 -0.3028
43602W        W52202   6.960   6.811  23.847  0.1506  0.2188 -0.2691
43603W        W52203  30.502   6.962  17.400 -0.0025 -0.1689 -0.1545
43604W        W52204  25.180   0.771   9.320 -0.1799  0.0339  0.1603
43605W        W52205  20.835   5.982  15.534 -0.1153 -0.2318  0.3651
43606W        W52206  26.507   4.534  16.248  0.0502 -0.0455  0.2462
43607W        W52207  30.045   2.585   6.500 -0.0444  0.0513  0.0421
43608W        W52208   9.108   0.025   9.698  0.1154  0.2804  0.0122
43609W        W52209   4.337   5.881  26.073 -0.1088 -0.1527 -0.1899
43610W        W52210  17.322   3.270   7.271 -0.0618 -0.1749 -0.4168
43611W        W52211  10.044   3.317  15.972 -0.2181 -0.0610  0.3752
43612W        W52212   7.913   2.824  19.400 -0.0999 -0.2326 -0.1110
43613W        W52213  19.426   2.414  21.547  0.0033 -0.3213  0.2454
43614W        W52214  10.776   1.480   9.130 -0.2528  0.0517 -0.0511
43615W        W52215   6.889   3.573  25.049 -0.0456  0.1110  0.0934
43616W        W52216  26.285   3.601  22.305  0.1319  0.1134 -0.2427
43617W        W52217   1.055   4.792  23.635 -0.0732 -0.0233  0.0154
43618W        W52218  29.170   2.382   6.199 -0.1713  0.0349 -0.0130
43619W        W52219   2.017   2.420   0.077 -0.3212  0.1353  0.4155
43620W        W52220  24.130   2.523  22.805  0.2409 -0.0456 -0.1090
43621W        W52221  24.801   7.733   6.796  0.0584 -0.1873 -0.2206
43622W        W52222  17.660   6.505  26.039  0.1165 -0.1390  0.1631
43623W        W52223   2.457   2.053  10.074 -0.0270  0.0896 -0.3206
43624W        W52224  27.991   4.703  15.786  0.0075  0.0645  0.0570
43625W        W52225  21.661   1.811  21.106  0.0272  0.1647  0.3927
43626W        W52226  10.714   7.797  25.830  0.1017 -0.0142 -0.2578
43627W        W52227  13.294   3.212   9.179  0.0786  0.2176  0.0447
43628W        W52228  18.464   5.617   5.828 -0.4676 -0.1585 -0.1428
43629W        W52229  25.212   1.475  15.931  0.3582  0.1293 -0.1391
43630W        W52230   9.056   6.255   7.754 -0.1663  0.3066 -0.0860
43631W        W52231  28.088   4.458   0.919 -0.0877  0.1841  0.1570
43632W        W52232   3.853   7.799  18.915  0.0414 -0.3213 -0.0277
43633W        W52233  22.229   0.306  23.581 -0.0602 -0.0929  0.1169
43634W        W52234  25.945   3.395   2.491 -0.2543 -0.1201 -0.0036
43635W        W52235   7.198   6.850  18.218  0.4339 -0.0817 -0.0514
43636W        W52236   6.772   0.074   7.011  0.1836  0.0374  0.2644
43637W        W52237  13.565   1.729  19.096 -0.0625  0.1128  0.0568
43638W        W52238  25.780   6.632   8.314  0.2332 -0.1607 -0.0469
43639W        W52239   2.116   6.181  25.044 -0.2498 -0.1745 -0.1601
43640W        W52240  27.528   3.391  23.317  0.1304 -0.2101  0.0337
43641W        W52241  26.004   5.444   3.892  0.1244  0.0771  0.4487
43642W        W52242  24.320   2.313  21.622  0.1352 -0.2356  0.0668
43643W        W52243  29.996   6.937   5.439  0.0200 -0.0288  0.3030
43644W        W52244  22.615   6.253  21.316 -0.0449 -0.1199  0.1639
43645W        W52245   0.648   2.628   1.139 -0.4505 -0.1368  0.0093
43646W        W52246   3.517   4.223  21.341 -0.1878  0.0854  0.0157
43647W        W52247  14.952   6.634  22.280  0.3864  0.0823 -0.0991
43648W        W52248  16.114   6.464  25.646  0.1371 -0.0126  0.3363
43649W        W52249  23.536   5.828   7.375  0.3311 -0.3628  0.1181
43650W        W52250  30.295   6.439  26.110 -0.0916  0.0702 -0.5321
43651W        W52251  22.596   1.326   6.756  0.0356  0.0751  0.1052
43652W        W52252  23.518   7.393   6.366  0.0273  0.1355 -0.4397
43653W        W52253  26.376   2.207  20.248 -0.1743 -0.0532 -0.3277
43654W        W52254   2.798   0.853  10.564  0.1262  0.3737  0.1337
43655W        W52255  27.768   0.856  18.877 -0.1026  0.1752 -0.0915
43656W        W52256   8.073   1.945  10.397  0.1287  0.3076 -0.3295
43657W        W52257  12.664   5.269  20.082  0.0026  0.1004 -0.1387
43658W        W52258  17.010   5.911   4.131 -0.1800 -0.0886 -0.4223
43659W        W52259   1.188   6.166   8.056  0.0105  0.0119  0.1953
43660W        W52260  12.879   3.402  23.046  0.1287  0.0857  0.1852
43661W        W52261  18.166   4.761  10.253  0.3179  0.3148 -0.0076
43662W        W52262   4.381   6.057  22.926  0.2541  0.0317 -0.0405
43663W        W52263   8.065   2.998  11.075 -0.0712 -0.3548 -0.2439
43664W        W52264   1.848   6.147  23.058 -0.2885 -0.0533 -0.0119
43665W        W52265  16.817   0.886   7.005  0.1249  0.2360 -0.1246
43666W        W52266   9.869   2.749  22.947  0.1702  0.2569 -0.1690
43667W        W52267  29.301   6.908   8.837 -0.1759  0.0843 -0.1534
43668W        W52268  30.265   7.169  24.591 -0.5008  0.1615  0.0203
43669W        W52269  11.482   0.187  16.584 -0.1456  0.0899  0.2253
43670W        W52270  12.549   3.374   8.937 -0.1058 -0.0925 -0.1475
43671W        W52271  18.251   4.668  14.695  0.3164 -0.1941  0.0108
43672W        W52272   0.662   0.745   3.758 -0.0731 -0.0927  0.2543
43673W        W52273  13.946   1.989   4.564  0.3603 -0.0827  0.0683
43674W        W52274  22.590   4.582   0.227 -0.0894  0.0273 -0.1587
43675W        W52275   5.537   2.340  25.544  0.1938  0.2948 -0.0081
43676W        W52276   6.918   6.038  18.549  0.0150 -0.1787  0.0467
43677W        W52277  16.423   5.559   9.100 -0.0210 -0.0223  0.3527
43678W        W52278  17.181   4.033  11.054  0.1033  0.2018  0.0935
43679W        W52279  21.642   0.747  25.989 -0.2672  0.4332 -0.0553
43680W        W52280  25.615   3.265  18.238  0.3015  0.1058 -0.1971
43681W        W52281  24.055   7.556  11.000 -0.2129  0.1805  0.0491
43682W        W52282  22.606   1.308  25.190 -0.3261 -0.1988 -0.0586
43683W        W52283  10.933   1.185  15.679  0.0682  0.1014 -0.0360
43684W        W52284  29.488   1.029  22.115  0.2611  0.0041 -0.2062
43685W        W52285  17.170   6.298  17.549 -0.0972  0.1181  0.1954
43686W        W52286  15.731   5.868  24.119  0.0321  0.1082  0.2201
43687W        W52287  11.255   1.402   9.246  0.2502  0.0269 -0.0162
43688W        W52288   6.539   4.963  24.880  0.2170  0.1210 -0.0608
43689W        W52289  24.717   4.619   7.757 -0.2671  0.1301 -0.2841
43690W        W52290  10.911   3.427  10.298  0.0123  0.2547  0.2092
43691W        W52291   5.608   7.360   6.215 -0.2385 -0.0106  0.0731
43692W        W52292  29.081   1.117   0.778 -0.1617  0.3298  0.0259
43693W        W52293  18.576   5.378   8.615  0.2305 -0.0192 -0.1860
43694W        W52294  17.416   7.196   7.491  0.0066 -0.1059  0.0824
43695W        W52295  20.998   3.875  15.338  0.0209  0.1559 -0.1524
43696W        W52296  18.243   1.305   6.296  0.2371 -0.4053  0.1387
43697W        W52297  11.572   6.772  21.445 -0.0901 -0.2067  0.0813
43698W        W52298   3.948   2.209  25.789 -0.0942  0.2690 -0.2673
43699W        W52299  11.240   4.805   8.149 -0.4414 -0.0509 -0.0141
43700W        W52300  20.091   1.831  15.912  0.0330  0.0127  0.0802
43701W        W52301   2.356   0.114  23.837 -0.0169 -0.1005  0.3618
43702W        W52302  10.860   1.976   0.153  0.0192 -0.1935  0.3237
43703W        W52303  13.154   2.424   1.729 -0.1571 -0.2290  0.0724
43704W        W52304   9.395   4.984   5.398  0.1492  0.1293  0.0919
43705W        W52305  23.171   4.937  21.343 -0.2031  0.2148  0.1226
43706W        W52306  20.868   7.575   8.306  0.2966  0.3510  0.1399
43707W        W52307  13.592   5.389   3.380  0.2723 -0.2649 -0.0474
43708W        W52308  10.471   7.452   4.199 -0.0354 -0.0107  0.1066
43709W        W52309  14.284   2.409  10.676  0.2530 -0.0900 -0.1296
43710W        W52310   4.513   5.098   6.452 -0.2847  0.4545 -0.1578
43711W        W52311   2.086   5.570   3.986  0.0281 -0.0599 -0.0007
43712W        W52312   2.750   6.167  16.327  0.0090 -0.1010  0.1770
43713W        W52313   2.728   0.219   8.090 -0.2186  0.0201  0.4020
43714W        W52314  19.114   0.713   0.876  0.2431  0.1221  0.1670
43715W        W52315  28.994   1.292  20.201  0.1220 -0.2623  0.0199
43716W        W52316  29.832   2.024   5.694 -0.0987 -0.0428  0.3020
43717W        W52317   1.387   5.733   8.792  0.3390  0.2001 -0.2020
43718W        W52318  11.903   2.381  17.673  0.1356  0.4290 -0.2885
43719W        W52319  25.302   6.059  16.411  0.2484  0.1155 -0.1919
43720W        W52320   4.119   1.991   2.898 -0.1597  0.0152  0.2794
43721W        W52321  11.436   3.601  16.216 -0.3882 -0.4579  0.0771
43722W        W52322  10.655   1.432   4.335 -0.0890 -0.2136  0.1510
43723W        W52323   8.794   4.018  20.887 -0.2479 -0.0366 -0.1484
43724W        W52324   3.613   1.381  20.937 -0.0642  0.0493 -0.0569
43725W        W52325   4.485   3.614  20.228  0.1916 -0.1490  0.0702
43726W        W52326  13.508   6.943   5.273  0.3939 -0.0296  0.2628
43727W        W52327  30.335   0.097   8.380  0.0995 -0.2019  0.1607
43728W        W52328  14.501   2.289  21.067  0.2957  0.2422 -0.0989
43729W        W52329  24.987   7.669  16.092 -0.1387  0.1227 -0.1469
43730W        W52330  22.787   1.596  18.166 -0.3854 -0.3476 -0.0594
43731W        W52331  30.713   4.551  19.955  0.1127  0.0644 -0.0959
43732W        W52332  10.923   3.552   0.012 -0.0592 -0.2092 -0.2285
43733W        W52333  11.146   7.086  25.437 -0.5772  0.0287  0.3818
43734W        W52334  19.275   3.787  20.428 -0.1342  0.1652 -0.0688
43735W        W52335   6.935   4.247  15.259  0.2280 -0.4003  0.0196
43736W        W52336  22.207   2.779  15.839  0.1307 -0.1807 -0.2247
43737W        W52337   8.281   2.321  25.495 -0.3020  0.0730  0.0879
43738W        W52338  18.980   4.237  10.199 -0.0952 -0.0915  0.1336
43739W        W52339  26.467   0.941   8.316  0.2193 -0.1597 -0.0666
43740W        W52340  25.578   4.112   5.573  0.2233  0.3082  0.0102
43741W        W52341  12.142   7.741   5.212  0.0133  0.0554 -0.0311
43742W        W52342   8.558   0.715  10.277 -0.2653 -0.2416  0.0879
43743W        W52343   2.493   5.930  20.990 -0.2442  0.1649  0.3471
43744W        W52344   1.617   1.445  26.391  0.0657  0.0745  0.1505
43745W        W52345  22.513   2.347   1.786  0.1496 -0.1465 -0.2958
43746W        W52346  29.438   0.353  10.489 -0.0072 -0.0023 -0.1802
43747W        W52347  11.479   2.674  26.196  0.2367 -0.1528 -0.1233
43748W        W52348   2.574   1.238  18.828 -0.0557  0.3807 -0.1034
43749W        W52349   5.810   2.981   7.141 -0.0641  0.1350  0.3678
43750W        W52350  14.426   5.756   1.713  0.0936  0.0089  0.0494
43751W        W52351  25.629   6.187  25.800 -0.1716 -0.1752 -0.0026
43752W        W52352  14.512   4.253  25.623  0.0415 -0.2418  0.4475
43753W        W52353  22.037   2.333   8.946 -0.4301  0.0528 -0.1871
43754W        W52354  21.666   5.098   2.734  0.0629 -0.1504 -0.3745
43755W        W52355  12.778   0.355  17.882 -0.0415 -0.1730 -0.0548
43756W        W52356  13.680   1.483   1.547  0.0830  0.2221 -0.0479
43757W        W52357   1.098   2.342  17.512  0.1847 -0.1285 -0.1815
43758W        W52358  27.398   5.353  24.252 -0.1453  0.1903 -0.1305
43759W        W52359   4.613   3.773  11.250 -0.4983 -0.0378 -0.0683
43760W        W52360   0.878   6.175  16.372  0.1374  0.1942  0.0009
43761W        W52361  14.969   3.323  20.546  0.0065  0.1175 -0.2910
43762W        W52362  23.097   4.965   4.638  0.0433  0.0248  0.3711
43763W        W52363  22.166   4.068  23.590  0.0895 -0.0573 -0.1280
43764W        W52364  19.664   6.036  22.275  0.0184  0.1822 -0.2808
43765W        W52365  30.557   7.284  26.266  0.1343 -0.1227  0.2668
43766W        W52366  18.453   6.407  24.625 -0.0480  0.1291  0.0539
43767W        W52367  25.722   4.343  19.637 -0.2676  0.0110 -0.1105
43768W        W52368  25.059   5.594  25.501  0.2371  0.0074  0.0541
43769W        W52369  16.597   6.204   2.257 -0.1090 -0.1279 -0.1430
43770W        W52370   6.812   4.875  23.014  0.0220  0.1448  0.0163
43771W        W52371  23.068   4.648  18.479 -0.3037 -0.1338 -0.0246
43772W        W52372   9.202   3.604   4.621  0.1385  0.0548 -0.1261
43773W        W52373   8.529   1.520   0.435  0.3314 -0.2219  0.0614
43774W        W52374  22.208   1.155  20.893  0.0646 -0.2288  0.3680
43775W        W52375  28.317   4.104  10.191  0.0210  0.1048 -0.4835
43776W        W52376  16.669   7.720  21.515 -0.1187  0.1555 -0.2736
43777W        W52377   0.877   2.986  24.042  0.0312 -0.2539 -0.1795
43778W        W52378   7.265   3.984   2.690 -0.1272 -0.0811  0.0751
43779W        W52379  25.197   2.943  25.034  0.0086 -0.0778  0.0620
43780W        W52380  27.859   7.749  17.526 -0.1723 -0.1084 -0.0257
43781W        W52381  30.462   5.993  19.906  0.0433 -0.2998  0.1782
43782W        W52382  10.046   0.900  19.924  0.1720  0.2671 -0.2134
43783W        W52383  10.133   5.254   1.278 -0.1314  0.2448 -0.0822
43784W        W52384  15.637   6.133   9.634  0.3425 -0.3111 -0.0741
43785W        W52385  25.278   2.778   2.027 -0.0916  0.0384  0.1953
43786W        W52386  28.796   1.883  25.489  0.1258 -0.0455 -0.0997
43787W        W52387  23.395   3.008  16.716 -0.0409 -0.2997  0.2380
43788W        W52388  14.708   2.431  10.343  0.2665  0.0359  0.0466
43789W        W52389  13.312   0.003   7.324  0.0606  0.0027 -0.1433
43790W        W52390  20.941   3.644   2.083  0.0997  0.2801  0.2874
43791W        W52391  20.092   7.675   3.968 -0.2629  0.0388 -0.3614
43792W        W52392  14.762   5.262  24.534  0.0742  0.0143  0.0485
43793W        W52393  21.229   1.573  17.759  0.0807 -0.0881  0.0078
43794W        W52394   4.682   2.515  23.722  0.1974 -0.3239  0.2415
43795W        W52395  18.557   1.060  17.564  0.0400  0.2150 -0.2201
43796W        W52396   4.925   4.552   2.268 -0.0106 -0.5247  0.0335
43797W        W52397  27.081   6.257  24.738  0.4235  0.0768 -0.1489
43798W        W52398  26.805   5.012   1.034 -0.1913  0.0442 -0.0539
43799W        W52399   0.856   5.566  22.062  0.0123  0.0594  0.0439
43800W        W52400  16.835   0.851   8.805 -0.0220 -0.0280  0.0705
43801W        W52401  30.496   0.025   2.246  0.2977 -0.0509 -0.1372
43802W        W52402   7.838   5.765  10.629  0.0284  0.0983  0.0574
43803W        W52403  23.394   5.829  23.185 -0.2295 -0.0131  0.3800
43804W        W52404  14.155   0.764   9.424  0.0986  0.0357 -0.0102
43805W        W52405  17.666   2.377   1.652 -0.1127  0.1086  0.0580
43806W        W52406   4.933   6.671   0.067  0.1119 -0.1600  0.0914
43807W        W52407  29.072   6.760   8.200 -0.3634  0.2484 -0.1760
43808W        W52408  27.239   0.116  17.872  0.1877 -0.0179 -0.1155
43809W        W52409  16.513   6.167  25.709 -0.0578  0.0465  0.0525
43810W        W52410  24.682   1.274   5.719  0.2801  0.3078  0.1826
43811W        W52411  18.982   7.773   1.382  0.1091  0.4569  0.2010
43812W        W52412  18.044   2.353   3.365  0.1171 -0.4311 -0.1202
43813W        W52413  13.527   6.810  20.103  0.1264  0.0473 -0.0741
43814W        W52414  26.741   6.240   4.025  0.1985 -0.2315  0.1028
43815W        W52415  18.140   4.567  20.105 -0.2887  0.1867  0.0940
43816W        W52416  26.795   3.968   8.869  0.0248 -0.1908 -0.2576
43817W        W52417  20.624   1.075   9.945  0.1486 -0.0270 -0.1132
43818W        W52418  21.636   2.114   7.373  0.1383 -0.2113  0.0151
43819W        W52419   7.493   7.171   7.076 -0.0731 -0.0171  0.1963
43820W        W52420  12.857   7.239   4.815 -0.0357  0.3465 -0.0058
43821W        W52421  13.713   5.893   3.255 -0.0840 -0.1515 -0.0663
43822W        W52422   8.959   4.985   0.911  0.3330  0.0266 -0.1819
43823W        W52423  19.777   7.738  18.084 -0.0924 -0.0897 -0.0377
43824W        W52424  25.136   1.191   5.072  0.0470 -0.0283 -0.2610
43825W        W52425  19.907   1.754   3.697  0.0761  0.0968  0.1784
43826W        W52426   2.333   5.295  20.017 -0.1201  0.1879 -0.2490
43827W        W52427  18.984   4.825  24.300 -0.2312 -0.2168 -0.2549
43828W        W52428   7.590   2.950   1.937  0.0117 -0.0823  0.3529
43829W        W52429  14.891   5.248  19.403  0.0871 -0.2634  0.0374
43830W        W52430   7.733   0.715  21.079  0.0026 -0.3845 -0.0320
43831W        W52431  27.933   5.980  22.469  0.1882  0.2059 -0.1667
43832W        W52432   0.784   0.964   8.083 -0.0154 -0.0943 -0.1622
43833W        W52433  13.448   6.687  16.839  0.1221  0.0627  0.3452
43834W        W52434  17.898   2.209  15.671  0.2162  0.1415  0.1647
43835W        W52435  22.091   1.389   3.377 -0.0915 -0.0382 -0.0975
43836W        W52436   6.975   5.844  21.364 -0.0206  0.1412  0.0622
43837W        W52437  24.154   7.507   7.481  0.0830 -0.1315  0.2792
43838W        W52438  30.641   4.068  24.549  0.1165 -0.1440 -0.0484
43839W        W52439   6.033   1.259  21.767 -0.0499  0.1126  0.1039
43840W        W52440  17.995   3.563  24.125  0.0576 -0.0584  0.0742
43841W        W52441   6.037   1.143  25.322 -0.1743  0.0702  0.1310
43842W        W52442   0.201   1.355  17.899 -0.1637 -0.1744 -0.0215
43843W        W52443  30.698   0.929  26.387 -0.1965  0.1909  0.2391
43844W        W52444   4.676   2.801  25.377 -0.0485 -0.1635 -0.2694
43845W        W52445  15.868   1.413   5.270 -0.4881  0.2220 -0.0737
43846W        W52446  12.350   7.461  10.765 -0.0066  0.2279 -0.0189
43847W        W52447  29.205   7.197   7.891 -0.0294  0.3915 -0.1765
43848W        W52448   2.200   3.257   4.663 -0.2930  0.1343  0.0064
43849W        W52449  23.570   4.743  19.177  0.2613  0.3633 -0.1158
43850W        W52450  28.232   5.696  25.509 -0.3632 -0.0082 -0.1052
43851W        W52451  20.149   5.493   9.262  0.1526  0.0232  0.1169
43852W        W52452  19.250   1.026  19.392  0.1047 -0.1447  0.1381
43853W        W52453  25.521   3.436   3.453  0.0319 -0.1097  0.2085
43854W        W52454  20.370   6.146   8.160  0.0304  0.1009  0.3484
43855W        W52455  16.262   6.914   8.139  0.3513 -0.1338  0.0347
43856W        W52456  21.258   4.133   2.776 -0.1022  0.3461 -0.2782
43857W        W52457   2.732   0.591  19.732 -0.0432 -0.1658 -0.3094
43858W        W52458   4.527   5.334  16.730  0.1313 -0.0396  0.1529
43859W        W52459  13.718   5.881  20.175 -0.0537  0.3024  0.0393
43860W        W52460  18.906   0.440   6.775 -0.0165 -0.0871 -0.4788
43861W        W52461  13.761   2.178   2.966 -0.0464  0.2522 -0.0970
43862W        W52462  25.666   0.871   9.350 -0.0828 -0.0065 -0.0764
43863W        W52463  10.754   1.210  10.149 -0.0075  0.0995  0.3370
43864W        W52464   7.223   5.375  16.591 -0.0792 -0.2058 -0.0317
43865W        W52465  14.385   0.044   4.968  0.2194  0.1443 -0.1297
43866W        W52466   6.842   4.618   3.298  0.2677 -0.1374 -0.0458
43867W        W52467   8.091   1.960   7.347  0.0192 -0.0371  0.0826
43868W        W52468  10.370   6.878  20.213  0.0536 -0.0900 -0.0323
43869W        W52469  26.354   4.263   6.283  0.2434 -0.0022  0.3360
43870W        W52470  20.734   1.608  15.304 -0.0263 -0.2364 -0.4222
43871W        W52471   8.701   5.494   0.733  0.0982  0.0232 -0.0326
43872W        W52472   5.558   1.998   0.865  0.0095  0.1335  0.0737
43873W        W52473   8.790   4.157   2.414  0.3472  0.0589  0.0276
43874W        W52474  14.821   2.715   4.305  0.3968 -0.0022 -0.1690
43875W        W52475   6.206   0.013  10.481 -0.3320 -0.0405 -0.1744
43876W        W52476   6.083   1.858  10.604 -0.2121  0.1790  0.1991
43877W        W52477  26.571   1.112  23.933 -0.2892 -0.2413  0.0740
43878W        W52478  21.951   6.053  18.412  0.4388  0.0245  0.3340
43879W        W52479  19.645   7.193   9.853 -0.3431  0.0508  0.2173
43880W        W52480   6.737   4.939   0.422  0.2186  0.0292  0.0703
43881W        W52481  27.339   4.312   9.200 -0.2404  0.2947 -0.0636
43882W        W52482   2.507   4.775  24.931  0.1454  0.0554  0.2110
43883W        W52483  18.640   5.739   6.821  0.0037  0.2066 -0.1266
43884W        W52484  24.900   6.178   4.101 -0.4186 -0.1040 -0.0703
43885W        W52485  29.006   2.484  24.834 -0.4497  0.0781 -0.0328
43886W        W52486   5.163   3.313  10.522 -0.0733 -0.1145 -0.2422
43887W        W52487   3.786   2.195  22.252  0.0171 -0.0609  0.0340
43888W        W52488  27.722   4.705   6.886 -0.1406  0.2140 -0.0103
43889W        W52489  13.609   7.622  16.619  0.0282  0.0377 -0.0074
43890W        W52490  19.336   5.678  22.666 -0.2179 -0.0653  0.0045
43891W        W52491   8.459   5.024   0.679  0.3651 -0.0554  0.0965
43892W        W52492  20.463   1.164  24.919  0.0601  0.0362 -0.0887
43893W        W52493  22.684   5.074   8.339  0.1766  0.2205 -0.0232
43894W        W52494   0.436   7.010  25.315 -0.2608  0.3461 -0.0108
43895W        W52495  29.539   3.077   9.469  0.3225 -0.0579  0.1292
43896W        W52496  24.569   3.052   9.658  0.1455  0.0983 -0.1960
43897W        W52497  21.136   6.087  19.044  0.0965  0.1624 -0.1391
43898W        W52498  24.924   4.985   1.172  0.1200  0.2345 -0.0566
43899W        W52499  16.970   6.482  22.940  0.0589  0.0046  0.3754
43900W        W52500  24.049   7.527   8.767 -0.2403 -0.1163 -0.2484
43901W        W52501   0.009   5.024  17.898  0.0282  0.0371 -0.0543
43902W        W52502   0.877   4.984   7.082 -0.1300  0.2518 -0.1289
43903W        W52503  28.152   5.287   3.340  0.1249 -0.2256  0.2700
43904W        W52504  16.545   5.014  17.992  0.0446  0.2364 -0.1398
43905W        W52505   7.980   5.202   0.035  0.1265 -0.1445 -0.3088
43906W        W52506   9.983   0.514  16.055  0.0555  0.2410  0.1024
43907W        W52507  12.897   7.529  19.669 -0.2390 -0.0592  0.1895
43908W        W52508   8.632   2.409  23.021 -0.0522  0.0193 -0.0605
43909W        W52509  30.803   4.616   6.974  0.0127 -0.2230  0.3559
43910W        W52510  13.343   3.778  18.267 -0.0999  0.1385  0.1970
43911W        W52511  25.762   2.165   5.984 -0.2300  0.2585  0.0162
43912W        W52512   8.508   7.724  21.222  0.5403 -0.1837  0.1714
43913W        W52513   8.031   2.427   4.928  0.2757 -0.1273 -0.2332
43914W        W52514   7.095   6.666   0.877  0.1881 -0.1820  0.2445
43915W        W52515  30.609   0.039   4.708  0.0479  0.0055 -0.1581
43916W        W52516  30.235   6.078   3.914  0.0063 -0.0499  0.1906
43917W        W52517  16.927   6.841   0.447 -0.3981 -0.2785 -0.0780
43918W        W52518  15.716   5.659  26.130 -0.0719  0.1392  0.4159
43919W        W52519  21.090   5.993  24.459  0.2084 -0.1019 -0.1930
43920W        W52520  18.144   6.871  20.938 -0.1406 -0.0254  0.1034
43921W        W52521   0.588   0.398  23.203 -0.2667  0.2029  0.0084
43922W        W52522   3.284   6.461   8.519  0.3811 -0.1719 -0.1458
43923W        W52523  11.836   3.080  25.822 -0.0831  0.1042  0.0695
43924W        W52524  25.938   6.696  21.117 -0.0167  0.0245  0.1136
43925W        W52525  30.375   4.445   8.551  0.1096  0.1939 -0.1819
43926W        W52526  17.379   1.050   0.656 -0.0379  0.3328  0.2499
43927W        W52527   3.250   1.593   3.355 -0.1289 -0.4765 -0.0654
43928W        W52528  22.661   5.633  22.434  0.0434 -0.5154  0.1271
43929W        W52529   6.623   4.586  21.682  0.1767  0.3035 -0.0890
43930W        W52530  28.903   4.697   9.786 -0.1382 -0.1413  0.1740
43931W        W52531   3.203   5.132  20.411 -0.0800  0.1581 -0.0233
43932W        W52532   1.748   5.017  17.642 -0.1462  0.0642  0.0376
43933W        W52533  22.184   6.679  25.423  0.1190  0.3372  0.1728
43934W        W52534  24.369   1.131  22.205 -0.1644  0.0585 -0.2862
43935W        W52535  20.194   5.892  21.964 -0.2412 -0.1830 -0.0042
43936W        W52536  25.320   7.783  20.515  0.0423 -0.1409 -0.2551
43937W        W52537  20.631   1.257   9.339  0.0551 -0.2942 -0.0728
43938W        W52538   5.442   4.207  21.251  0.1245  0.0521  0.3414
43939W        W52539  18.256   3.279   6.229 -0.3745 -0.0281 -0.2290
43940W        W52540   8.973   4.866   3.816  0.3004 -0.1486 -0.1924
43941W        W52541  28.469   4.493  18.851  0.3124 -0.1414 -0.0495
43942W        W52542  15.365   0.027   0.663  0.1440 -0.3051  0.0511
43943W        W52543  26.146   4.612   1.650  0.0607  0.1816 -0.1792
43944W        W52544  30.478   2.242  18.883  0.2539 -0.0584  0.2698
43945W        W52545   4.744   5.964   3.186  0.1621 -0.1119  0.1045
43946W        W52546  19.974   7.062   2.635 -0.3626 -0.1888 -0.3149
43947W        W52547  19.761   3.095  20.207 -0.0570  0.3114  0.5269
43948W        W52548  21.376   7.282   0.646  0.0127 -0.1994 -0.1385
43949W        W52549   5.794   5.385  10.648  0.1600  0.3466 -0.3740
43950W        W52550   4.033   4.885  22.909  0.0931  0.1992 -0.0123
43951W        W52551  24.231   0.910   5.626 -0.0094 -0.0680  0.0464
43952W        W52552  26.274   1.753  17.425 -0.1663  0.1349 -0.0703
43953W        W52553  27.917   4.347   1.454 -0.0125  0.1590 -0.2448
43954W        W52554  18.861   5.518  18.924 -0.1625  0.0471 -0.2434
43955W        W52555  14.860   3.495  25.601  0.2097  0.1442  0.3975
43956W        W52556   9.818   6.109  22.025 -0.0845  0.0371  0.3058
43957W        W52557  21.688   3.823  15.883  0.2026 -0.0480  0.3779
43958W        W52558   8.012   1.777  26.243  0.0633  0.1633  0.0701
43959W        W52559   5.425   5.156  18.754  0.1805  0.1248  0.1670
43960W        W52560  25.901   7.629  15.959  0.3050 -0.2136 -0.0246
43961W        W52561  22.256   7.540  20.117  0.2583 -0.0571  0.0188
43962W        W52562   9.682   4.330   2.577  0.0854  0.1136 -0.0659
43963W        W52563  25.209   3.445  15.909  0.2535  0.0311 -0.2586
43964W        W52564  25.523   1.060   5.861 -0.1004 -0.2467  0.2089
43965W        W52565   4.132   1.977  19.604  0.0302 -0.1592  0.1560
43966W        W52566   0.684   7.609   4.771 -0.3099  0.0371 -0.0346
43967W        W52567  21.501   7.696  17.612 -0.4830 -0.4990  0.1283
43968W        W52568  21.588   7.096  20.390  0.3145 -0.1632  0.1919
43969W        W52569   9.226   2.087   1.887  0.0741 -0.0486 -0.2518
43970W        W52570   3.277   5.500  23.325  0.1477 -0.2432 -0.2031
43971W        W52571  27.247   0.632  10.898 -0.1541 -0.0124 -0.0099
43972W        W52572  28.066   4.925   5.882  0.2101  0.1565 -0.1396
43973W        W52573   0.079   7.739  20.587  0.5173 -0.1746  0.0163
43974W        W52574  18.935   1.697  23.859  0.1026  0.2182 -0.3199
43975W        W52575   9.369   0.115  26.234 -0.2753 -0.3446 -0.0953
43976W        W52576  29.538   1.863  11.597  0.1002  0.0426  0.3903
43977W        W52577  27.544   0.872   3.761 -0.0675 -0.1777  0.3846
43978W        W52578   1.477   0.932   4.433 -0.1476  0.1006  0.2492
43979W        W52579   2.819   7.273  23.417 -0.0774 -0.0732  0.0615
43980W        W52580   6.267   4.390   0.296  0.0151 -0.0723 -0.0156
43981W        W52581   2.532   2.587  16.464 -0.0303  0.3071  0.0269
43982W        W52582   5.351   7.635  10.264  0.0581  0.1208 -0.1521
43983W        W52583  27.992   2.639   6.659 -0.1283 -0.0223  0.1132
43984W        W52584   5.602   3.538   3.425 -0.0084  0.1527 -0.0537
43985W        W52585  18.082   6.650  23.555  0.1261 -0.0083  0.0922
43986W        W52586  23.538   6.795  23.965  0.0909 -0.1343 -0.0742
43987W        W52587   9.517   1.640  23.546  0.1995  0.0037  0.0146
43988W        W52588  30.281   1.245  21.919  0.1882 -0.0943 -0.0544
43989W        W52589  18.265   1.194   8.248 -0.2666  0.0291 -0.1460
43990W        W52590  29.182   6.670   4.903 -0.0922  0.1333 -0.1068
43991W        W52591   3.560   2.569  19.986  0.0609  0.0100 -0.3526
43992W        W52592  14.427   4.308   7.616 -0.1164 -0.1593  0.0457
43993W        W52593  20.544   7.178  17.219 -0.0856  0.0056 -0.0024
43994W        W52594  19.158   7.486   9.731 -0.1269 -0.2563 -0.0202
43995W        W52595  14.834   4.678   6.422 -0.0815 -0.0610 -0.1213
43996W        W52596  11.558   3.998   7.545  0.3555 -0.1123  0.0837
43997W        W52597  27.543   0.525   5.373  0.0416 -0.1636  0.0177
43998W        W52598   4.750   1.632   1.588 -0.1687 -0.0233  0.2999
43999W        W52599   5.280   6.487  19.815 -0.2205  0.0970  0.2780
44000W        W52600   0.205   0.902  18.672  0.0670  0.0092 -0.0323
44001W        W52601  10.171   6.445  21.977 -0.0745  0.0298  0.1642
44002W        W52602  26.399   5.302  16.729  0.0980 -0.0492  0.0200
44003W        W52603   7.391   0.896  11.094  0.1760  0.0143 -0.1896
44004W        W52604  22.560   4.336   9.490 -0.1400  0.2134  0.1647
44005W        W52605  13.785   2.115   8.608 -0.2547 -0.3865 -0.2125
44006W        W52606  11.805   5.588  25.176 -0.2225  0.2173 -0.0884
44007W        W52607  12.564   0.839   5.337 -0.1216 -0.0625 -0.0243
44008W        W52608  17.279   6.663   5.418 -0.0228  0.0865 -0.3708
44009W        W52609   1.074   5.771  23.589  0.0867 -0.1942 -0.0538
44010W        W52610  19.142   1.505  26.096  0.3467  0.3644  0.1950
44011W        W52611  12.219   3.589   9.684  0.0074 -0.1936  0.3761
44012W        W52612   4.881   4.875  17.812 -0.1876  0.2189  0.0072
44013W        W52613  29.718   4.903  10.918  0.0043  0.0447  0.1515
44014W        W52614   6.172   6.756   4.431 -0.0097 -0.0231 -0.3933
44015W        W52615  16.659   0.413   5.597 -0.1164 -0.1738 -0.1648
44016W        W52616  11.652   6.739  19.260  0.0338  0.0728  0.2320
44017W        W52617  19.875   0.201   1.488 -0.2267  0.0322  0.1059
44018W        W52618  12.238   3.006   5.572  0.2265  0.0186  0.2556
44019W        W52619   0.462   3.013   8.594  0.0608  0.2535  0.0292
44020W        W52620  31.151   4.747  25.220  0.1997 -0.0914 -0.1349
44021W        W52621  23.419   4.716   2.794  0.0606 -0.0726 -0.0877
44022W        W52622  18.318   4.285   3.621  0.0975 -0.4334 -0.1796
44023W        W52623  15.537   7.573   8.515  0.2076 -0.1369 -0.2753
44024W        W52624  28.801   3.885   9.435 -0.0001 -0.2280 -0.0283
44025W        W52625  14.016   6.664  22.039 -0.0194 -0.0166  0.2694
44026W        W52626  23.940   1.299  11.150 -0.0382 -0.2286  0.1820
44027W        W52627  17.094   7.100   1.453 -0.2121 -0.3215 -0.1533
44028W        W52628  23.759   5.198  25.122 -0.0352  0.0298 -0.1617
44029W        W52629   2.093   2.590  23.278  0.1677  0.3656 -0.1730
44030W        W52630  12.120   0.216   2.834  0.2914 -0.1785 -0.1063
44031W        W52631   4.428   3.186  18.529 -0.1189 -0.1535 -0.0172
44032W        W52632  17.195   5.306  21.097  0.3232  0.1260 -0.0341
44033W        W52633  16.090   6.765   7.670  0.0425 -0.1374 -0.2383
44034W        W52634  22.926   5.387  20.019  0.5382  0.0142  0.0305
44035W        W52635  26.124   2.092  22.861 -0.0627  0.0890 -0.1164
44036W        W52636  21.949   0.784  11.526  0.1580  0.0344  0.2032
44037W        W52637  30.004   6.610   0.084 -0.0143  0.1538  0.1316
44038W        W52638  14.394   6.275  16.870  0.1693  0.1618  0.2472
44039W        W52639  24.149   3.284  22.589 -0.0303  0.2987  0.1794
44040W        W52640   2.499   6.818  20.002  0.0952  0.0385 -0.0539
44041W        W52641  14.060   1.328  20.374  0.0729  0.2753 -0.0498
44042W        W52642   1.531   6.588   0.452  0.2645  0.4741  0.0058
44043W        W52643  19.087   4.647   1.404 -0.1097  0.1466  0.1673
44044W        W52644  27.894   2.385  16.110 -0.0175  0.2544  0.0706
44045W        W52645  24.672   5.426  18.767  0.0273 -0.0038 -0.0171
44046W        W52646   6.581   4.279  17.652  0.0842  0.2068 -0.0876
44047W        W52647  10.292   6.941  17.705  0.1430  0.0408 -0.0087
44048W        W52648   3.021   0.880   5.536 -0.5135 -0.1032  0.1036
44049W        W52649   0.361   6.355  22.999 -0.0515 -0.2448  0.1333
44050W        W52650  13.126   4.151  22.720 -0.2900  0.0676  0.0527
44051W        W52651   3.488   0.596  15.973 -0.1347 -0.3830 -0.1733
44052W        W52652  13.946   5.226  11.217 -0.0110 -0.1880 -0.0559
44053W        W52653  15.596   5.989  19.531 -0.1653  0.2100  0.1183
44054W        W52654  20.202   0.666   0.212 -0.0829  0.1455 -0.2809
44055W        W52655   2.935   7.153  20.035 -0.2164 -0.1028 -0.1220
44056W        W52656  19.956   6.473   8.270 -0.1071 -0.1532 -0.0535
44057W        W52657   7.701   4.448   4.887  0.1451  0.0937  0.1745
44058W        W52658  19.386   0.812   3.558  0.1231 -0.0476  0.0859
44059W        W52659  11.196   4.962  16.865 -0.2363  0.2101 -0.1169
44060W        W52660  27.893   5.534  25.970  0.4829 -0.0439  0.0468
44061W        W52661  25.135   1.490  24.510  0.0232  0.1320  0.0543
44062W        W52662  21.247   0.157   7.969 -0.1247  0.1153  0.2779
44063W        W52663  13.500   3.887  23.685 -0.1387 -0.0621  0.0170
44064W        W52664  28.724   2.548  20.501  0.0046 -0.0830 -0.0279
44065W        W52665  29.725   4.327  25.327 -0.0948  0.2591  0.2573
44066W        W52666  15.788   2.228  19.450 -0.0368  0.1287  0.1147
44067W        W52667  18.441   7.223   4.260 -0.1471 -0.2288 -0.2055
44068W        W52668   2.361   0.550   1.496 -0.0777  0.1115 -0.1155
44069W        W52669  12.262   4.888   4.719 -0.0458  0.0955 -0.1182
44070W        W52670  13.943   2.005  11.149 -0.1167 -0.2438  0.0797
44071W        W52671  11.825   6.035  16.109  0.1289 -0.0159 -0.1655
44072W        W52672   7.215   3.300   9.345  0.0743  0.1064 -0.0987
44073W        W52673  31.192   4.102   0.936 -0.3541  0.1594 -0.2631
44074W        W52674  19.747   0.688  21.423 -0.1628  0.0586  0.0541
44075W        W52675  13.293   2.028   6.798 -0.0551  0.1324  0.1385
44076W        W52676   4.025   7.510   2.683 -0.0655 -0.3193 -0.0058
44077W        W52677  10.466   0.268  26.187 -0.2410  0.1547 -0.1729
44078W        W52678  17.593   0.456   7.255  0.0888 -0.1851 -0.0768
44079W        W52679   2.095   7.444  24.762 -0.0475  0.2694  0.0332
44080W        W52680  27.384   6.138  18.001 -0.1487 -0.0994 -0.0295
44081W        W52681  27.525   3.827   3.227  0.0517 -0.1393 -0.1054
44082W        W52682   6.769   2.652   5.512  0.1180 -0.0347  0.0335
44083W        W52683  14.700   6.659  16.975 -0.0372  0.3767 -0.0596
44084W        W52684   6.402   7.437  10.249 -0.2531  0.2834 -0.1762
44085W        W52685  27.839   6.110   5.547 -0.2941 -0.3562  0.1526
44086W        W52686  12.752   1.465   1.323 -0.1900 -0.2976  0.1554
44087W        W52687  10.401   0.535  23.019  0.0143  0.3604  0.1098
44088W        W52688  12.468   5.325  16.331 -0.2877  0.1663  0.3686
44089W        W52689   7.555   1.249   2.233  0.1163 -0.1167 -0.1881
44090W        W52690  19.099   4.894  23.126  0.0563  0.3036  0.2838
44091W        W52691  30.881   4.984   1.143  0.0438 -0.2909 -0.2519
44092W        W52692  22.170   5.069   3.971  0.0886  0.0997  0.2436
44093W        W52693   8.410   2.712  21.451 -0.4078 -0.1100 -0.1478
44094W        W52694  28.901   5.147  10.240 -0.3074  0.0695  0.0830
44095W        W52695  15.135   2.874   3.024 -0.2251 -0.1012  0.3724
44096W        W52696  26.162   0.692  10.083  0.0966 -0.1059 -0.0767
44097W        W52697  21.241   3.000   4.764  0.0675  0.1848 -0.0550
44098W        W52698  21.214   0.254   3.106  0.1145  0.2426 -0.2026
44099W        W52699   6.362   1.616  19.308  0.0941 -0.0391 -0.1701
44100W        W52700   0.778   3.004  25.274 -0.0620  0.2109  0.0911
44101W        W52701   1.112   3.325  22.587 -0.1256  0.0035 -0.2641
44102W        W52702   2.185   5.226  10.302 -0.0492  0.2957  0.0416
44103W        W52703   8.158   5.324  21.650  0.2057  0.3632 -0.0509
44104W        W52704  13.218   0.357   7.677  0.0273  0.0299 -0.2254
44105W        W52705   3.570   4.769   2.902  0.0180  0.2161 -0.0245
44106W        W52706   7.740   4.170   7.178  0.0634 -0.0696  0.2774
44107W        W52707   7.309   2.477  10.425  0.1545  0.2971  0.0472
44108W        W52708   4.940   5.719  25.598 -0.1630  0.2025 -0.0815
44109W        W52709  13.148   0.638  10.347 -0.0843 -0.2044 -0.1785
44110W        W52710  29.196   3.834   4.237 -0.0835  0.0272  0.3082
44111W        W52711  21.672   1.240  10.638  0.3362 -0.3055  0.2073
44112W        W52712   3.803   7.017   0.629 -0.0456 -0.1217  0.1846
44113W        W52713  14.580   2.697  21.848  0.1188  0.0772  0.1951
44114W        W52714   5.746   0.593  21.123  0.1039  0.1017  0.0210
44115W        W52715  12.388   0.100  21.466  0.0269 -0.0487  0.0160
44116W        W52716  10.225   6.345   1.534 -0.1862 -0.1259 -0.1527
44117W        W52717  27.791   2.366   7.091  0.3100 -0.0960 -0.0805
44118W        W52718  22.814   2.885   6.731 -0.1226  0.0398  0.2298
44119W        W52719   0.284   5.797  24.448  0.1869 -0.3994  0.0406
44120W        W52720  21.948   3.613  10.004 -0.0172  0.1216 -0.0001
44121W        W52721   1.653   4.159   0.264 -0.0718 -0.2291 -0.1060
44122W        W52722  29.764   3.461   4.173 -0.0043 -0.0151  0.0328
44123W        W52723  21.790   5.817  25.701  0.1520 -0.0967 -0.0963
44124W        W52724  16.817   4.979  22.790  0.2145  0.0667  0.0431
44125W        W52725  14.254   2.013  19.288 -0.0186 -0.2808 -0.2667
44126W        W52726   4.607   0.491  22.276  0.3038  0.1077 -0.0016
44127W        W52727  24.298   3.360   4.492 -0.2047 -0.1685 -0.2308
44128W        W52728  13.324   7.126  20.434 -0.1182 -0.0860  0.1234
44129W        W52729   9.859   1.855   0.837  0.2424  0.1468 -0.0283
44130W        W52730   8.700   7.601  25.291  0.1808 -0.3769  0.1104
44131W        W52731  24.163   5.029  24.624  0.0194 -0.1506 -0.2308
44132W        W52732  21.871   0.241  25.127  0.0398  0.0411  0.0029
44133W        W52733  31.046   0.343  21.624  0.1641  0.0888  0.0078
44134W        W52734  27.988   2.197  18.281  0.3785 -0.2773  0.2666
44135W        W52735   3.176   1.627  15.480 -0.1102  0.1539  0.0341
44136W        W52736  10.502   2.287  25.020  0.0215 -0.1534 -0.0719
44137W        W52737  30.824   3.181  16.934 -0.0027  0.2220 -0.1404
44138W        W52738  19.353   2.869   5.339  0.2528  0.0863  0.3278
44139W        W52739   7.442   6.431  21.696  0.0173 -0.0916  0.1220
44140W        W52740  15.503   6.092  16.170 -0.0586  0.4627  0.0367
44141W        W52741  27.404   0.789  18.016 -0.1453 -0.1411 -0.1726
44142W        W52742  22.680   3.721  22.179 -0.2837 -0.1483  0.0907
44143W        W52743  20.628   1.150  18.074  0.1852  0.1009  0.1695
44144W        W52744   4.539   3.119   6.370  0.0420  0.0011 -0.0606
44145W        W52745  18.337   4.974  10.709 -0.1613  0.0233 -0.1405
44146W        W52746   0.551   4.095  24.779  0.0510 -0.2160  0.2439
44147W        W52747  11.174   5.753   7.845 -0.0112 -0.0904 -0.1707
44148W        W52748   7.924   0.458  17.023  0.0396  0.2825 -0.0036
44149W        W52749  25.539   5.342   6.689 -0.0338  0.0383 -0.1787
44150W        W52750   3.785   6.175   0.278 -0.2766 -0.1975  0.3113
44151W        W52751   9.899   1.134  21.978 -0.0026  0.3938  0.1905
44152W        W52752  18.135   0.237   8.399  0.3057  0.2710 -0.3506
44153W        W52753   5.440   5.066   7.550  0.1100  0.3203 -0.1465
44154W        W52754  12.903   2.102  24.627  0.2460 -0.1434  0.0051
44155W        W52755  11.480   6.877   2.539 -0.2255 -0.1184 -0.0389
44156W        W52756   1.457   1.934   7.049 -0.1606  0.1032 -0.0028
44157W        W52757   1.902   3.357   6.032 -0.3539 -0.1359  0.2122
44158W        W52758   2.879   1.611  21.695  0.1265 -0.0164  0.0428
44159W        W52759  27.793   2.590   3.826 -0.0313  0.0913 -0.0126
44160W        W52760   3.766   4.342   4.253 -0.0696 -0.0599 -0.1939
44161W        W52761   1.611   7.500  22.598  0.1211 -0.1107  0.0166
44162W        W52762  22.603   1.243  22.278  0.2997  0.0318  0.0000
44163W        W52763  24.446   2.486  24.460  0.3283  0.0436  0.0770
44164W        W52764  30.117   0.481  16.212  0.0597  0.0398  0.1699
44165W        W52765   0.739   3.383  18.404 -0.1133 -0.2241  0.0671
44166W        W52766   8.336   0.043  26.185  0.0516  0.1925 -0.1610
44167W        W52767  28.293   5.641  21.559  0.0297  0.1505 -0.0088
44168W        W52768  14.062   3.157  26.407 -0.0448 -0.1359 -0.0418
44169W        W52769  30.101   1.026  10.510  0.0153  0.4192  0.0211
44170W        W52770  16.595   2.972  25.163 -0.0904  0.1398 -0.0513
44171W        W52771  24.482   1.216  21.601 -0.1079  0.0547  0.0173
44172W        W52772   9.727   3.408  15.106  0.1456  0.1680  0.1189
44173W        W52773   6.442   5.022   3.711  0.1959 -0.0198 -0.0693
44174W        W52774  28.761   2.232   5.986  0.0213  0.1781  0.3264
44175W        W52775  18.546   3.024  10.570 -0.0874 -0.2680  0.2238
44176W        W52776   6.414   4.759   6.925  0.0417 -0.1592  0.4196
44177W        W52777  10.208   6.938  24.575 -0.0577 -0.1213 -0.1675
44178W        W52778  26.299   1.635   1.899  0.1354 -0.3170  0.0724
44179W        W52779  14.623   2.391   1.170 -0.1065  0.2664 -0.0070
44180W        W52780   0.061   5.911   8.018 -0.1287 -0.1417  0.0254
44181W        W52781  26.470   7.397  23.209  0.0501  0.2705 -0.5468
44182W        W52782  25.041   6.476   3.224  0.1652 -0.2175 -0.0959
44183W        W52783  27.312   4.202  26.141 -0.0609 -0.0768 -0.2533
44184W        W52784   2.911   7.024   0.405 -0.1261  0.0931  0.0244
44185W        W52785  16.908   1.012   2.942  0.1668 -0.0903 -0.0251
44186W        W52786  12.059   0.740  15.045  0.1995 -0.0191  0.0815
44187W        W52787   2.148   3.809  16.256 -0.0278 -0.0805 -0.3695
44188W        W52788  11.772   5.005  15.690  0.1003 -0.1023  0.0051
44189W        W52789  14.859   0.160  25.878  0.0914 -0.1019 -0.0266
44190W        W52790  22.597   7.180  23.427 -0.2677  0.0128  0.3533
44191W        W52791  19.879   5.627  22.532 -0.0737  0.0480 -0.0741
44192W        W52792  18.742   2.540  18.453 -0.0310 -0.1399 -0.1834
44193W        W52793  24.983   4.134   4.733  0.0556  0.0367 -0.1084
44194W        W52794  14.604   3.787   9.841  0.0613  0.0213 -0.1637
44195W        W52795  22.265   5.783  22.667  0.2176 -0.1930  0.0705
44196W        W52796  30.349   1.960  24.926 -0.0361 -0.0242 -0.0501
44197W        W52797  15.799   6.981  14.766 -0.2453 -0.2112 -0.0471
44198W        W52798  29.364   6.997   2.657  0.0175  0.0493  0.2333
44199W        W52799  14.354   6.410   8.826  0.0289  0.1854 -0.2037
44200W        W52800   0.111   7.192   4.301 -0.1299 -0.0439 -0.1794
44201W        W52801  12.633   4.269  23.812  0.0165 -0.2879 -0.1266
44202W        W52802  27.267   3.781  10.799  0.0217 -0.1541 -0.0923
44203W        W52803  27.680   4.540  26.221  0.0957 -0.1676  0.0381
44204W        W52804  21.300   3.774  19.926 -0.1770 -0.1263  0.5800
44205W        W52805  11.778   2.935  21.566 -0.3487  0.3314 -0.2162
44206W        W52806   3.834   1.479   2.369  0.0409  0.2033  0.0082
44207W        W52807  22.000   6.689  10.344  0.4143  0.1021 -0.0030
44208W        W52808  21.559   5.677  19.968 -0.0920  0.3640 -0.0287
44209W        W52809  11.449   3.303   6.395  0.1172  0.0437 -0.1969
44210W        W52810  26.572   5.136   0.018  0.2197 -0.2005  0.1846
44211W        W52811  21.321   2.035  26.371  0.0906 -0.1843  0.5279
44212W        W52812  25.498   6.690   5.347  0.2576 -0.0445 -0.2885
44213W        W52813   3.455   1.729  20.561 -0.0613 -0.0088 -0.1633
44214W        W52814  17.657   4.802  24.699 -0.2360  0.2662  0.2785
44215W        W52815  12.836   2.974   9.065  0.2829 -0.0973  0.0244
44216W        W52816  30.809   4.974   9.013 -0.0281 -0.2896 -0.3256
44217W        W52817  19.540   7.756   3.084  0.1733 -0.1978 -0.2859
44218W        W52818   3.512   5.756  26.013 -0.0113  0.0898 -0.0351
44219W        W52819  10.629   0.473  24.788  0.0887  0.2828  0.2311
44220W        W52820  21.200   0.928  25.660 -0.0260  0.2131 -0.3759
44221W        W52821  28.766   3.337   1.622  0.0041  0.2537 -0.0231
44222W        W52822  24.706   1.067  11.140  0.0230 -0.1736  0.1555
44223W        W52823  30.696   5.922  16.745 -0.1089  0.0734 -0.3750
44224W        W52824   3.554   6.343  21.187 -0.1474  0.1959  0.2140
44225W        W52825  30.481   2.038   8.483 -0.2869  0.0538 -0.3433
44226W        W52826   3.961   7.482   0.690  0.1853 -0.0754 -0.2192
44227W        W52827  31.095   4.056  24.720  0.0327 -0.0561  0.3561
44228W        W52828  26.839   7.514   2.829  0.1538  0.0702  0.2784
44229W        W52829  29.645   6.172  10.485  0.1117 -0.2167 -0.4030
44230W        W52830   1.411   6.949   1.636 -0.0796 -0.0354  0.0009
44231W        W52831  19.792   0.314  19.845  0.0176 -0.1842 -0.2993
44232W        W52832  12.574   3.220  16.811 -0.2835 -0.1222 -0.0416
44233W        W52833  13.674   0.614  24.862 -0.2557 -0.0352  0.1076
44234W        W52834  22.208   6.121   2.577 -0.0294 -0.0871 -0.0607
44235W        W52835  13.382   7.369  23.527  0.2232  0.0499 -0.0770
44236W        W52836  28.356   7.254   6.591  0.0676 -0.0888 -0.0169
44237W        W52837   6.357   0.565  11.742  0.0343 -0.2631 -0.0755
44238W        W52838   2.170   1.124   9.880 -0.1293 -0.1028  0.0391
44239W        W52839  18.738   5.168  19.911 -0.1579  0.1701 -0.1435
44240W        W52840   0.234   3.378   7.526 -0.3270  0.0576 -0.2567
44241W        W52841  22.892   3.487  11.351  0.0213 -0.1680 -0.2050
44242W        W52842   5.722   4.145  20.402 -0.0873 -0.0256 -0.0019
44243W        W52843  24.043   4.530   7.268  0.1134  0.1056 -0.0148
44244W        W52844  29.174   5.771  21.309 -0.0813  0.2220  0.0873
44245W        W52845  27.391   0.588  26.035 -0.2959  0.1183  0.1873
44246W        W52846   7.172   3.256   1.993  0.3329 -0.2781 -0.0097
44247W        W52847   0.940   2.215   0.947 -0.1127  0.1606 -0.1134
44248W        W52848  24.161   7.312   1.430 -0.0890  0.1311 -0.4199
44249W        W52849   7.385   2.240  22.011 -0.2731  0.2368  0.0497
44250W        W52850  17.013   5.087  15.062 -0.1010  0.0183  0.4340
44251W        W52851  15.488   4.460   8.774  0.0361  0.3219  0.0041
44252W        W52852  23.164   6.621  10.871 -0.1059 -0.2963  0.0135
44253W        W52853  22.806   5.384  19.185 -0.1143  0.0924 -0.2222
44254W        W52854  13.504   5.538   8.063  0.2229 -0.2129  0.1919
44255W        W52855  22.553   5.365  25.647  0.3086 -0.0539 -0.5079
44256W        W52856  12.854   7.499  10.548 -0.2896 -0.0236  0.3774
44257W        W52857   9.004   3.278   9.829 -0.0476  0.0763 -0.1635
44258W        W52858  15.885   6.332   2.646  0.0744  0.0994  0.1794
44259W        W52859  30.162   6.900   4.970 -0.4743 -0.1505 -0.2730
44260W        W52860  18.590   3.162   3.602 -0.1633  0.1854  0.0657
44261W        W52861  18.838   5.222  20.485 -0.1707 -0.0993  0.1414
44262W        W52862  21.509   6.045   4.439 -0.2664  0.0310  0.0060
44263W        W52863  13.522   5.482   0.166 -0.1602 -0.0779  0.1406
44264W        W52864   5.899   0.407   6.177 -0.0709 -0.0946  0.2545
44265W        W52865  23.798   7.460   2.766 -0.1786  0.2149  0.0013
44266W        W52866   1.853   4.778  20.486  0.0965  0.0676  0.2191
44267W        W52867   3.006   3.787   2.555 -0.5257 -0.0116  0.0213
44268W        W52868  22.853   2.919   1.279  0.2392  0.1723 -0.1115
44269W        W52869   2.757   2.987   8.983 -0.2023 -0.0901 -0.1102
44270W        W52870   8.977   5.856  16.304  0.3191  0.0164  0.0142
44271W        W52871   1.486   7.610   6.070 -0.2476 -0.0027 -0.1200
44272W        W52872  27.442   7.764  20.652 -0.1054 -0.1817  0.0577
44273W        W52873  18.182   0.694  17.382 -0.1932  0.0237 -0.0031
44274W        W52874  20.988   7.662   6.945  0.0870 -0.0093  0.0128
44275W        W52875  18.148   6.912  23.110 -0.1181  0.0143 -0.0193
44276W        W52876   8.495   5.900  19.194 -0.3391  0.2000  0.1684
44277W        W52877  27.743   0.209  25.095  0.1074  0.0146 -0.1496
44278W        W52878  10.133   3.896   3.160  0.1127  0.3861  0.1109
44279W        W52879   5.179   0.729  23.376 -0.2888  0.1697 -0.2854
44280W        W52880  16.621   5.740   6.159 -0.0583  0.0562  0.0228
44281W        W52881   7.986   4.255  17.738  0.1278  0.0598 -0.4155
44282W        W52882   7.311   4.148   5.126  0.0988  0.3801 -0.1626
44283W        W52883  26.067   1.293   5.145  0.1274  0.0222  0.0777
44284W        W52884   6.604   2.768  21.520  0.1579  0.0836 -0.0835
44285W        W52885  25.771   7.696  25.974 -0.1912  0.1130 -0.1030
44286W        W52886   4.504   6.798   7.018  0.0497  0.0786  0.1136
44287W        W52887  27.059   3.532  23.024  0.0797 -0.0064 -0.0129
44288W        W52888  18.083   4.843  22.230  0.1698  0.3922  0.0042
44289W        W52889  19.047   3.624   5.617 -0.1142  0.0974 -0.2077
44290W        W52890  11.494   5.509  22.929  0.0991 -0.0743  0.1885
44291W        W52891  16.014   6.010  23.512  0.1032 -0.1903 -0.1744
44292W        W52892  11.567   0.965   9.090  0.1019 -0.0271 -0.1073
44293W        W52893  12.587   2.250  19.061  0.1296 -0.1260 -0.0620
44294W        W52894  30.758   4.897   1.636 -0.3640 -0.2436  0.0647
44295W        W52895  10.071   2.410  17.184  0.2416  0.0719 -0.1948
44296W        W52896  31.063   4.077  23.622 -0.2187 -0.0383  0.1383
44297W        W52897  10.802   5.669  24.909 -0.1618  0.0839 -0.2270
44298W        W52898  16.138   6.183  19.128 -0.1141 -0.0260 -0.0220
44299W        W52899   6.046   1.998  18.892  0.0583  0.2470  0.4810
44300W        W52900   1.787   0.253  19.704 -0.1509 -0.0860  0.0371
44301W        W52901  20.100   2.624  17.199 -0.0852 -0.2173  0.1164
44302W        W52902  16.171   5.340  18.719  0.0285 -0.0094 -0.0549
44303W        W52903  14.527   5.938  26.359  0.1918 -0.0491  0.1597
44304W        W52904  14.010   3.130  22.508 -0.0991  0.3481  0.1580
44305W        W52905  14.758   4.646   0.096 -0.0412  0.1425 -0.3137
44306W        W52906   6.036   6.265   4.559  0.2118  0.0774  0.0152
44307W        W52907   4.538   6.379   7.268  0.0833 -0.3554  0.2296
44308W        W52908  14.001   0.198  10.200 -0.0411  0.1133  0.0068
44309W        W52909   8.325   5.831   0.928 -0.1439  0.0839 -0.1866
44310W        W52910  30.147   0.800   5.239  0.2111 -0.2758 -0.0679
44311W        W52911  22.410   3.122  26.385  0.3513  0.0849 -0.0138
44312W        W52912  23.843   3.557   8.700 -0.3235 -0.0538 -0.1784
44313W        W52913   9.222   5.414   4.267  0.0095  0.1533 -0.1198
44314W        W52914  27.396   5.220  23.014  0.0723  0.3159 -0.1047
44315W        W52915   5.243   3.009   9.707  0.1729 -0.4523 -0.2138
44316W        W52916  15.449   7.556  16.430 -0.6071  0.0931  0.0659
44317W        W52917   3.750   5.297   3.427  0.1408 -0.1004  0.1680
44318W        W52918  10.874   4.624   1.167 -0.3220 -0.0490  0.3703
44319W        W52919   0.570   0.063   7.411 -0.1686  0.1028  0.3018
44320W        W52920  14.022   1.968   1.261 -0.1220  0.1444 -0.0139
44321W        W52921  28.721   6.358  21.665  0.0068 -0.3624  0.1067
44322W        W52922  25.138   2.308  21.786 -0.1950 -0.1128  0.1547
44323W        W52923  11.867   3.039  22.338 -0.4261  0.0862 -0.1334
44324W        W52924   9.430   3.911   5.953 -0.1575  0.2717  0.1127
44325W        W52925  10.629   2.136   5.378  0.5897  0.4377  0.0884
44326W        W52926   3.465   5.225  19.901 -0.0503  0.1339 -0.2266
44327W        W52927  10.423   4.983  11.303 -0.2507 -0.1720 -0.2076
44328W        W52928   5.087   5.067   9.447 -0.1551  0.0617 -0.1628
44329W        W52929  13.217   6.947  22.048  0.2184  0.1882 -0.0198
44330W        W52930  11.409   0.440   3.910 -0.2616 -0.1367 -0.3395
44331W        W52931  16.153   0.928  10.673 -0.3093  0.2569 -0.4637
44332W        W52932  13.221   3.849  16.602 -0.3912 -0.1497 -0.0022
44333W        W52933  26.045   5.106   2.759  0.0249  0.1031 -0.1298
44334W        W52934  30.392   5.317   5.229 -0.0697 -0.0048 -0.0386
44335W        W52935  12.104   5.553   3.002 -0.1352  0.0500 -0.0290
44336W        W52936  30.940   1.230  21.149 -0.3212  0.2363 -0.2094
44337W        W52937   3.027   2.529   5.646  0.0347 -0.0072  0.0907
44338W        W52938  22.005   4.612   8.598 -0.0314 -0.0144 -0.0880
44339W        W52939  30.768   5.657   5.128 -0.1438 -0.1013  0.1659
44340W        W52940   2.037   6.442  24.215 -0.0812 -0.0226  0.2877
44341W        W52941   6.301   6.963   9.510 -0.0585 -0.1836 -0.0644
44342W        W52942  12.341   3.765   4.571  0.1469  0.1883 -0.0140
44343W        W52943   7.504   5.210  17.050  0.0231  0.0879 -0.0827
44344W        W52944  13.684   4.959   2.019 -0.1340  0.0631 -0.2854
44345W        W52945   1.913   7.194   7.748  0.2571 -0.1170 -0.2070
44346W        W52946   6.910   4.004   8.819  0.1699 -0.0831  0.1608
44347W        W52947  17.651   0.203   4.633 -0.0263  0.1332 -0.0875
44348W        W52948   1.122   4.343   3.238  0.0848 -0.2020  0.1768
44349W        W52949   6.368   0.761   9.361  0.0443 -0.0347 -0.1741
44350W        W52950  19.720   0.648   8.288 -0.2436 -0.2752 -0.0992
44351W        W52951  25.120   5.346   4.347  0.0328  0.1203  0.0731
44352W        W52952   4.364   5.738  16.081  0.0369  0.0182 -0.3426
44353W        W52953  11.382   6.862  23.638 -0.1009  0.2456 -0.1053
44354W        W52954  10.860   7.463  16.851  0.3273  0.0168  0.1997
44355W        W52955   1.350   2.078  21.347 -0.1286  0.0450  0.1778
44356W        W52956  24.521   6.544  23.004 -0.2880  0.1270  0.1517
44357W        W52957  10.300   7.460  21.757 -0.0766  0.0572 -0.1525
44358W        W52958  22.239   1.980   8.654 -0.2073 -0.1233 -0.0105
44359W        W52959   2.995   1.720   8.091 -0.0904  0.0062 -0.1771
44360W        W52960  14.775   7.089  20.898  0.1661  0.1975 -0.1693
44361W        W52961  24.103   0.308   2.660  0.2144  0.1340 -0.3951
44362W        W52962   8.489   6.997  16.227  0.0317 -0.2060 -0.0679
44363W        W52963  15.508   3.263  19.847 -0.1013 -0.2521 -0.1405
44364W        W52964   5.414   7.646   9.611 -0.1084 -0.1124 -0.1251
44365W        W52965  18.849   7.688  22.866  0.0549  0.0027 -0.1092
44366W        W52966   2.610   6.630  20.917 -0.2809 -0.0382 -0.2980
44367W        W52967   4.728   2.306   9.397 -0.1734 -0.0379  0.0593
44368W        W52968   0.510   2.905  16.159  0.2654 -0.1549 -0.3186
44369W        W52969  19.139   4.420   3.825 -0.1384  0.1777  0.0940
44370W        W52970  14.789   3.068  25.336  0.2593 -0.1372  0.2687
44371W        W52971  18.169   2.748  24.738 -0.1382  0.0410  0.0823
44372W        W52972  29.532   0.419   5.890 -0.0611 -0.0363  0.2439
44373W        W52973   3.003   0.383   3.671 -0.0622 -0.0714  0.0483
44374W        W52974   9.555   1.758  17.375 -0.0111 -0.2011 -0.3767
44375W        W52975  16.957   3.830  19.264  0.0775 -0.0412 -0.3859
44376W        W52976   6.870   5.469  19.600  0.4973  0.0936 -0.1973
44377W        W52977  27.455   1.255   0.314  0.1393  0.0693 -0.2914
44378W        W52978   6.138   6.893  23.049  0.2741 -0.0196 -0.1472
44379W        W52979   1.522   0.578  20.166  0.0092 -0.1441 -0.0938
44380W        W52980   3.307   6.184   4.173 -0.0770  0.0906 -0.0342
44381W        W52981   0.061   3.949   8.638 -0.0877 -0.0114 -0.1663
44382W        W52982  27.715   7.330  10.210 -0.0900 -0.2380  0.1569
44383W        W52983  23.470   0.815  21.991 -0.1301  0.1480  0.0644
44384W        W52984  17.068   4.605  22.148  0.1889  0.1416  0.2293
44385W        W52985  14.542   3.906   0.569  0.2267 -0.0465  0.0988
44386W        W52986  21.596   1.767  10.660  0.0078 -0.2080 -0.2419
44387W        W52987  21.205   4.974   9.248 -0.1582 -0.0274  0.0358
44388W        W52988  29.657   2.203  18.257  0.1043 -0.1329  0.0537
44389W        W52989  22.580   3.814  16.864  0.0754  0.0237 -0.1468
44390W        W52990   2.082   5.380  25.412 -0.2081 -0.0418  0.0500
44391W        W52991  27.383   2.007  18.301 -0.0382 -0.0772 -0.1206
44392W        W52992  15.365   4.137  25.872 -0.0721  0.0528  0.2544
44393W        W52993   0.205   6.847  22.758  0.1897  0.0627  0.3226
44394W        W52994  24.073   5.478   4.851  0.2658 -0.2515  0.0682
44395W        W52995   5.799   1.476  20.043 -0.0217 -0.0503 -0.1449
44396W        W52996   5.616   6.948   0.350  0.5693  0.2235  0.0878
44397W        W52997  11.868   6.503   7.374 -0.1245  0.1521  0.0870
44398W        W52998  23.707   7.113   5.923  0.4202 -0.1260  0.2770
44399W        W52999  28.374   1.115   1.896  0.0331 -0.1732  0.0940
44400W        W53000   5.355   2.970   3.760 -0.0433  0.0906 -0.2443
44401W        W53001   9.749   4.422  25.125  0.0885  0.1721  0.0761
44402W        W53002  15.356   0.651   5.080  0.0238  0.1850  0.0953
44403W        W53003  19.401   0.117  24.678  0.0228  0.1541 -0.0469
44404W        W53004  22.632   0.529  24.673  0.2008  0.2570  0.2589
44405W        W53005  19.538   6.172  17.993 -0.0408 -0.1029  0.0804
44406W        W53006  28.080   0.554  16.926  0.0409 -0.0828  0.0254
44407W        W53007   0.788   7.395   3.300 -0.1437 -0.1011 -0.1644
44408W        W53008  21.005   7.118  26.164  0.1624 -0.1279  0.1073
44409W        W53009   6.195   6.929   0.231 -0.0561  0.0769 -0.1694
44410W        W53010   2.141   2.207  21.864  0.1749 -0.1370  0.0712
44411W        W53011  13.325   5.551   9.340 -0.1336  0.2210 -0.0136
44412W        W53012  17.821   1.102  20.134 -0.1966  0.4477 -0.2201
44413W        W53013   6.072   5.978  21.523  0.3192 -0.0121 -0.0668
44414W        W53014  14.491   3.621   3.343 -0.3026 -0.1267  0.3928
44415W        W53015   2.116   0.052  24.265  0.2242 -0.3264  0.1453
44416W        W53016  20.712   1.471  22.956 -0.0901  0.0530  0.0478
44417W        W53017  20.111   2.637  23.598  0.1286  0.0843 -0.0350
44418W        W53018  26.106   0.510  25.247  0.1377 -0.1230 -0.0579
44419W        W53019  17.044   2.724   4.808 -0.2061 -0.2733  0.3619
44420W        W53020  19.854   1.981   6.619  0.0365  0.0421  0.1591
44421W        W53021  18.430   5.264   9.186 -0.0200  0.1976 -0.0613
44422W        W53022   6.803   5.484  16.810 -0.1343 -0.0925 -0.1372
44423W        W53023  11.662   3.347   9.673 -0.3441  0.1332 -0.0606
44424W        W53024   2.414   7.350   9.852  0.0661  0.1319 -0.2036
44425W        W53025   0.985   7.388  25.785 -0.1149 -0.1970  0.0863
44426W        W53026   5.705   2.091   6.719 -0.3387  0.0604  0.0527
44427W        W53027   5.782   7.673  22.061  0.0653 -0.0552  0.0226
44428W        W53028  25.731   1.418  16.898 -0.2946 -0.1297 -0.2552
44429W        W53029  24.927   2.465   1.239 -0.1882 -0.2466  0.0394
44430W        W53030  29.193   4.020  16.653  0.0208 -0.0437  0.0590
44431W        W53031   4.474   3.356  15.800 -0.3527  0.5366  0.0248
44432W        W53032  23.273   6.590  18.860  0.2362  0.0931 -0.0447
44433W        W53033  24.692   3.523   6.026 -0.0959 -0.0635 -0.4685
44434W        W53034  15.974   5.643   6.558 -0.2419 -0.0182 -0.2465
44435W        W53035  30.297   7.423  24.124  0.0449 -0.1231  0.0537
44436W        W53036   3.432   0.696   8.182 -0.0808 -0.1597  0.1572
44437W        W53037   0.979   3.446  25.455  0.0343 -0.1061 -0.0477
44438W        W53038  28.538   7.566   2.381  0.0497  0.4378 -0.0599
44439W        W53039  12.052   6.584  10.301 -0.1089 -0.0382  0.1698
44440W        W53040  12.081   1.516   4.669 -0.1651 -0.0451  0.0277
44441W        W53041   9.592   6.904   6.598 -0.3542 -0.0258 -0.1604
44442W        W53042  25.954   6.883   8.769 -0.0373  0.1106  0.3977
44443W        W53043  15.576   1.273  18.010 -0.0708  0.1252 -0.2294
44444W        W53044   4.829   6.164   8.594 -0.0467 -0.2772  0.1201
44445W        W53045   7.446   6.698  17.071  0.0567  0.0650  0.1451
44446W        W53046  28.610   0.593  24.039  0.0589 -0.1494  0.0048
44447W        W53047  28.420   7.121   4.707  0.0993 -0.1200 -0.0431
44448W        W53048  26.877   3.883  10.474  0.0300 -0.1560  0.2021
44449W        W53049  19.558   1.807  16.983  0.3137 -0.2746  0.0703
44450W        W53050  11.035   0.638  10.681 -0.2044 -0.2688  0.2180
44451W        W53051   6.402   4.003  10.760 -0.0986  0.1513  0.1112
44452W        W53052   5.018   1.865  10.863  0.2410 -0.0240 -0.0834
44453W        W53053  23.508   5.985   9.674 -0.2622 -0.4664  0.0092
44454W        W53054  17.448   4.667  10.672 -0.1953 -0.0201 -0.1249
44455W        W53055  18.283   5.690   8.197  0.0293  0.1056 -0.0376
44456W        W53056  13.095   1.481   0.332 -0.0657  0.0950 -0.0186
44457W        W53057  15.316   4.236  24.683 -0.1142 -0.1699  0.0104
44458W        W53058  10.221   1.925  24.752  0.3750  0.1029 -0.1945
44459W        W53059  30.110   7.328  15.842  0.1637  0.0201 -0.1229
44460W        W53060  10.987   6.245   4.148  0.1358  0.0945 -0.1803
44461W        W53061   0.081   0.528  23.086  0.2595  0.0465 -0.2735
44462W        W53062   5.383   4.268  10.678  0.2663 -0.0544  0.0713
44463W        W53063  10.818   5.054   0.253 -0.1213 -0.0121 -0.0940
44464W        W53064  15.247   3.728  19.758  0.1652  0.0199  0.1950
44465W        W53065  30.450   5.425  23.693  0.2124 -0.1305  0.1426
44466W        W53066  21.538   6.061   1.366 -0.0106 -0.2109 -0.1754
44467W        W53067  19.526   1.351  11.077  0.1693 -0.1229  0.0654
44468W        W53068  22.916   1.294   5.189 -0.0174  0.0924  0.0516
44469W        W53069  11.992   5.533   8.260 -0.2172 -0.0078 -0.3794
44470W        W53070  15.948   4.085  19.219 -0.1323  0.0647  0.0403
44471W        W53071   8.501   3.044   7.893  0.2093 -0.0944 -0.0511
44472W        W53072  25.312   5.014   3.307 -0.0367  0.0916 -0.0856
44473W        W53073  18.419   0.174   1.382  0.1873  0.2626 -0.2740
44474W        W53074   7.562   0.166   0.492  0.1989  0.0024 -0.0469
44475W        W53075  17.922   1.954  17.567  0.0499  0.1272  0.1609
44476W        W53076   1.880   5.023  23.336 -0.0529  0.1709  0.1288
44477W        W53077  15.654   3.371  17.774  0.1110  0.0432  0.2441
44478W        W53078   8.739   2.493  19.118 -0.2261  0.0456 -0.1360
44479W        W53079  24.156   7.199   1.956  0.1882  0.1638 -0.1917
44480W        W53080  11.121   5.052   4.701  0.1834 -0.2503  0.0748
44481W        W53081  28.232   5.248  19.269 -0.2264 -0.1734  0.0260
44482W        W53082  11.835   3.942   4.797 -0.0210  0.2515  0.1106
44483W        W53083  23.697   7.326  10.725  0.0277 -0.1733 -0.0144
44484W        W53084  26.555   2.163   0.848 -0.1995  0.0647  0.1831
44485W        W53085  31.193   1.436   8.385  0.5304 -0.0383  0.0488
44486W        W53086  20.433   3.737   5.938 -0.1549 -0.0770  0.2079
44487W        W53087  20.227   6.699  24.978  0.1382 -0.1373  0.2277
44488W        W53088  30.254   7.308   2.297  0.2762 -0.0508 -0.1936
44489W        W53089  29.014   6.809   2.194 -0.0709  0.2840 -0.3565
44490W        W53090  11.364   4.835   4.014  0.0783  0.1802 -0.0700
44491W        W53091  21.673   7.506   6.233  0.4060  0.0240 -0.1879
44492W        W53092  24.657   7.201   5.729  0.1716 -0.0250 -0.0579
44493W        W53093  13.906   6.864  25.457  0.0133  0.4249 -0.1385
44494W        W53094  15.639   6.518  14.933  0.2506 -0.3531  0.0895
44495W        W53095  28.730   3.295   4.047 -0.1450 -0.0704 -0.3955
44496W        W53096   8.186   6.342  20.571 -0.0202  0.0410  0.2119
44497W        W53097  14.899   6.087  23.672 -0.0836  0.0233  0.2376
44498W        W53098  19.148   2.492   0.772  0.4333  0.2766 -0.1109
44499W        W53099   6.142   0.235   2.083  0.1304 -0.2009 -0.0630
44500W        W53100  28.779   2.119  23.196 -0.0609  0.0137 -0.2125
44501W        W53101  26.219   2.243  25.839 -0.0108 -0.2711  0.0644
44502W        W53102  26.221   6.581  19.348  0.0246 -0.0452  0.2527
44503W        W53103   9.079   1.941  24.698  0.0171 -0.0544  0.1553
44504W        W53104  18.346   5.782  26.082 -0.2284  0.0276 -0.1917
44505W        W53105  27.286   5.108  16.653 -0.0568 -0.2090  0.3051
44506W        W53106  11.230   2.927   2.396 -0.1713 -0.0577 -0.0799
44507W        W53107  30.677   2.628  21.250  0.0513  0.0262  0.2365
44508W        W53108  14.723   7.032  10.507 -0.0891 -0.2604  0.3949
44509W        W53109  19.289   1.766   3.213 -0.0093  0.2364  0.0930
44510W        W53110  10.714   7.343  25.607 -0.5659 -0.0408 -0.0250
44511W        W53111  10.686   2.798  15.930  0.0143  0.1651 -0.0651
44512W        W53112  15.799   7.071  20.199  0.2966 -0.1324 -0.1080
44513W        W53113  29.143   3.676   5.994  0.3264 -0.0718 -0.0587
44514W        W53114  28.283   4.643  22.880 -0.1661 -0.3139 -0.1859
44515W        W53115  20.882   3.787   6.180  0.0376  0.1906  0.1523
44516W        W53116  22.469   6.057   7.170 -0.1160  0.2978  0.0778
44517W        W53117  24.057   0.551   0.854  0.1460 -0.1197  0.3001
44518W        W53118   2.771   2.992   0.350 -0.0740 -0.2662 -0.3092
44519W        W53119   4.437   5.100  17.994  0.3185  0.2333  0.0748
44520W        W53120  12.845   3.075  24.717  0.2852 -0.1286 -0.1398
44521W        W53121  22.052   1.109   6.120  0.3703  0.2476 -0.1659
44522W        W53122  11.793   1.399  10.156  0.2108 -0.0959  0.2002
44523W        W53123  10.405   0.706   6.879 -0.0479 -0.1073  0.0364
44524W        W53124   3.301   5.971   1.263  0.0164 -0.1145  0.1559
44525W        W53125   0.067   2.452   3.085  0.2921 -0.2456 -0.1587
44526W        W53126  28.885   0.306   9.073  0.1471 -0.2334 -0.0243
44527W        W53127   1.560   1.086  20.906  0.0115 -0.0266 -0.1397
44528W        W53128  29.273   2.390   8.692  0.1805  0.3896  0.1340
44529W        W53129  15.303   3.454   3.880 -0.1392  0.0080  0.2601
44530W        W53130  22.541   6.926  26.233 -0.0070  0.1050 -0.2089
44531W        W53131  20.371   4.528  26.200 -0.0739 -0.0580 -0.0727
44532W        W53132  12.241   6.389   1.206  0.2943  0.0217  0.0618
44533W        W53133  10.054   1.738  24.211 -0.0941  0.0719 -0.1287
44534W        W53134  16.334   4.154   7.229  0.0798  0.1909  0.1854
44535W        W53135   4.361   1.322  24.675  0.0345  0.1011 -0.0974
44536W        W53136  18.398   3.028  14.759 -0.0565  0.1739 -0.1699
44537W        W53137   0.620   0.712  16.960 -0.0082  0.0594 -0.0936
44538W        W53138   1.299   1.566  19.423 -0.1619 -0.1032 -0.0743
44539W        W53139   1.361   1.085  21.371  0.1292  0.0545 -0.1384
44540W        W53140   4.711   1.905  21.611  0.2167  0.0709 -0.1061
44541W        W53141  11.076   0.753  24.180 -0.0041  0.0850 -0.1182
44542W        W53142   9.434   0.394   7.881 -0.2393 -0.0603  0.2470
44543W        W53143  16.637   1.934   0.189  0.0740  0.2930  0.0742
44544W        W53144  10.262   0.460  20.152  0.2195  0.1763  0.1393
44545W        W53145   5.588   5.468   3.559 -0.0599  0.4787 -0.0911
44546W        W53146  23.176   2.046  21.870  0.1714 -0.1328  0.2534
44547W        W53147   8.698   2.511   6.943  0.3476  0.1773 -0.0801
44548W        W53148  12.897   5.145   6.966 -0.3008  0.1034 -0.1785
44549W        W53149  20.809   1.924  17.108  0.2662 -0.0381 -0.2726
44550W        W53150  26.643   0.429   4.154 -0.0955 -0.0904  0.1557
44551W        W53151   6.870   7.582   4.813 -0.0023 -0.2951  0.1149
44552W        W53152   0.960   3.062   2.853 -0.0912  0.1736  0.1112
44553W        W53153   3.190   2.903  17.332  0.3257  0.1179 -0.3467
44554W        W53154  13.438   4.204   6.216 -0.2469  0.0986 -0.0898
44555W        W53155  16.477   7.166  20.350  0.1316 -0.1896  0.1702
44556W        W53156   2.666   4.990   0.741 -0.3613 -0.1508 -0.0892
44557W        W53157  21.992   5.851  23.358 -0.0044  0.2444  0.2316
44558W        W53158   1.270   6.157  20.175  0.2038 -0.0312 -0.1074
44559W        W53159   2.167   1.878  22.368  0.1830  0.2502  0.0181
44560W        W53160   8.575   5.504  17.897  0.2758  0.0917 -0.3242
44561W        W53161   6.728   5.096  10.116  0.1719 -0.1452  0.0717
44562W        W53162   5.944   2.674  18.123  0.1956 -0.1554 -0.1403
44563W        W53163  29.838   6.766   2.743 -0.1003  0.1197 -0.2215
44564W        W53164  23.568   2.572  24.936 -0.0630  0.0743 -0.0292
44565W        W53165   6.173   7.356   3.206  0.1164  0.2579  0.0990
44566W        W53166   5.026   0.979  25.094  0.0116 -0.3110 -0.0165
44567W        W53167  30.661   1.428   8.348 -0.0885 -0.0573  0.0503
44568W        W53168  24.830   0.253  10.600 -0.1151 -0.2489  0.0550
44569W        W53169  15.050   3.146  17.737 -0.1247  0.0107  0.0311
44570W        W53170   6.739   4.972   8.031  0.2398  0.1552 -0.1769
44571W        W53171   7.958   2.054   1.108  0.0778 -0.3413 -0.2223
44572W        W53172  20.876   4.634   3.212  0.0134  0.1623 -0.1996
44573W        W53173   2.305   1.002  20.100 -0.3173  0.3092  0.1819
44574W        W53174   0.577   1.966  16.764 -0.1302 -0.3909 -0.0443
44575W        W53175  17.651   3.735  23.161  0.0777  0.2647  0.0559
44576W        W53176  16.524   6.845  17.799 -0.1249 -0.3918  0.5469
44577W        W53177   1.163   2.807  19.063  0.3067  0.1800  0.1985
44578W        W53178  17.533   1.020   4.101  0.0260  0.2666 -0.1503
44579W        W53179   4.611   2.082   2.505 -0.2687  0.0070  0.4506
44580W        W53180   6.783   3.726  16.532 -0.0594 -0.1879  0.1886
44581W        W53181  13.669   5.380  25.845  0.0664 -0.2266 -0.1387
44582W        W53182  17.418   2.273  18.998 -0.2150  0.1316  0.2316
44583W        W53183   6.874   5.499   6.000  0.0442 -0.0481  0.2795
44584W        W53184  29.888   5.429  25.614  0.0092  0.1488  0.0796
44585W        W53185  24.797   6.010  18.222  0.0046  0.1930 -0.1709
44586W        W53186   4.719   2.607  21.079  0.0013  0.0826 -0.1171
44587W        W53187  18.448   2.955  15.332 -0.2180  0.2717 -0.1899
44588W        W53188  14.389   1.318  24.963  0.0019 -0.1639 -0.0446
44589W        W53189  18.241   4.436   3.139 -0.1256 -0.3575  0.0002
44590W        W53190  17.784   0.434   9.644 -0.0279 -0.2185 -0.1194
44591W        W53191  31.178   6.572  24.676 -0.1593 -0.1868 -0.0748
44592W        W53192  17.202   4.300  10.081 -0.0240 -0.0080  0.0399
44593W        W53193  16.335   3.631  21.327 -0.2771  0.0010 -0.1160
44594W        W53194  19.210   4.759   4.409  0.2041 -0.1636 -0.1261
44595W        W53195   7.063   6.417  22.076 -0.1464  0.1294 -0.0936
44596W        W53196   0.981   0.939   9.124 -0.0700  0.1029 -0.2394
44597W        W53197   9.059   3.282   0.028 -0.1330 -0.2505  0.1259
44598W        W53198  13.528   6.138  10.660 -0.1396  0.1024  0.3192
44599W        W53199  17.963   0.188   6.988  0.1970 -0.0424 -0.2807
44600W        W53200   2.849   4.576  25.299  0.0399 -0.1311 -0.2987
44601W        W53201  20.547   7.445  20.682 -0.0111 -0.2097  0.0006
44602W        W53202  16.045   5.019  17.953  0.1228  0.0348 -0.0930
44603W        W53203   0.143   2.641   2.582 -0.2397  0.1022 -0.1634
44604W        W53204   8.289   5.939  21.321 -0.4457  0.1486 -0.0601
44605W        W53205  27.285   1.678   0.745 -0.3962  0.1320  0.0501
44606W        W53206  14.687   1.701  14.759  0.0266  0.2252  0.1498
44607W        W53207   7.160   2.589  17.681 -0.2826  0.0231  0.0167
44608W        W53208   8.040   0.192  25.852  0.0444 -0.0840 -0.0595
44609W        W53209  18.114   3.381   5.019  0.0292  0.1958 -0.1250
44610W        W53210  28.134   7.550   7.522  0.2368 -0.1081  0.2260
44611W        W53211  20.359   2.596  20.075 -0.3388 -0.0939 -0.2661
44612W        W53212   4.952   0.356  26.330  0.1697  0.0217 -0.2975
44613W        W53213  13.495   7.275   6.145 -0.2690 -0.3557  0.0580
44614W        W53214  10.092   3.212   9.952 -0.1495 -0.2321  0.1377
44615W        W53215   9.214   4.812  25.373  0.1421 -0.2339  0.1084
44616W        W53216   8.223   0.741   1.488  0.0823 -0.0170 -0.0145
44617W        W53217  20.591   0.122  19.454  0.1123 -0.3518 -0.1527
44618W        W53218  16.211   0.982   5.099  0.0775  0.5078  0.0683
44619W        W53219  21.124   1.801  16.285  0.2022  0.0472  0.1149
44620W        W53220  20.114   4.824   2.226  0.0371 -0.2185  0.0736
44621W        W53221   9.173   4.810  10.950 -0.1453  0.0109  0.1196
44622W        W53222  10.239   0.719  24.337 -0.0316  0.1540 -0.4140
44623W        W53223   5.129   3.185  16.999 -0.2627  0.4049  0.3061
44624W        W53224   8.173   1.091   0.626 -0.3394 -0.2449 -0.1981
44625W        W53225  14.672   1.691  10.104  0.1645 -0.3095  0.0006
44626W        W53226  27.379   7.776  23.158  0.2598 -0.1218 -0.0345
44627W        W53227  28.042   4.283   4.475 -0.0219  0.1848 -0.2674
44628W        W53228  25.198   2.291  15.928 -0.3537  0.1252  0.0301
44629W        W53229  10.968   3.902  18.576  0.1118 -0.0523  0.0836
44630W        W53230   2.890   3.540  10.540  0.0082 -0.0912 -0.0291
44631W        W53231   8.291   6.478   3.518 -0.0228 -0.1749 -0.0267
44632W        W53232  12.702   6.873  22.737  0.3074  0.0190 -0.0266
44633W        W53233   2.966   3.263   2.525  0.1629 -0.2043 -0.2669
44634W        W53234  28.605   6.400  18.635 -0.0989  0.1302 -0.0098
44635W        W53235   2.895   0.480  16.923 -0.2555  0.2845  0.1108
44636W        W53236   6.514   7.745  22.997  0.4979 -0.2009  0.1629
44637W        W53237  17.992   4.373   9.749  0.1078 -0.4110  0.0744
44638W        W53238  18.695   0.868   2.061  0.1200 -0.1661  0.1648
44639W        W53239  19.370   7.091   7.801 -0.2534  0.0658 -0.1376
44640W        W53240  14.400   3.382  18.595  0.1349 -0.1455 -0.2502
44641W        W53241  25.342   2.192   7.030 -0.0521  0.0517 -0.1947
44642W        W53242  10.292   6.317   3.052  0.0130  0.0137  0.1951
44643W        W53243  27.785   5.122   2.148 -0.2283  0.1629  0.1691
44644W        W53244   2.014   1.688   7.008 -0.1444 -0.1016  0.3226
44645W        W53245   9.487   0.773  22.515 -0.0940 -0.1129  0.0746
44646W        W53246  30.875   5.171  25.131 -0.1439 -0.0478  0.0790
44647W        W53247   6.098   5.416   3.631  0.1109 -0.1290 -0.0533
44648W        W53248   7.199   2.780   7.673 -0.0330  0.0265 -0.2386
44649W        W53249  16.170   7.367   7.958 -0.0330  0.1278  0.0036
44650W        W53250  29.176   1.627   0.735 -0.0417 -0.0221 -0.0067
44651W        W53251  17.837   7.650  16.935  0.0641 -0.4899  0.3516
44652W        W53252   9.873   7.787  24.549 -0.0987  0.0598 -0.1175
44653W        W53253  17.434   6.375   8.734  0.2526  0.3538 -0.0559
44654W        W53254  13.371   6.235   2.058  0.1253  0.1015 -0.0563
44655W        W53255  23.766   1.001  18.741  0.4734 -0.1491  0.0632
44656W        W53256  29.956   6.303   9.157  0.2860  0.4330 -0.0506
44657W        W53257  16.814   2.752  17.707 -0.0446 -0.0266 -0.0121
44658W        W53258  11.542   3.415  23.496  0.2395  0.1953  0.0825
44659W        W53259  15.042   4.683   8.836  0.1319 -0.2745 -0.0875
44660W        W53260  30.904   2.979   9.248 -0.0579  0.0985 -0.0006
44661W        W53261  24.339   2.420  25.384 -0.0101  0.1380 -0.0165
44662W        W53262   6.731   4.426   1.212  0.0282  0.0979 -0.0985
44663W        W53263  12.566   5.408   6.720 -0.1983  0.0136  0.3674
44664W        W53264  28.235   6.662  23.335  0.2830 -0.1638  0.3287
44665W        W53265  10.583   3.808  11.349  0.0187  0.2435 -0.1298
44666W        W53266  19.949   1.129  23.976  0.1187 -0.1633  0.2436
44667W        W53267   6.035   2.887   6.190 -0.2329 -0.1665 -0.0892
44668W        W53268  30.078   5.381  24.704  0.1736  0.0706  0.1693
44669W        W53269  26.508   7.655  16.792  0.2279  0.1555 -0.1647
44670W        W53270   2.270   7.448   9.009 -0.0730 -0.1075  0.3418
44671W        W53271   6.049   2.278  25.928  0.2273  0.1374 -0.2007
44672W        W53272  23.625   3.689  22.279 -0.0152  0.0470 -0.2016
44673W        W53273   4.941   3.189  18.708  0.0811 -0.1145 -0.0503
44674W        W53274  29.944   5.112   4.460 -0.0043 -0.2292 -0.1031
44675W        W53275  11.284   2.520   4.645  0.0204  0.1386 -0.1522
44676W        W53276   3.513   6.153  17.397  0.0549  0.0813 -0.0139
44677W        W53277  29.670   0.231   7.345  0.1376  0.0032  0.1739
44678W        W53278  26.128   4.426   6.977  0.2112  0.1356 -0.0515
44679W        W53279  18.319   5.342  16.429  0.1542 -0.0152 -0.2393
44680W        W53280   2.683   5.407  26.297 -0.1548 -0.0025  0.0204
44681W        W53281  16.419   7.103  16.663  0.2204 -0.1475 -0.0212
44682W        W53282  28.877   2.707   5.768  0.0081  0.0667 -0.1024
44683W        W53283  13.004   1.452  15.720 -0.1173 -0.0245  0.1012
44684W        W53284  17.769   1.230   0.991 -0.0359 -0.1981 -0.3792
44685W        W53285   7.548   7.156  19.894  0.0152  0.0687 -0.0439
44686W        W53286  23.307   6.770  18.084 -0.1502  0.0526  0.0008
44687W        W53287  23.820   1.329   9.431 -0.0484  0.1381 -0.1962
44688W        W53288  11.996   3.361  17.334  0.1381  0.0733 -0.0685
44689W        W53289  16.910   2.292  25.885  0.2001  0.5409  0.0199
44690W        W53290   7.557   4.263   2.399  0.0146  0.0739 -0.0982
44691W        W53291  24.868   6.890   6.041 -0.3552 -0.0973  0.2547
44692W        W53292  30.755   4.021  23.118  0.0345 -0.3038 -0.0424
44693W        W53293   4.323   5.268  18.554 -0.0015  0.1580  0.1138
44694W        W53294  25.120   0.196  16.853 -0.2153 -0.2332 -0.1055
44695W        W53295   2.420   1.677   4.103  0.3238 -0.0610 -0.2025
44696W        W53296  25.525   4.021  20.015 -0.1101 -0.0335  0.3303
44697W        W53297   2.898   6.375  26.015  0.3376 -0.0461  0.1018
44698W        W53298  23.140   1.913  19.864 -0.3593 -0.1910 -0.1766
44699W        W53299   0.231   6.724   7.044 -0.1665 -0.0510 -0.5120
44700W        W53300   6.849   3.308   3.419  0.0402  0.1363  0.0985
44701W        W53301  24.511   7.660  19.134  0.1438  0.2777 -0.2845
44702W        W53302  20.789   7.503  11.115 -0.1686 -0.3229 -0.1525
44703W        W53303  22.029   1.380   0.403 -0.0875 -0.0016 -0.2183
44704W        W53304  27.946   2.304  20.680  0.3299  0.2708  0.1371
44705W        W53305  10.533   5.744  25.739  0.1923 -0.0877  0.2154
44706W        W53306  16.969   1.289  17.447  0.2665 -0.0297  0.1636
44707W        W53307  24.387   7.121  10.105  0.0001 -0.0563 -0.0079
44708W        W53308   3.573   5.288   2.871  0.0570 -0.2621  0.0956
44709W        W53309  21.699   7.721  15.503  0.0403  0.0143 -0.1013
44710W        W53310  30.654   2.637   3.043 -0.1924 -0.2621  0.2579
44711W        W53311  10.256   1.629   7.573  0.0138  0.0583  0.2693
44712W        W53312  26.701   5.547  18.049 -0.2197 -0.0761  0.1412
44713W        W53313  25.040   1.378   0.506 -0.1369 -0.0848  0.2282
44714W        W53314   8.560   2.162  21.576 -0.0106 -0.0946  0.2247
44715W        W53315  26.967   0.303  22.744  0.1881  0.2151  0.0603
44716W        W53316   7.112   7.249   9.838  0.2411 -0.1472  0.0211
44717W        W53317  18.141   4.653   1.861  0.0800  0.3284  0.0516
44718W        W53318   4.036   3.487  24.027  0.4709  0.2300  0.2064
44719W        W53319  13.465   4.340  16.781  0.0258 -0.2917 -0.0373
44720W        W53320  26.356   6.552   3.318  0.2329  0.1821 -0.2792
44721W        W53321  25.307   3.436  25.090 -0.1376  0.1848  0.1131
44722W        W53322   2.336   6.987   2.555 -0.3053 -0.4024 -0.0095
44723W        W53323  15.946   5.155   1.263  0.2210 -0.1758  0.1415
44724W        W53324  22.216   3.887   0.180 -0.0836  0.0361  0.1203
44725W        W53325   8.628   7.737   2.184  0.0022  0.0573  0.0196
44726W        W53326  24.849   4.382  18.301  0.1689 -0.0564  0.5577
44727W        W53327  12.323   4.650   4.284 -0.0939  0.0934  0.0945
44728W        W53328  16.423   0.808  21.983 -0.3331  0.1253  0.0509
44729W        W53329   1.808   2.113   0.418  0.3625  0.0753  0.1685
44730W        W53330  29.007   3.148  23.546  0.0001  0.3501  0.0871
44731W        W53331   4.008   7.678   7.652  0.0664 -0.3876 -0.1719
44732W        W53332  15.712   4.891   4.985  0.1247 -0.1649  0.0935
44733W        W53333  18.963   6.684  22.434 -0.0951  0.1375 -0.1044
44734W        W53334   9.266   0.352  15.711  0.0668 -0.0048 -0.0600
44735W        W53335   6.614   1.203   1.133 -0.1217 -0.0571 -0.1035
44736W        W53336  13.247   5.350   4.146 -0.3409  0.2477  0.0898
44737W        W53337  13.644   7.565  15.329 -0.1096  0.0451  0.2544
44738W        W53338   4.654   5.544   5.577  0.1066 -0.1768 -0.2671
44739W        W53339  15.869   4.343   5.814 -0.1020  0.0966 -0.0338
44740W        W53340  17.104   6.467  18.050 -0.3581  0.0014  0.1719
44741W        W53341  23.376   5.132   3.653  0.3486 -0.1354 -0.1304
44742W        W53342  26.862   0.924  16.972  0.1534  0.0046  0.0153
44743W        W53343  14.055   4.063   8.461  0.1494  0.2716  0.0715
44744W        W53344  28.768   5.554  17.462 -0.3461 -0.2549 -0.1576
44745W        W53345  25.389   3.530   4.709 -0.1897 -0.1273  0.1155
44746W        W53346  15.478   7.151  15.155  0.1054 -0.1571  0.1730
44747W        W53347   0.617   4.407  21.603 -0.1756 -0.2184 -0.0728
44748W        W53348  10.643   7.779  22.112 -0.0347  0.2221  0.0897
44749W        W53349   2.582   3.646   8.482 -0.1565  0.1250 -0.0532
44750W        W53350  14.028   0.423  25.227  0.1960  0.0341  0.0592
44751W        W53351   2.272   2.008  20.160  0.3100 -0.2428  0.2135
44752W        W53352  12.053   1.782   7.586  0.2308  0.3416 -0.1642
44753W        W53353  28.686   2.816   8.743 -0.2370  0.0559 -0.0357
44754W        W53354  26.674   0.950  21.527  0.2571 -0.1069 -0.1991
44755W        W53355  15.715   3.687   1.118 -0.0889 -0.0091 -0.1028
44756W        W53356  29.462   3.254   0.478 -0.1016 -0.0386  0.2505
44757W        W53357  19.791   6.813  23.307  0.0265 -0.1777  0.0771
44758W        W53358   3.901   1.268   7.802 -0.0449 -0.0454 -0.1893
44759W        W53359   4.005   0.748   0.139  0.2450 -0.0895 -0.0604
44760W        W53360   0.554   2.779   9.489  0.0231  0.1494 -0.2300
44761W        W53361  11.006   0.964  18.035  0.0788 -0.0878 -0.0222
44762W        W53362   6.721   4.399   9.419 -0.4063  0.0639  0.3188
44763W        W53363  16.792   0.410  21.668  0.2028 -0.2154  0.1859
44764W        W53364  14.817   3.627   2.525  0.3659 -0.2766 -0.1977
44765W        W53365   0.004   4.507  17.944  0.1415 -0.0787 -0.0755
44766W        W53366  27.504   3.796  22.997 -0.1246  0.0842 -0.1412
44767W        W53367  28.274   6.956  10.835 -0.2323  0.0263  0.2114
44768W        W53368  23.918   0.929   3.180  0.0694  0.3971 -0.2592
44769W        W53369   3.842   1.893   8.548  0.1490 -0.0622  0.0715
44770W        W53370   4.481   4.436   9.612  0.1202 -0.0828  0.2868
44771W        W53371  23.063   3.480  16.056  0.4168  0.2752 -0.2180
44772W        W53372  16.995   6.143  16.088 -0.1808  0.0863  0.1601
44773W        W53373  21.082   1.036   9.198  0.1603 -0.1359 -0.1413
44774W        W53374  17.923   2.382   2.139  0.2709 -0.0189 -0.0778
44775W        W53375   3.388   1.036   5.884  0.0703  0.1594 -0.0054
44776W        W53376  16.017   6.076  25.958  0.1312  0.1490  0.0709
44777W        W53377  25.837   6.566   1.030  0.0662  0.1800 -0.3540
44778W        W53378  22.863   5.019   3.557  0.2287 -0.0943 -0.0859
44779W        W53379   5.081   0.611  20.505 -0.2417  0.2710  0.0229
44780W        W53380   8.480   4.140  22.439 -0.1597 -0.1514  0.0189
44781W        W53381  25.849   0.425  17.595  0.0354 -0.0520 -0.0826
44782W        W53382  16.111   5.601  25.814  0.0123  0.0554  0.0287
44783W        W53383  23.067   6.526  21.393  0.1870 -0.0142  0.0021
44784W        W53384  23.172   1.956  26.300 -0.2599  0.1358 -0.3702
44785W        W53385  31.193   1.928  15.310 -0.4026  0.1497 -0.2464
44786W        W53386  30.141   3.989  16.658  0.2617  0.1069 -0.0643
44787W        W53387   7.479   3.441   8.777  0.2208  0.3037 -0.1233
44788W        W53388  31.101   6.235  15.350  0.1934 -0.1204  0.2606
44789W        W53389   8.651   5.498   2.578 -0.1059  0.2016 -0.0987
44790W        W53390  23.465   4.464  10.037  0.1773  0.1383  0.0853
44791W        W53391  28.813   1.292  20.865 -0.0240  0.1346  0.2357
44792W        W53392  23.814   5.199  11.108  0.1538 -0.0471  0.1701
44793W        W53393  14.839   1.229   3.795  0.2481  0.0229  0.1049
44794W        W53394  11.585   4.206   0.094 -0.1479  0.0032  0.1306
44795W        W53395   0.457   6.403   3.921 -0.1160 -0.0003 -0.1537
44796W        W53396  10.100   0.121  25.916 -0.1983  0.0560 -0.0901
44797W        W53397  14.836   0.706   5.400  0.2701 -0.1261 -0.0157
44798W        W53398  23.655   0.411  25.153 -0.0460 -0.1891 -0.0363
44799W        W53399  28.125   5.094  23.420  0.0807  0.0062  0.2441
44800W        W53400  11.530   0.420  19.202  0.0677 -0.1671 -0.2017
44801W        W53401   0.381   4.864   6.516 -0.1931  0.3869  0.0662
44802W        W53402  22.569   3.809   2.461 -0.1456 -0.1423  0.0766
44803W        W53403   5.399   5.433   8.710 -0.1424 -0.1501 -0.0953
44804W        W53404  21.994   2.555   9.405  0.3520  0.1889  0.1411
44805W        W53405  21.149   2.394  20.320 -0.1371 -0.2045 -0.2709
44806W        W53406  16.943   5.588  23.826 -0.0639  0.1810  0.0156
44807W        W53407  12.344   0.871  24.986 -0.0340 -0.0043 -0.1530
44808W        W53408  20.806   5.200  20.073  0.1637 -0.1221 -0.0078
44809W        W53409  17.824   3.339  20.169  0.0820 -0.1744 -0.1765
44810W        W53410   0.415   5.524  22.869  0.2932 -0.2892 -0.2490
44811W        W53411  27.941   6.033  25.767 -0.0914 -0.1748 -0.0982
44812W        W53412  30.296   7.272  17.776 -0.0668  0.1910  0.2498
44813W        W53413   9.285   1.166   0.089 -0.2208 -0.3904 -0.0524
44814W        W53414  13.120   1.583  18.208  0.0404 -0.2320  0.1406
44815W        W53415  22.438   7.731  24.362 -0.2514  0.2183  0.0689
44816W        W53416   3.457   6.044   2.988  0.0338  0.2027 -0.0792
44817W        W53417  28.781   4.093  18.766  0.4854 -0.1002 -0.2370
44818W        W53418   6.359   7.255   9.079 -0.4103  0.2054  0.1085
44819W        W53419  25.653   6.051   2.104 -0.0652 -0.0090  0.2230
44820W        W53420  20.066   3.270   9.371 -0.2762  0.1104  0.0060
44821W        W53421   8.436   1.403  18.231  0.2155 -0.0973  0.1037
44822W        W53422   2.140   2.665   6.753 -0.5629  0.3949  0.4514
44823W        W53423  18.524   1.111  15.853  0.1201  0.0658  0.1324
44824W        W53424   1.279   6.517   1.439 -0.1194 -0.1017 -0.1963
44825W        W53425   4.489   4.887  17.525  0.1053  0.3979  0.0280
44826W        W53426  28.537   5.536  18.951  0.0551 -0.2851  0.0828
44827W        W53427  20.788   1.279   4.744 -0.1064 -0.1349  0.0210
44828W        W53428  24.231   4.042  22.804  0.0907  0.1296  0.0115
44829W        W53429  14.560   6.504   9.516 -0.1770  0.1795 -0.4355
44830W        W53430   0.439   3.783  17.658  0.0746 -0.3782  0.3022
44831W        W53431  17.663   5.726   0.111  0.1870  0.0240 -0.3200
44832W        W53432  22.403   4.257  10.813  0.1651  0.0171 -0.0839
44833W        W53433  13.629   6.077   5.207  0.0159  0.1921 -0.1458
44834W        W53434  31.188   4.796   3.533  0.1493  0.0860 -0.1015
44835W        W53435  20.850   4.011  22.796  0.0454  0.2215  0.0592
44836W        W53436  21.607   0.971   6.967  0.0793 -0.0390 -0.1678
44837W        W53437   7.253   0.787   3.143  0.0291  0.0076  0.3892
44838W        W53438  10.530   5.957   1.661 -0.0108 -0.0004  0.1080
44839W        W53439  14.329   6.769  19.075  0.1761 -0.0456  0.0377
44840W        W53440  16.818   6.916  19.818  0.3093 -0.0179 -0.0440
44841W        W53441   4.870   1.310   6.325 -0.3014  0.2960  0.1202
44842W        W53442   9.983   6.753  10.094 -0.1392 -0.1522  0.1096
44843W        W53443  28.617   4.734  22.018  0.1639 -0.0356 -0.0669
44844W        W53444  10.989   2.561  17.263  0.3026 -0.3080  0.0637
44845W        W53445  19.959   1.571   8.711  0.0561 -0.1258  0.0169
44846W        W53446   5.546   3.005  18.006 -0.0881 -0.1264 -0.1705
44847W        W53447  13.027   2.618   3.621 -0.0838 -0.1693  0.0955
44848W        W53448  24.662   5.721  20.687  0.1491  0.0344  0.0703
44849W        W53449  20.990   0.274   1.159 -0.0322  0.0082  0.0705
44850W        W53450  13.281   4.646  17.788 -0.2840  0.0071 -0.0479
44851W        W53451  20.792   0.096   2.025 -0.0589  0.0855 -0.2568
44852W        W53452   7.938   2.175  20.467  0.1477  0.0973  0.2100
44853W        W53453   5.868   2.424   7.818  0.0199 -0.0364 -0.2887
44854W        W53454  10.857   6.215  21.802  0.1901  0.0148 -0.1748
44855W        W53455  26.664   0.645  10.279  0.5665 -0.1255  0.0073
44856W        W53456  23.459   5.313  11.636  0.1166 -0.1555 -0.1993
44857W        W53457  14.895   0.814  17.488 -0.0876  0.1226  0.1581
44858W        W53458   3.352   2.314  17.408  0.1725 -0.2436  0.3489
44859W        W53459  14.573   2.388   8.368 -0.1430 -0.1857  0.3864
44860W        W53460  14.478   2.972   5.159  0.3536 -0.0832  0.1308
44861W        W53461   3.396   1.051   7.822 -0.1168  0.1217 -0.0196
44862W        W53462  23.502   0.791   5.054  0.0284  0.3641 -0.0946
44863W        W53463  19.636   5.771  16.526  0.3011  0.1583 -0.1089
44864W        W53464  27.211   7.560  22.660  0.0901  0.0503 -0.2333
44865W        W53465   0.377   5.211  17.570 -0.2507 -0.1578  0.0218
44866W        W53466   4.524   6.484  16.628  0.2387  0.2747 -0.2108
44867W        W53467  10.372   5.346  20.656  0.1719 -0.0596  0.4429
44868W        W53468  28.143   6.256  18.554 -0.2387 -0.0023 -0.0278
44869W        W53469  18.822   6.929   6.650 -0.3108 -0.0581 -0.0508
44870W        W53470  24.383   1.149   9.785  0.0484 -0.0248 -0.0625
44871W        W53471  10.696   7.785  19.026 -0.0853  0.2791  0.0500
44872W        W53472   2.958   6.139   1.707 -0.0539 -0.2305 -0.1546
44873W        W53473  19.565   3.231   0.802 -0.1245 -0.1337 -0.1809
44874W        W53474  11.038   1.265   8.236  0.1461  0.3223  0.0252
44875W        W53475  15.659   2.805   1.627  0.1490 -0.1695  0.4468
44876W        W53476  17.002   6.932  11.004 -0.0850  0.1402  0.4001
44877W        W53477   5.411   1.648  16.737 -0.0672 -0.2104 -0.2702
44878W        W53478  22.382   3.634   9.587 -0.2278 -0.0808  0.1239
44879W        W53479  14.574   7.092  18.463 -0.0876  0.1063  0.0721
44880W        W53480   0.649   3.807   4.386  0.2964  0.0262  0.1838
44881W        W53481  17.130   2.891   5.325  0.1198  0.2992 -0.1213
44882W        W53482   5.347   3.775  10.789  0.1742  0.0017 -0.0833
44883W        W53483  17.558   5.356  23.983 -0.0257  0.3812 -0.0555
44884W        W53484  25.018   3.641  22.381 -0.1654 -0.1403 -0.3517
44885W        W53485  26.058   0.525  23.089  0.0995 -0.1647  0.2282
44886W        W53486   0.767   1.538  10.728 -0.1701  0.0207  0.0435
44887W        W53487  19.271   2.821   9.504 -0.2034 -0.0845 -0.2215
44888W        W53488  25.269   1.482  18.327 -0.2522  0.1511 -0.0136
44889W        W53489   8.828   1.581  18.013  0.0043 -0.2674  0.0550
44890W        W53490  29.938   3.187  23.877  0.0189 -0.1048 -0.4438
44891W        W53491  21.476   2.119  10.988  0.1073 -0.1142  0.1664
44892W        W53492  29.840   6.216  19.312  0.0395  0.0681 -0.3035
44893W        W53493  16.995   4.348   9.589  0.0293  0.0072 -0.3740
44894W        W53494   3.269   7.655  15.695 -0.2171  0.1830  0.0220
44895W        W53495   4.966   5.378  23.673  0.0262 -0.0023 -0.3002
44896W        W53496  27.729   3.454  22.416  0.0730 -0.3583  0.0154
44897W        W53497   0.482   4.631  23.009 -0.0974 -0.0913  0.1298
44898W        W53498   3.586   1.845   9.014 -0.3200 -0.1048  0.0339
44899W        W53499  22.762   4.572  25.984  0.2262  0.1155  0.2199
44900W        W53500  29.378   4.155  26.357  0.1709 -0.3119  0.1131
44901W        W53501  25.415   4.152   9.782  0.0051 -0.3129 -0.4264
44902W        W53502  30.024   6.102  25.169  0.2459  0.0086  0.0559
44903W        W53503  11.077   6.149   3.616 -0.0606 -0.0998  0.0917
44904W        W53504  10.860   6.453   2.991 -0.5210 -0.0471 -0.0535
44905W        W53505   5.492   6.627   5.268 -0.0053 -0.2089 -0.2354
44906W        W53506  17.011   4.417  20.945 -0.0562  0.0102  0.0505
44907W        W53507  12.107   7.310   8.413  0.2444  0.2369  0.3080
44908W        W53508  23.208   0.443  17.367 -0.3350 -0.0603 -0.1036
44909W        W53509  27.773   4.803  19.446  0.2489 -0.0264  0.1425
44910W        W53510  25.943   7.681   2.917 -0.3596 -0.3195 -0.4764
44911W        W53511  18.534   7.529   1.117 -0.1362 -0.1541 -0.1871
44912W        W53512   1.342   4.907   0.508  0.1293  0.0193  0.0160
44913W        W53513   2.703   0.604  25.296  0.1517  0.0865  0.0675
44914W        W53514  16.545   3.034  25.703 -0.1757 -0.5042  0.0364
44915W        W53515  28.938   1.760   4.111 -0.1061 -0.1425 -0.0553
44916W        W53516   5.133   6.944  10.037 -0.0183 -0.1488  0.1056
44917W        W53517   8.330   2.574   2.423  0.0269  0.0005 -0.2364
44918W        W53518  13.365   2.377  17.341 -0.0133  0.3081  0.0855
44919W        W53519  18.547   5.542  22.562  0.0345 -0.0472 -0.0434
44920W        W53520  24.737   5.690   5.573  0.0569 -0.0653 -0.0449
44921W        W53521  22.124   0.917   4.320  0.2017 -0.1776 -0.3550
44922W        W53522   4.881   0.109   8.712  0.0670  0.0599  0.0670
44923W        W53523  23.752   4.561   5.858 -0.2980  0.1129  0.1474
44924W        W53524  18.156   3.501  16.170 -0.1178  0.1821 -0.1201
44925W        W53525   5.782   7.774  25.474  0.0775 -0.0209 -0.2218
44926W        W53526  12.391   5.058  20.907 -0.0398 -0.1016  0.2279
44927W        W53527  24.003   6.359  20.906 -0.2620  0.2358 -0.1320
44928W        W53528  20.600   1.521   0.432 -0.0951 -0.1808  0.1854
44929W        W53529  17.696   0.920  25.743 -0.1933  0.2185  0.0924
44930W        W53530   6.060   2.083  21.297 -0.2677 -0.0165  0.2287
44931W        W53531   5.148   3.902   4.035 -0.2967  0.1864  0.2497
44932W        W53532   1.842   0.334  17.054 -0.0304 -0.1657 -0.0167
44933W        W53533  29.868   5.362   7.062 -0.1423  0.0082  0.1699
44934W        W53534  30.188   1.892  15.340  0.2396 -0.2611  0.2836
44935W        W53535  28.485   3.448  15.640  0.1431 -0.1907 -0.0341
44936W        W53536   0.268   6.802  20.224 -0.0243 -0.2605  0.0432
44937W        W53537  15.151   4.919  26.349 -0.1760  0.1234 -0.2565
44938W        W53538  25.383   5.104  19.834 -0.1202 -0.1405  0.0890
44939W        W53539  17.582   5.702   5.755  0.2181 -0.1613  0.0559
44940W        W53540  18.450   1.593  24.989  0.1841  0.2316 -0.2934
44941W        W53541  30.880   7.248   3.974  0.2850  0.1659  0.2445
44942W        W53542  18.526   3.844  16.153 -0.2847 -0.0027  0.2313
44943W        W53543  27.494   3.171   9.288 -0.1999  0.1590 -0.1421
44944W        W53544  10.466   0.124   4.103 -0.4346  0.3732  0.2281
44945W        W53545   2.364   1.930   7.283 -0.1289 -0.3002 -0.3210
44946W        W53546   7.704   6.623  16.199  0.2972  0.1958  0.0858
44947W        W53547  23.617   0.267   0.829 -0.1282 -0.1310  0.1052
44948W        W53548  31.123   3.084  17.399  0.3956 -0.0591 -0.0213
44949W        W53549  27.676   5.465  10.180  0.0035 -0.1543  0.1521
44950W        W53550  14.032   3.023  21.164  0.3484 -0.1279 -0.1464
44951W        W53551  20.165   0.628   1.527 -0.1389  0.2116 -0.2051
44952W        W53552  21.075   6.942  23.154 -0.0814 -0.4256  0.3492
44953W        W53553   6.692   5.082  10.598 -0.3550  0.0591  0.3174
44954W        W53554   4.216   2.544  23.285 -0.1624 -0.3431 -0.0214
44955W        W53555  21.524   4.197  17.838  0.0927  0.1723 -0.2235
44956W        W53556  10.130   2.585   1.436 -0.2444 -0.1262  0.0617
44957W        W53557  10.209   0.639  21.356 -0.2819 -0.0043 -0.0899
44958W        W53558  29.585   0.912   5.984 -0.0660  0.1535  0.1135
44959W        W53559   1.250   7.709  25.996 -0.4164  0.2302  0.0711
44960W        W53560  25.801   2.696   1.482  0.1259  0.3310 -0.0388
44961W        W53561   1.970   4.718   3.113  0.2370 -0.3406  0.0260
44962W        W53562   9.800   2.322   0.754  0.0901  0.0117  0.1360
44963W        W53563  26.874   6.284  21.496  0.1085 -0.0290  0.0884
44964W        W53564  31.184   4.884   2.003  0.2728  0.2029 -0.0358
44965W        W53565   6.342   5.736   8.818  0.3313 -0.0188  0.1530
44966W        W53566  11.771   3.176   3.055  0.0144 -0.0969  0.2197
44967W        W53567  10.839   3.750   1.024 -0.1217  0.1193 -0.1078
44968W        W53568  11.695   3.001  19.865  0.1741 -0.0244 -0.1741
44969W        W53569  10.833   1.262   7.777  0.3109  0.1174  0.1774
44970W        W53570  11.668   0.664  22.269 -0.3396  0.0393  0.0715
44971W        W53571   0.315   7.466  18.246 -0.2270 -0.0021  0.0365
44972W        W53572   4.612   5.021  21.911  0.0741  0.1361 -0.3143
44973W        W53573  15.080   4.093   2.631  0.0660 -0.2691  0.1660
44974W        W53574   9.260   4.047   0.734 -0.1153 -0.1503 -0.1428
44975W        W53575   6.280   4.270   6.671  0.3741 -0.0173  0.0604
44976W        W53576  13.180   0.980  16.020 -0.2051  0.2143  0.0771
44977W        W53577  17.760   5.709  20.854 -0.1747 -0.0728 -0.3102
44978W        W53578   9.062   5.038   2.550  0.3170 -0.3676  0.4008
44979W        W53579  17.355   2.722   6.498 -0.2239  0.2743  0.0773
44980W        W53580  14.764   2.344  21.507 -0.0618  0.6086  0.0272
44981W        W53581   7.253   5.539  18.213 -0.1927 -0.0467 -0.0510
44982W        W53582  19.146   0.016   9.187 -0.4021  0.2333  0.0234
44983W        W53583  28.741   5.486  22.883 -0.3146  0.1552  0.1216
44984W        W53584   4.454   5.207  22.888 -0.0325  0.0886 -0.1463
44985W        W53585  16.079   7.770  23.984  0.2577  0.2246 -0.0846
44986W        W53586  23.121   1.290  25.136 -0.2425 -0.1053  0.1385
44987W        W53587  18.825   6.368  22.092  0.1288 -0.1863  0.0045
44988W        W53588  17.401   2.228   1.253 -0.2022  0.2372 -0.0567
44989W        W53589   5.282   5.082   2.741 -0.1621  0.0370  0.1351
44990W        W53590   1.355   3.405  11.395 -0.0599  0.0697 -0.1274
44991W        W53591  26.311   0.771  20.474  0.1379 -0.1714 -0.0859
44992W        W53592   9.927   6.474  21.095  0.0215 -0.1431  0.2688
44993W        W53593   7.904   5.714  21.510 -0.1675  0.1763  0.1470
44994W        W53594   7.941   3.721  16.641  0.2366 -0.0157  0.0501
44995W        W53595   2.948   5.297  18.331  0.4513  0.3080 -0.1468
44996W        W53596   2.609   4.481  25.817 -0.0603  0.1861 -0.3254
44997W        W53597  20.009   2.076   9.032  0.0069 -0.0374 -0.0658
44998W        W53598  16.403   0.139   9.572 -0.3222  0.2527  0.1016
44999W        W53599  29.560   6.688  17.406 -0.0047 -0.3941  0.0507
45000W        W53600   7.840   1.101   7.072  0.0287  0.3455 -0.3430
45001W        W53601  24.344   3.148  23.354 -0.0054  0.0188  0.0088
45002W        W53602   3.448   3.001  10.804  0.0523 -0.2071  0.0309
45003W        W53603  22.342   2.004   3.452 -0.0078  0.1044 -0.1766
45004W        W53604  23.094   4.421   0.342 -0.0177  0.1141 -0.1384
45005W        W53605  30.105   5.811   5.923 -0.2476 -0.2056  0.0483
45006W        W53606  19.787   3.046  18.400  0.0682 -0.3674 -0.1130
45007W        W53607  11.184   7.547   5.294  0.0390 -0.1130  0.0948
45008W        W53608  10.936   2.011   2.416 -0.0638  0.3039 -0.0059
45009W        W53609   4.016   3.268  16.055  0.0092 -0.0280 -0.1716
45010W        W53610  16.636   7.016  16.165 -0.0278 -0.0680  0.0636
45011W        W53611   8.802   5.359   3.991  0.1329  0.3212 -0.2682
45012W        W53612  16.766   6.799   6.362  0.1917 -0.0006  0.0855
45013W        W53613  22.062   0.722  23.918 -0.1173 -0.1356  0.2463
45014W        W53614  25.004   1.729   0.019 -0.3755  0.1828  0.0033
45015W        W53615  22.415   4.838  22.376  0.0440  0.3438  0.0264
45016W        W53616  13.334   6.158   4.548 -0.0574 -0.3803  0.1483
45017W        W53617   9.109   0.386   8.298 -0.1553 -0.2770  0.0606
45018W        W53618   9.068   5.353  23.827  0.0303  0.0665  0.1276
45019W        W53619   6.375   4.841   5.423  0.4712  0.0748  0.3921
45020W        W53620   0.138   0.566   8.898  0.0996 -0.1794  0.0168
45021W        W53621  23.402   3.502  25.350 -0.1174  0.1518  0.2454
45022W        W53622   1.555   1.608   9.112  0.1292 -0.2024  0.2448
45023W        W53623  30.670   4.741  18.743 -0.0405 -0.1148 -0.1314
45024W        W53624   4.528   2.650   6.781  0.0572  0.0329  0.0256
45025W        W53625  24.578   3.805  20.336 -0.2036  0.1443 -0.1122
45026W        W53626   9.460   5.087   9.757  0.0614  0.2635 -0.0219
45027W        W53627  20.753   5.977  22.615  0.1053  0.1267  0.0039
45028W        W53628  27.358   3.899  15.837 -0.1823 -0.2648 -0.0296
45029W        W53629  12.258   5.510  22.817  0.0887 -0.0418 -0.0662
45030W        W53630  13.469   2.010   8.965 -0.4470 -0.2834  0.0320
45031W        W53631  21.502   0.732  25.095  0.1357  0.5610  0.0376
45032W        W53632  13.033   6.326   9.069  0.0013 -0.3474 -0.0963
45033W        W53633  16.734   2.647  22.055  0.1241 -0.1754 -0.1617
45034W        W53634   3.699   2.964  25.253 -0.0575  0.0786 -0.0623
45035W        W53635  10.460   4.311   2.080  0.1244 -0.0837 -0.0053
45036W        W53636  21.913   3.639   7.311 -0.0348 -0.1657 -0.2782
45037W        W53637  13.718   5.412   2.347  0.2154 -0.0606 -0.2868
45038W        W53638  26.462   1.361  23.547  0.1164  0.0908 -0.2131
45039W        W53639   5.836   1.881  20.852 -0.1032  0.0939  0.3558
45040W        W53640  25.697   6.399  21.723  0.2103 -0.3425 -0.0662
45041W        W53641   8.046   6.006   2.917 -0.0112  0.1192  0.1047
45042W        W53642  11.184   5.640   9.940  0.2916 -0.1127 -0.0974
45043W        W53643  13.930   3.777   3.052  0.2000  0.0723 -0.3978
45044W        W53644   3.916   5.190  24.098 -0.0956 -0.2341 -0.0718
45045W        W53645  20.080   4.332  18.632  0.0221 -0.3674 -0.0314
45046W        W53646  20.642   0.577   5.672  0.0998 -0.0170  0.1161
45047W        W53647  26.600   3.652   9.162  0.0239  0.1304 -0.2044
45048W        W53648   9.993   3.241  17.860 -0.1897  0.0358 -0.3024
45049W        W53649  21.909   5.947  20.217  0.0280 -0.0953 -0.1605
45050W        W53650   6.726   6.976  15.884  0.0618  0.0641 -0.0111
45051W        W53651  29.544   4.354   8.970  0.1243  0.0968 -0.2017
45052W        W53652  23.195   2.586   6.606 -0.1932  0.3985  0.2986
45053W        W53653  10.613   5.005  20.384 -0.1928  0.1767  0.3545
45054W        W53654  20.334   6.037   1.544  0.0037 -0.1669 -0.0518
45055W        W53655  12.048   5.952   5.065  0.0268 -0.1129 -0.0912
45056W        W53656   0.957   2.225   8.545  0.0143 -0.0086 -0.3618
45057W        W53657   6.140   0.382  19.622 -0.1370 -0.0499 -0.1456
45058W        W53658  19.636   0.736   9.684  0.0966  0.0536  0.0182
45059W        W53659  19.246   3.572   1.700 -0.0799  0.0276 -0.0081
45060W        W53660  30.283   3.030  16.110  0.0043  0.0300 -0.2497
45061W        W53661   4.856   0.751   2.684 -0.1029 -0.1238  0.3424
45062W        W53662   5.567   1.172  21.580  0.0784  0.0008 -0.0601
45063W        W53663  28.860   0.658   0.884 -0.0909  0.1366 -0.1486
45064W        W53664  15.826   2.132   7.920 -0.0380 -0.2952  0.0405
45065W        W53665   8.115   6.883  21.913  0.0585  0.1400  0.1410
45066W        W53666  13.902   7.155   0.416  0.1156 -0.2848 -0.1676
45067W        W53667  15.843   6.410   9.224 -0.2455  0.1812  0.0947
45068W        W53668  24.486   4.580   6.348  0.3030  0.3736  0.0013
45069W        W53669   1.624   3.600   8.356 -0.2007 -0.1559 -0.3346
45070W        W53670  25.491   1.279  23.857 -0.0925  0.1679  0.5090
45071W        W53671   9.826   6.021  10.094 -0.0643  0.0038 -0.1889
45072W        W53672  10.481   2.817  25.223  0.0619  0.0997 -0.0609
45073W        W53673   5.983   7.254  19.563  0.3061 -0.0437 -0.1901
45074W        W53674  23.601   6.781  10.714  0.0858  0.0313  0.0978
45075W        W53675  18.919   4.321  21.748  0.1524 -0.0364 -0.0388
45076W        W53676   1.762   2.104   9.095  0.4748  0.0072  0.1885
45077W        W53677  24.760   7.782   8.074 -0.1153 -0.0132  0.0165
45078W        W53678  31.087   7.004   3.301  0.0432  0.1079 -0.0264
45079W        W53679  30.396   5.670  24.312 -0.0237  0.1271  0.0745
45080W        W53680   6.186   3.621  23.322  0.0469  0.0470 -0.1357
45081W        W53681  13.925   4.455   1.687 -0.1977 -0.0215 -0.1247
45082W        W53682   9.126   7.311  19.703  0.5445 -0.0222 -0.1205
45083W        W53683   9.836   0.257  11.237 -0.3852  0.0495 -0.0628
45084W        W53684  16.329   1.861   8.114  0.0719  0.0390  0.0626
45085W        W53685  18.595   5.196   6.988 -0.0967 -0.0791  0.0711
45086W        W53686  14.523   0.666   2.417 -0.0332  0.0391  0.0951
45087W        W53687   2.888   4.017  25.798 -0.3324 -0.3054 -0.0888
45088W        W53688  26.097   7.542   8.274 -0.0278 -0.2554 -0.0962
45089W        W53689   9.255   5.498   2.432  0.1430 -0.0594 -0.2114
45090W        W53690  15.740   1.761  24.161  0.1770  0.3827  0.0141
45091W        W53691  28.390   3.597   2.517  0.1249  0.4671 -0.0252
45092W        W53692   4.258   1.113  25.677  0.0758 -0.0621 -0.1085
45093W        W53693  26.118   3.148  20.365 -0.1197 -0.0428  0.0927
45094W        W53694   1.068   1.708  18.416  0.1530 -0.0589  0.1306
45095W        W53695   7.973   5.219   4.824 -0.0496  0.0910 -0.0815
45096W        W53696  23.603   1.976   4.707  0.1058  0.0367 -0.0687
45097W        W53697  19.540   3.734   6.665 -0.2474  0.0320 -0.2114
45098W        W53698   3.371   7.720   2.146  0.2764 -0.1952  0.0373
45099W        W53699   0.195   7.611  21.157 -0.0302 -0.3169  0.0817
45100W        W53700  17.156   7.525  18.351 -0.0055  0.0044 -0.1710
45101W        W53701  28.642   0.815  10.704 -0.0759  0.2786  0.3173
45102W        W53702  21.838   0.966   8.626 -0.2006 -0.4892 -0.1764
45103W        W53703  19.650   0.749   1.455 -0.0103 -0.1470  0.0380
45104W        W53704   7.733   7.657  26.156  0.2947  0.1524 -0.1049
45105W        W53705  14.118   5.899   5.250  0.0225 -0.2060 -0.1333
45106W        W53706  22.154   6.599  21.342  0.1356  0.0127  0.0182
45107W        W53707  26.546   0.004   2.397 -0.0181 -0.0807 -0.2576
45108W        W53708  17.600   0.244  22.443 -0.0163 -0.1769 -0.1731
45109W        W53709   8.629   2.720  21.998  0.0772  0.0363  0.0997
45110W        W53710   0.205   1.476   4.404 -0.0680 -0.1003  0.0702
45111W        W53711   6.407   1.714   9.656  0.0085  0.1848  0.0931
45112W        W53712  27.588   4.012   3.724  0.1310  0.4598 -0.1379
45113W        W53713  11.984   2.098  15.376 -0.0447 -0.0653  0.1129
45114W        W53714  30.500   4.700  21.162  0.0576 -0.2722  0.3679
45115W        W53715  17.565   4.199  21.758  0.1656 -0.2728 -0.1589
45116W        W53716   6.606   2.214  20.625 -0.0683  0.1316 -0.0980
45117W        W53717  16.989   5.928   6.556  0.3936  0.1398  0.1385
45118W        W53718  28.395   5.147  22.994  0.1966 -0.0125 -0.1897
45119W        W53719  20.263   3.602   2.794  0.2825  0.0312 -0.1724
45120W        W53720  11.486   7.196  19.091 -0.1961  0.1509  0.4694
45121W        W53721  13.326   4.115  18.747 -0.3506 -0.0470 -0.0779
45122W        W53722   6.375   3.375   3.631  0.0215 -0.2054 -0.3293
45123W        W53723  13.104   1.176   3.294  0.6284  0.2630  0.1216
45124W        W53724   0.383   4.249  18.903  0.0610 -0.2412 -0.0412
45125W        W53725   2.389   6.569   7.941 -0.1930 -0.2953 -0.0498
45126W        W53726  26.355   7.228  10.091 -0.0496 -0.0728  0.2713
45127W        W53727  14.561   4.274  19.634 -0.0458  0.0156 -0.2368
45128W        W53728  11.329   4.081  22.425  0.1220 -0.3960  0.0110
45129W        W53729  20.116   0.350   4.941  0.2349  0.2651  0.1807
45130W        W53730   1.985   7.072  22.114  0.2717  0.0119  0.0919
45131W        W53731   0.467   1.245  25.793 -0.1691  0.2282  0.1530
45132W        W53732   0.736   2.372  16.519 -0.0644  0.3776  0.2041
45133W        W53733   6.623   3.533  21.756  0.1478 -0.2567 -0.1038
45134W        W53734  26.547   5.739  10.138  0.0224  0.3545  0.3233
45135W        W53735  23.737   5.746  24.124  0.0037  0.1240  0.0559
45136W        W53736  18.400   2.499  21.627  0.0226  0.1625  0.1240
45137W        W53737   4.270   3.924  19.908  0.0617 -0.1256 -0.3525
45138W        W53738  13.727   6.950   2.857 -0.0280  0.0137  0.0431
45139W        W53739  29.711   1.157   6.860  0.3359 -0.3212 -0.0346
45140W        W53740  27.862   6.413   0.485  0.0568 -0.1152 -0.0596
45141W        W53741  17.589   2.514   7.810 -0.1389 -0.1901  0.1317
45142W        W53742   5.779   7.746  20.290 -0.1098 -0.0407 -0.0384
45143W        W53743  22.183   1.343   0.858 -0.2949  0.2853  0.2503
45144W        W53744  23.436   0.730   4.502  0.3272  0.0042 -0.0133
45145W        W53745  28.188   3.894   5.951 -0.2058  0.4458  0.0708
45146W        W53746  26.742   1.972  22.309 -0.0945  0.1919  0.2684
45147W        W53747  22.342   4.180   6.067 -0.2711  0.0579  0.0489
45148W        W53748  14.099   3.026  20.316 -0.1097 -0.5819  0.0109
45149W        W53749   1.696   6.728  23.642  0.4101  0.1037 -0.0405
45150W        W53750  24.866   6.283  21.208 -0.2919  0.0802 -0.1339
45151W        W53751  26.471   2.586  10.930 -0.0444  0.0416 -0.4854
45152W        W53752   8.241   1.417   8.303  0.2395  0.0296  0.2230
45153W        W53753  23.428   3.473   1.624  0.1337  0.1784  0.1603
45154W        W53754   1.829   0.766  22.856 -0.1332 -0.0105  0.0451
45155W        W53755  11.978   5.334   7.206 -0.1498 -0.4046 -0.0808
45156W        W53756  26.378   4.835  17.485  0.1882 -0.2137 -0.1368
45157W        W53757  23.795   5.175  18.675 -0.1170 -0.2628  0.1025
45158W        W53758  14.064   7.754  20.886  0.1553 -0.4008  0.0230
45159W        W53759   7.826   5.455  25.186 -0.4174  0.0348  0.1738
45160W        W53760  26.470   0.566  21.306 -0.2374 -0.0194 -0.0794
45161W        W53761  17.614   7.672   7.282 -0.0521  0.1177 -0.1097
45162W        W53762  27.895   3.695   2.034 -0.0885  0.2212  0.1702
45163W        W53763  14.508   4.129  16.000  0.1048 -0.0708  0.0869
45164W        W53764  16.121   6.368   8.076 -0.0126  0.0624  0.0465
45165W        W53765  30.052   0.637  24.806  0.1075 -0.0044  0.2032
45166W        W53766  27.708   5.231   7.176  0.4134 -0.0187  0.0826
45167W        W53767  24.853   3.495  24.118  0.0302 -0.2490  0.6842
45168W        W53768  13.691   5.536   5.252  0.2951 -0.0849 -0.1734
45169W        W53769  28.625   6.066   7.215  0.0070 -0.0672 -0.3105
45170W        W53770  24.695   1.934  18.926 -0.2475  0.2170  0.2615
45171W        W53771  24.630   2.872  16.795  0.2854  0.2566  0.0642
45172W        W53772  15.989   1.439  26.085 -0.1043  0.1997 -0.0838
45173W        W53773  10.699   6.286   6.334  0.2209 -0.0684 -0.0400
45174W        W53774  24.699   4.997  17.139 -0.2338 -0.1195 -0.0035
45175W        W53775  16.226   1.908  20.675 -0.2950  0.0332 -0.0646
45176W        W53776  15.849   4.501  18.767 -0.0450  0.0378  0.0933
45177W        W53777  29.258   5.022  24.345 -0.1003  0.1540  0.0503
45178W        W53778   0.561   6.018   6.141  0.1071  0.0840  0.0761
45179W        W53779  10.841   5.727   2.041 -0.1454 -0.2607  0.1907
45180W        W53780   1.437   0.840   8.281  0.0624 -0.2451 -0.0179
45181W        W53781   5.943   0.097  26.248 -0.1503 -0.0616 -0.2471
45182W        W53782   3.070   4.731  20.761  0.0802 -0.3911 -0.2418
45183W        W53783  29.038   4.790   8.736  0.1337  0.0526  0.0036
45184W        W53784  27.473   5.065   0.930  0.0752 -0.0466 -0.1856
45185W        W53785  21.026   4.563  18.846 -0.2324  0.1866 -0.1908
45186W        W53786  28.023   6.125  16.530  0.0591  0.0665 -0.1514
45187W        W53787  18.294   5.440   3.985  0.0572 -0.1718  0.2633
45188W        W53788  11.692   7.532  26.245  0.2138  0.0007  0.0872
45189W        W53789   7.366   4.224  10.480 -0.2455  0.3860 -0.0532
45190W        W53790  25.133   4.171  24.647  0.1572  0.1016  0.0925
45191W        W53791  26.794   0.721  22.566 -0.0703  0.1012  0.1205
45192W        W53792  12.025   3.484  11.049  0.1826  0.0564 -0.1400
45193W        W53793  19.369   3.871  21.146  0.2291 -0.0220 -0.0234
45194W        W53794  27.736   6.000   6.963  0.0754  0.2065  0.0748
45195W        W53795  29.263   0.896  24.622  0.3348  0.0308  0.2014
45196W        W53796  16.664   6.123  22.797  0.0180 -0.0831 -0.2461
45197W        W53797  22.442   1.693  22.258 -0.4376 -0.1015  0.3170
45198W        W53798  21.403   3.425  25.765 -0.1476  0.2288 -0.0580
45199W        W53799  25.303   5.634  24.994  0.0235 -0.1005 -0.0226
45200W        W53800   5.923   4.599  10.851 -0.3234  0.4114  0.1210
45201W        W53801   7.715   6.264  22.877 -0.2668  0.1382  0.0487
45202W        W53802  15.650   6.622  22.900  0.1903  0.3111 -0.3114
45203W        W53803  17.973   4.055   1.183 -0.0401 -0.1505 -0.1748
45204W        W53804  14.047   5.265  15.907  0.1120 -0.1507 -0.1068
45205W        W53805   9.269   7.228  20.653 -0.0395  0.1151 -0.1143
45206W        W53806   1.039   7.300  22.663  0.0050  0.1466  0.1938
45207W        W53807  17.536   1.362  22.988  0.2446 -0.2324  0.1798
45208W        W53808  18.573   3.810   7.069 -0.0004 -0.2350  0.1070
45209W        W53809  11.068   4.761   9.658 -0.0006  0.2260  0.0429
45210W        W53810  10.968   0.211  17.701  0.1763  0.1649  0.0075
45211W        W53811  30.561   7.355   0.870  0.0601  0.0322 -0.2583
45212W        W53812  13.361   5.745  22.788  0.0444 -0.2231 -0.1083
45213W        W53813  30.420   6.710   6.073  0.2024 -0.1583  0.0916
45214W        W53814   6.010   2.674   8.559  0.0989  0.2739  0.4031
45215W        W53815  16.130   6.110  21.294 -0.1287  0.2732 -0.4436
45216W        W53816  17.947   0.538   9.037 -0.2469  0.1199 -0.1847
45217W        W53817  13.977   0.282  24.162  0.1505  0.0033  0.0662
45218W        W53818  30.074   4.385   9.335 -0.1644 -0.3870 -0.1191
45219W        W53819  25.276   4.959  22.823  0.1844 -0.1871  0.0163
45220W        W53820  17.173   4.410   9.101 -0.2345 -0.0691 -0.1203
45221W        W53821   9.237   5.603  17.220 -0.3500 -0.3528 -0.2499
45222W        W53822  15.967   3.765   2.058 -0.3142 -0.0760 -0.0129
45223W        W53823   2.321   4.248   3.220 -0.0534  0.2799 -0.0944
45224W        W53824  10.624   2.276  23.423 -0.1439 -0.0430  0.1406
45225W        W53825  30.034   3.142   5.097 -0.0662 -0.4320  0.3553
45226W        W53826   0.846   2.007   8.106  0.0396  0.1783 -0.0246
45227W        W53827   8.332   5.817  21.843 -0.1649  0.0082 -0.2107
45228W        W53828  18.365   3.206  25.887 -0.3123  0.3688 -0.1523
45229W        W53829  11.318   3.098   3.213  0.0421  0.1838  0.1725
45230W        W53830   6.483   0.507  17.855 -0.0942  0.3624 -0.1584
45231W        W53831  24.726   5.290  20.919  0.1840  0.1910 -0.0023
45232W        W53832   2.704   6.651   2.754 -0.0059  0.0247 -0.2140
45233W        W53833   3.318   0.635  18.574  0.0274  0.0202  0.0073
45234W        W53834   4.277   2.577  22.795  0.3612  0.1269 -0.1402
45235W        W53835  14.482   6.822  19.571 -0.2254  0.1230  0.4279
45236W        W53836  17.908   6.194   8.643  0.0334 -0.2049 -0.3675
45237W        W53837   6.003   7.718   6.245  0.0028 -0.2483  0.0643
45238W        W53838   1.619   4.322  10.254 -0.1262  0.2899  0.2176
45239W        W53839  16.042   3.742  16.196 -0.1546  0.0876 -0.2169
45240W        W53840  18.940   0.185   2.359  0.0969 -0.1279 -0.0940
45241W        W53841   1.180   3.226  17.275  0.0906 -0.1007  0.0930
45242W        W53842  11.435   3.656  10.147  0.2351  0.2462 -0.0057
45243W        W53843   3.305   4.204  19.790 -0.0336  0.2468  0.0221
45244W        W53844  11.867   7.647  20.455  0.0012  0.1180 -0.0811
45245W        W53845   0.380   2.310   9.293  0.0596 -0.0009  0.0116
45246W        W53846   7.772   0.054  17.437  0.1703  0.0557  0.0954
45247W        W53847  18.939   4.970   7.934 -0.1759 -0.3237 -0.2092
45248W        W53848   9.953   4.813  10.540 -0.1486  0.0986  0.2901
45249W        W53849  13.353   7.127  21.606 -0.2550  0.0921 -0.2925
45250W        W53850   0.320   3.973   5.771 -0.1063 -0.2214  0.3253
45251W        W53851  13.513   0.028   5.483 -0.1840 -0.0403 -0.1155
45252W        W53852  27.262   3.527   9.705 -0.0336  0.0166  0.2349
45253W        W53853  29.966   5.095  15.387 -0.1801  0.1358 -0.1905
45254W        W53854  23.572   3.540  21.004 -0.0724  0.2333  0.1105
45255W        W53855  15.616   6.382  19.114  0.0215 -0.0375 -0.1165
45256W        W53856  15.364   0.283  25.919  0.0626  0.2097  0.2714
45257W        W53857  10.471   3.840   6.101  0.2032  0.0849 -0.1696
45258W        W53858  14.204   3.984  10.135 -0.0495  0.2478  0.0293
45259W        W53859   2.929   2.481  17.840 -0.0157  0.0329 -0.1002
45260W        W53860  12.831   4.382  25.702 -0.4485  0.1216  0.0725
45261W        W53861  16.795   7.187  17.514  0.0197 -0.1550 -0.2130
45262W        W53862   5.691   3.650  20.566  0.2233  0.2227  0.0166
45263W        W53863  29.735   6.612   1.017  0.1196  0.2586 -0.0596
45264W        W53864  28.401   5.807  16.532  0.1179 -0.5850  0.0231
45265W        W53865  18.950   2.363   4.799  0.3157  0.1064  0.0330
45266W        W53866   7.947   5.044   9.674  0.1734 -0.0836  0.2182
45267W        W53867  13.348   0.678  11.265 -0.1232 -0.2247  0.1253
45268W        W53868  30.873   7.251  25.759 -0.1560 -0.2789 -0.0654
45269W        W53869  31.186   2.710  20.415  0.2817  0.1495 -0.0228
45270W        W53870  18.921   4.837   7.028 -0.2811  0.0277 -0.0706
45271W        W53871  22.968   4.869  16.999 -0.1882 -0.0566  0.1323
45272W        W53872   2.197   2.476   0.609  0.0010 -0.2415 -0.0087
45273W        W53873   9.510   2.096  22.978  0.1504 -0.2354 -0.0986
45274W        W53874  19.434   1.706  23.976  0.1488 -0.0922 -0.2593
45275W        W53875   6.741   4.459   0.617 -0.1171  0.2824  0.0168
45276W        W53876  29.598   0.590  25.992 -0.0325  0.2322  0.3304
45277W        W53877  25.603   1.766   3.072  0.1649 -0.2803  0.0975
45278W        W53878  16.078   6.190   2.239  0.0791 -0.0363  0.1426
45279W        W53879  30.813   1.440  10.229 -0.3510 -0.0346  0.3618
45280W        W53880  28.973   0.111   8.554  0.2624  0.0598 -0.1163
45281W        W53881   2.940   3.822  17.335 -0.0948  0.2075 -0.1320
45282W        W53882   0.362   2.593   4.752  0.1846  0.1946 -0.2087
45283W        W53883  17.560   5.181  16.372 -0.2201 -0.1678 -0.0719
45284W        W53884  17.870   5.593  16.294 -0.0802  0.0881  0.1086
45285W        W53885   1.518   6.279  25.295  0.1004 -0.1269  0.0382
45286W        W53886  12.070   6.440   0.469 -0.1525 -0.0809 -0.3867
45287W        W53887  23.568   4.994   5.946  0.1567  0.2007 -0.0480
45288W        W53888  27.884   5.932   0.806 -0.1931  0.1168 -0.0723
45289W        W53889  29.612   4.038   6.970 -0.2274  0.0397 -0.0173
45290W        W53890  13.267   4.540  25.901  0.0112  0.2443  0.1332
45291W        W53891   1.435   4.240   4.891 -0.0289 -0.0259 -0.2778
45292W        W53892  26.730   2.155   6.939 -0.1232 -0.0823 -0.0875
45293W        W53893  12.512   3.199   6.744  0.0460  0.0621  0.0093
45294W        W53894  18.118   1.404   3.712 -0.2197  0.0390  0.4234
45295W        W53895   9.859   1.172  23.412  0.5362 -0.1109 -0.2103
45296W        W53896  17.803   2.023  20.171  0.0466 -0.1807 -0.0322
45297W        W53897  26.979   1.263   6.611 -0.0705 -0.2654  0.0066
45298W        W53898  13.142   7.458  16.387 -0.1492 -0.3811 -0.2170
45299W        W53899  20.696   7.560  24.787  0.0850  0.0783  0.2145
45300W        W53900  30.516   6.513  22.201 -0.5370 -0.2424  0.3316
45301W        W53901  19.772   4.235  19.641  0.0820 -0.0951 -0.0591
45302W        W53902  13.056   4.133   7.934 -0.0464 -0.0247  0.3302
45303W        W53903  22.626   0.274  19.389 -0.0491 -0.1646  0.1797
45304W        W53904   6.724   1.890  22.964  0.0489  0.2989  0.0865
45305W        W53905  25.907   6.666   7.768 -0.2240 -0.0422  0.1439
45306W        W53906  11.659   0.584   5.566 -0.2153 -0.0384  0.2511
45307W        W53907  22.705   5.561  25.190  0.2835  0.1268  0.1910
45308W        W53908  19.504   7.683   4.745 -0.0792 -0.0106  0.2165
45309W        W53909  26.496   0.824   4.420  0.4644 -0.1277 -0.0633
45310W        W53910  18.282   4.836  17.726 -0.0177  0.2000  0.0382
45311W        W53911  23.016   2.792   4.442  0.0168 -0.0141 -0.0566
45312W        W53912  29.090   4.881   5.850  0.1214  0.1187  0.2958
45313W        W53913   6.522   6.220   0.335 -0.0591 -0.1816 -0.1316
45314W        W53914   0.207   5.026  24.870  0.2953  0.0542 -0.1649
45315W        W53915   7.014   3.136   3.891  0.0417 -0.0841  0.2377
45316W        W53916  24.674   5.164  11.676  0.0836 -0.0339 -0.1754
45317W        W53917  27.302   3.119  24.171  0.4660  0.2643 -0.0471
45318W        W53918  12.323   2.973   9.022 -0.0329 -0.1195 -0.0814
45319W        W53919  29.138   1.617  20.612 -0.0459  0.1025  0.0439
45320W        W53920  26.418   5.112  10.659  0.2538  0.0356  0.0689
45321W        W53921  27.127   1.118  24.808  0.1472 -0.1039 -0.1510
45322W        W53922  22.722   1.081   7.235  0.0481 -0.0287  0.0161
45323W        W53923  29.697   6.819  20.632  0.2372  0.1799  0.4067
45324W        W53924  16.071   6.738   0.552  0.0064  0.1114 -0.1685
45325W        W53925  23.468   2.870  17.235 -0.1900  0.0784  0.1638
45326W        W53926   7.415   2.739  25.584  0.0297  0.0907 -0.2216
45327W        W53927   4.206   4.024   3.138 -0.0122 -0.0541 -0.1273
45328W        W53928  17.201   3.031  18.480  0.3542 -0.0125  0.2755
45329W        W53929  14.553   0.499   9.134 -0.4736  0.5002  0.0331
45330W        W53930  20.683   7.292   1.909  0.0601 -0.1359 -0.4862
45331W        W53931  14.350   6.289   4.559  0.0525  0.1155 -0.0440
45332W        W53932  27.101   7.511   3.846 -0.1118 -0.0907  0.0867
45333W        W53933  17.347   7.159   0.288  0.2526 -0.3023 -0.0940
45334W        W53934   5.663   2.880  19.027  0.1203  0.0343  0.2159
45335W        W53935  27.352   5.239   7.550  0.0274  0.1487 -0.0728
45336W        W53936   3.856   6.224  17.714  0.0230 -0.2760 -0.0729
45337W        W53937  10.044   6.633   0.406 -0.0940  0.1673  0.1675
45338W        W53938  17.568   3.086  23.645  0.0499  0.0758  0.1278
45339W        W53939  13.652   3.779   0.970 -0.1397 -0.1130 -0.0469
45340W        W53940  27.864   1.764   8.402  0.1618 -0.2553 -0.0812
45341W        W53941  22.207   7.234  26.002  0.2047 -0.0171 -0.0245
45342W        W53942   6.177   5.649   5.986  0.0896 -0.0003  0.0597
45343W        W53943  14.538   4.149  15.325 -0.2187  0.0336 -0.4147
45344W        W53944  21.841   2.897   8.993 -0.0939  0.1257 -0.2209
45345W        W53945  28.900   4.336  20.113 -0.0370 -0.0639 -0.0513
45346W        W53946  21.249   4.090   6.011  0.1034 -0.3474 -0.3823
45347W        W53947  13.567   5.366  25.360  0.4245  0.0323 -0.0671
45348W        W53948  21.158   2.560  23.482 -0.2086  0.1209 -0.4072
45349W        W53949  11.070   5.870   2.554 -0.3262  0.3312  0.1704
45350W        W53950  29.174   1.087  16.853 -0.0297 -0.0670  0.2080
45351W        W53951  22.815   6.690   9.286  0.2018  0.2057 -0.2069
45352W        W53952  27.871   5.801   8.262 -0.1631 -0.2555  0.2866
45353W        W53953  18.174   2.402  17.110  0.0586 -0.1630  0.0208
45354W        W53954  18.173   7.675  14.658  0.5150 -0.1184 -0.2456
45355W        W53955   4.958   4.493  18.858  0.2713  0.1180 -0.1568
45356W        W53956  15.281   5.266   5.434 -0.0275 -0.2698 -0.0852
45357W        W53957   3.798   2.783   0.245 -0.0004 -0.0764 -0.1047
45358W        W53958  10.199   6.027   9.221 -0.3103 -0.0393 -0.2707
45359W        W53959  28.369   2.092   9.124 -0.1385 -0.1422 -0.0554
45360W        W53960  29.863   7.665  18.001  0.0533  0.4090  0.1576
45361W        W53961   6.176   5.917   1.877  0.1780 -0.1973 -0.0737
45362W        W53962  28.891   4.085  15.215 -0.1534  0.1811 -0.1439
45363W        W53963  20.660   6.643  19.768  0.1604 -0.2226 -0.0847
45364W        W53964  17.990   7.527  19.177  0.0579 -0.1216 -0.2113
45365W        W53965  16.614   5.351  20.319  0.2740 -0.0404 -0.2789
45366W        W53966  22.214   5.909   8.549 -0.1291  0.1001  0.0230
45367W        W53967   9.485   2.050   7.715  0.0394  0.1648 -0.1310
45368W        W53968  18.653   2.129  21.430 -0.1272 -0.2218  0.2794
45369W        W53969  29.110   5.146   8.339 -0.0629 -0.0581 -0.2785
45370W        W53970  29.583   6.340   0.205  0.1166 -0.0944 -0.1907
45371W        W53971   2.172   7.305  19.345  0.0028  0.3330 -0.1658
45372W        W53972  12.075   7.466  23.910  0.1498 -0.0310  0.1723
45373W        W53973   8.072   3.373   1.163  0.1737 -0.3982  0.2316
45374W        W53974   9.015   4.754   4.850  0.1391  0.0133  0.0061
45375W        W53975  29.884   4.920   1.411  0.0966  0.0254 -0.1323
45376W        W53976   5.131   1.358   5.622 -0.0537 -0.1267 -0.0332
45377W        W53977  28.720   3.779  10.294  0.0899  0.1323 -0.1989
45378W        W53978   8.209   3.792   4.547 -0.1479 -0.1253 -0.0320
45379W        W53979  16.291   4.905   2.440  0.0140  0.1487  0.1982
45380W        W53980   7.632   5.012   6.011  0.0529  0.0333 -0.1738
45381W        W53981   3.861   5.897  21.485 -0.2157  0.2928 -0.0233
45382W        W53982   8.837   7.223   0.888 -0.1261  0.0583 -0.0500
45383W        W53983  30.198   4.019  20.816 -0.0283  0.0339 -0.3520
45384W        W53984  18.481   5.608   7.324 -0.2835  0.2788  0.0846
45385W        W53985   3.473   4.771   5.632  0.1160  0.1087  0.0276
45386W        W53986  12.981   7.322   1.759  0.0704 -0.1428  0.1130
45387W        W53987  21.236   4.615   7.798 -0.1251 -0.0188 -0.0721
45388W        W53988  29.636   5.041  23.343 -0.1873 -0.3204 -0.0279
45389W        W53989  19.255   5.076   3.253 -0.2964  0.2009 -0.3686
45390W        W53990  14.254   5.833  19.784 -0.0555 -0.0996 -0.2016
45391W        W53991  10.830   1.058   8.636  0.0038 -0.0681  0.1290
45392W        W53992   0.474   1.430   7.230  0.4946 -0.1622 -0.1377
45393W        W53993  29.554   0.010   5.525 -0.0444 -0.2305  0.2049
45394W        W53994  15.819   3.920  15.780  0.1474  0.0933  0.0331
45395W        W53995  15.445   1.763   0.842  0.1040  0.0668 -0.1148
45396W        W53996  19.555   6.876  10.301  0.2455  0.1882  0.0209
45397W        W53997  25.357   7.481   8.591  0.1550  0.0187  0.1376
45398W        W53998  25.448   6.858   0.852 -0.0448 -0.1814 -0.1918
45399W        W53999   5.057   2.372  20.757  0.1968 -0.1178 -0.1012
45400W        W54000  18.707   0.069   9.639 -0.0443  0.3273 -0.0640
45401W        W54001  21.797   3.126  15.848 -0.2211  0.1773  0.0497
45402W        W54002  15.650   7.780  11.121  0.1611  0.2189  0.0222
45403W        W54003  16.683   2.550  17.278  0.2525  0.1335 -0.1789
45404W        W54004   7.833   3.061   4.173  0.1712  0.1313 -0.0307
45405W        W54005  16.404   3.724  24.517  0.2288  0.1826 -0.0827
45406W        W54006  23.136   3.950   2.929 -0.0596  0.1466  0.0810
45407W        W54007   8.158   1.644   1.377 -0.0116 -0.0868 -0.2259
45408W        W54008  24.715   1.929   2.349  0.2822 -0.1125 -0.0999
45409W        W54009  24.943   7.216  15.513  0.0652 -0.0238  0.0829
45410W        W54010  19.887   3.479  19.674  0.0353  0.1992  0.1437
45411W        W54011   1.670   0.935   7.384  0.3100 -0.1117  0.1371
45412W        W54012  16.822   4.424  24.856 -0.4273 -0.1255  0.1094
45413W        W54013  19.626   5.561  20.792  0.1032 -0.1314  0.1106
45414W        W54014  10.953   6.909   4.313 -0.2150 -0.1036 -0.0973
45415W        W54015   6.465   2.568  25.841 -0.0934 -0.0656 -0.0244
45416W        W54016  23.431   5.747   3.451  0.1313  0.1351 -0.0420
45417W        W54017  26.620   2.416  19.786  0.2552  0.0862 -0.0474
45418W        W54018  23.313   3.550   2.539  0.0645  0.1361 -0.1061
45419W        W54019  23.076   1.406  22.608 -0.3494  0.1944  0.0288
45420W        W54020  29.528   1.881  16.504 -0.2464 -0.0319  0.2482
45421W        W54021  12.601   7.557  21.814  0.1437  0.1877  0.0572
45422W        W54022  29.687   1.148  15.935 -0.3289 -0.0095 -0.0297
45423W        W54023  13.454   5.911  14.888 -0.2199  0.1509 -0.0774
45424W        W54024   9.389   5.197  11.219 -0.1673  0.0057 -0.0433
45425W        W54025  18.755   0.516   9.457  0.2708 -0.1223  0.1856
45426W        W54026  28.463   4.436  19.853 -0.0552 -0.0231 -0.1174
45427W        W54027   4.722   7.253   7.122  0.1471 -0.0555  0.2703
45428W        W54028  31.190   6.781   5.600 -0.1796 -0.3000  0.0435
45429W        W54029   3.720   7.693  25.065  0.0042  0.0777  0.2293
45430W        W54030   4.673   5.981  19.890 -0.0774  0.2206  0.1253
45431W        W54031   4.671   2.290  18.868  0.0176 -0.1299 -0.0388
45432W        W54032   8.408   3.529   8.771 -0.0546 -0.2390 -0.2792
45433W        W54033  23.466   4.123   0.535  0.1836 -0.0690  0.0068
45434W        W54034   2.888   4.224   1.046 -0.2540  0.1102  0.0405
45435W        W54035  31.026   5.914  18.085  0.0777  0.1909  0.0731
45436W        W54036  12.194   1.174  24.609 -0.0732 -0.0998  0.2836
45437W        W54037  28.878   6.340  17.140  0.1854 -0.3401  0.0280
45438W        W54038  29.143   2.585   0.686  0.4611  0.2163 -0.2046
45439W        W54039  25.256   3.494  17.884  0.1668 -0.1605 -0.2151
45440W        W54040   0.673   6.162   9.262 -0.0032 -0.0695  0.0055
45441W        W54041  10.483   4.910   9.628  0.1009  0.2248  0.0561
45442W        W54042  21.795   4.812   4.401  0.0035  0.1712  0.0637
45443W        W54043  25.243   1.494   2.142 -0.1942  0.3253 -0.1578
45444W        W54044  24.418   2.095  16.516  0.0319 -0.0342 -0.1312
45445W        W54045  20.292   7.055   7.715  0.0615 -0.0356 -0.0183
45446W        W54046   2.560   7.282   1.092  0.2923 -0.1859 -0.1403
45447W        W54047   4.468   6.433   3.338 -0.1338  0.4168  0.0228
45448W        W54048  17.352   1.345  22.481 -0.1041 -0.2174  0.4272
45449W        W54049  30.043   0.206  25.465 -0.1037 -0.0006 -0.1038
45450W        W54050  15.692   4.865  10.536  0.0252  0.1880 -0.3056
45451W        W54051  17.174   6.381  11.176 -0.0289  0.0294  0.1016
45452W        W54052  12.501   3.644  23.968 -0.0976 -0.0146 -0.0698
45453W        W54053  13.566   4.756   9.695 -0.0273  0.2123 -0.0505
45454W        W54054  28.278   0.634  17.933  0.0706 -0.0791 -0.0004
45455W        W54055  26.079   5.861  15.983 -0.1058  0.2327 -0.2110
45456W        W54056  26.366   0.827   1.430  0.3459  0.2592 -0.3080
45457W        W54057  28.122   5.002  16.562  0.0941  0.2418 -0.0380
45458W        W54058  17.225   0.131   2.087 -0.1655 -0.0769  0.2486
45459W        W54059   8.987   1.643   0.121 -0.0613  0.0621 -0.2751
45460W        W54060  15.362   1.550  18.831 -0.0504 -0.0892  0.2985
45461W        W54061  28.893   7.336  17.473 -0.0621 -0.0487 -0.1232
45462W        W54062   6.454   3.798  19.636  0.0700 -0.1740  0.2715
45463W        W54063  23.537   7.012  10.313 -0.3923  0.1568 -0.1176
45464W        W54064   3.409   1.389   9.390 -0.0293  0.0704 -0.0506
45465W        W54065  23.660   6.199   4.624  0.1804 -0.1518 -0.1165
45466W        W54066  20.738   4.449  18.085  0.1719 -0.1234  0.1648
45467W        W54067   1.124   0.248  23.330  0.0763 -0.1305 -0.0653
45468W        W54068  17.245   7.675  22.550  0.2229  0.2152 -0.0794
45469W        W54069   7.319   2.299  18.864 -0.1361  0.1108  0.1310
45470W        W54070  22.137   4.537  21.375  0.0037 -0.3245 -0.0938
45471W        W54071  26.624   3.939  17.777  0.0881 -0.0857  0.1767
45472W        W54072  27.375   1.472  20.575 -0.0696 -0.0871 -0.0573
45473W        W54073  15.420   7.182   6.433  0.3397  0.1313  0.2316
45474W        W54074  15.862   3.405  22.983 -0.1660 -0.3304  0.1486
45475W        W54075  17.646   1.403  25.668 -0.0383  0.0990 -0.1242
45476W        W54076  19.167   1.374   8.412 -0.0309  0.1042 -0.1876
45477W        W54077  25.664   5.434   4.264  0.2266  0.1573 -0.2965
45478W        W54078  11.198   6.083   3.012  0.1052  0.0668 -0.1826
45479W        W54079  19.976   1.286   5.911 -0.0158 -0.1498  0.2119
45480W        W54080  22.764   4.296   8.837 -0.3144 -0.0688  0.2172
45481W        W54081  19.204   0.008   6.049  0.0929  0.0100  0.1228
45482W        W54082  25.740   7.119  24.167 -0.0988  0.0951  0.1963
45483W        W54083  15.501   7.340  25.334 -0.0963 -0.2025 -0.1474
45484W        W54084  16.986   5.028   4.959 -0.1191  0.2530  0.1633
45485W        W54085   6.298   5.972  25.683  0.0968  0.0085  0.2397
45486W        W54086  19.300   6.173  24.138  0.3250  0.0925 -0.1188
45487W        W54087  24.133   2.050  19.700  0.1161 -0.1449  0.0030
45488W        W54088  23.480   6.194  24.118  0.3237  0.1993 -0.0662
45489W        W54089   7.372   5.677  16.964  0.3125  0.2486 -0.0966
45490W        W54090   5.650   0.757  23.721 -0.3070 -0.1460  0.2504
45491W        W54091  27.197   0.538   0.351 -0.1341 -0.3285 -0.3710
45492W        W54092  10.472   3.760   4.301  0.3074 -0.0412 -0.2062
45493W        W54093  15.140   3.333   7.639 -0.2946 -0.0825  0.1599
45494W        W54094  10.510   4.928  25.359  0.0836  0.0217 -0.1782
45495W        W54095   6.272   1.286  25.791  0.2593 -0.0354  0.0147
45496W        W54096  15.578   1.172   8.316  0.3114  0.2624  0.0263
45497W        W54097   4.859   5.855   2.605 -0.1031  0.2201  0.1600
45498W        W54098  22.173   5.413   8.419  0.1348  0.1330 -0.1088
45499W        W54099   6.122   2.489  25.511 -0.0766  0.0510 -0.2508
45500W        W54100  20.432   4.882  21.215  0.1094 -0.2389 -0.0250
45501W        W54101   5.710   7.266   7.419  0.0310 -0.0999  0.0253
45502W        W54102  11.526   5.883   9.641  0.0175 -0.2270  0.1917
45503W        W54103  14.092   4.296   5.643  0.2436  0.3192 -0.1416
45504W        W54104  29.303   3.100  18.407  0.0444  0.1818 -0.0072
45505W        W54105  25.005   4.120  16.845 -0.1612 -0.0400 -0.1686
45506W        W54106   8.363   6.377  21.788 -0.2607 -0.2043  0.0662
45507W        W54107   4.086   4.191   0.619 -0.0276 -0.0149  0.0500
45508W        W54108  29.004   1.507   1.218  0.1986 -0.0751 -0.2751
45509W        W54109  15.869   0.550  23.359  0.1527 -0.1949  0.1723
45510W        W54110  12.802   4.748   6.081 -0.1716 -0.0187  0.0126
45511W        W54111   1.291   3.601  16.248  0.0353 -0.2034 -0.3682
45512W        W54112   6.317   4.737  10.125  0.3702 -0.1263 -0.0799
45513W        W54113   0.488   4.548  19.674  0.1293  0.0892 -0.0994
45514W        W54114  26.638   0.007  23.470  0.0157 -0.0294 -0.1322
45515W        W54115  16.362   4.192   3.321  0.1734 -0.2112  0.0076
45516W        W54116  30.367   7.046   6.942 -0.0990  0.0650  0.0189
45517W        W54117   0.793   6.142   7.745 -0.1564 -0.1817 -0.2067
45518W        W54118  17.668   0.748   7.614 -0.1928  0.0218  0.2466
45519W        W54119  19.025   4.813  20.758 -0.2367  0.0481 -0.1488
45520W        W54120  18.228   6.629  22.401  0.3144 -0.0338 -0.0460
45521W        W54121  14.990   0.995  21.438 -0.0515  0.1569 -0.1555
45522W        W54122  10.836   5.177  23.562  0.2636 -0.0950 -0.3714
45523W        W54123  19.882   5.349   4.404 -0.0572  0.0140  0.0019
45524W        W54124  24.366   2.063   7.455 -0.0505 -0.1476  0.2331
45525W        W54125   0.848   0.067   4.306 -0.0931 -0.0266 -0.0198
45526W        W54126   7.434   4.695   7.628 -0.0943  0.1292 -0.2937
45527W        W54127   7.137   6.194   6.559 -0.1339  0.1435 -0.0480
45528W        W54128   0.102   7.155  21.602 -0.1210  0.0451  0.4665
45529W        W54129  11.338   0.959   6.761  0.3194 -0.1404  0.1623
45530W        W54130  24.716   4.053  10.942 -0.0382 -0.2966 -0.2659
45531W        W54131  15.454   3.019   6.041 -0.0051 -0.0958 -0.3005
45532W        W54132   5.643   6.175  22.675 -0.1286  0.1331 -0.2046
45533W        W54133  20.513   0.349  24.855  0.0248 -0.1994 -0.0528
45534W        W54134   8.884   4.144  23.545 -0.0791  0.1280 -0.3948
45535W        W54135  20.964   4.860   0.562 -0.2511 -0.2544  0.0772
45536W        W54136  10.470   6.503  19.301 -0.1360 -0.0497  0.1577
45537W        W54137  14.122   1.130   7.062  0.1648 -0.0444 -0.0926
45538W        W54138   6.074   1.657   8.038 -0.0475  0.1015  0.1210
45539W        W54139  19.931   7.603  21.462 -0.1211 -0.0287  0.1767
45540W        W54140   1.822   4.851   8.347 -0.0546  0.0476  0.0925
45541W        W54141  29.029   5.285   9.687 -0.0717  0.2833 -0.0946
45542W        W54142  11.968   3.863  19.516  0.1006 -0.3121  0.0603
45543W        W54143   1.507   1.312  23.499  0.0058 -0.1426  0.0142
45544W        W54144  27.346   0.428   1.583  0.0379  0.0247  0.0143
45545W        W54145  23.410   4.167  20.090 -0.0855 -0.1129 -0.1780
45546W        W54146   2.377   7.337   6.073  0.0618 -0.1173 -0.1732
45547W        W54147   8.739   2.285   4.600  0.4431 -0.0122  0.0804
45548W        W54148  22.812   5.895  20.389 -0.1326  0.1667 -0.2055
45549W        W54149  21.987   4.872  25.554  0.1371 -0.1949  0.0474
45550W        W54150  24.123   1.997  10.675  0.0473 -0.0202  0.0792
45551W        W54151  28.525   2.215  21.329  0.0793  0.1417 -0.1662
45552W        W54152  14.514   0.012  22.517 -0.2215  0.2358  0.0351
45553W        W54153  12.270   0.071   9.951 -0.1256  0.0377 -0.0660
45554W        W54154  29.610   3.399  21.059 -0.0811  0.1041  0.1286
45555W        W54155  21.193   6.623  11.274 -0.1446  0.0156 -0.3379
45556W        W54156  14.761   3.796   0.108  0.1496 -0.1417 -0.1481
45557W        W54157  27.707   0.620  19.353 -0.1667  0.0087  0.2404
45558W        W54158  10.837   4.607  25.540  0.3015 -0.2795  0.2501
45559W        W54159  15.238   7.591  15.924  0.0092 -0.2014  0.0679
45560W        W54160   9.437   4.459  21.137 -0.0632  0.3293  0.2106
45561W        W54161  28.397   6.482  17.249  0.1846 -0.1200 -0.2212
45562W        W54162  15.315   3.462  19.373 -0.0905 -0.0680 -0.2078
45563W        W54163  21.802   0.294  21.176 -0.0117  0.2062  0.3078
45564W        W54164  16.784   3.598   6.414 -0.1366  0.1563  0.0569
45565W        W54165  29.070   1.485  21.554 -0.1283 -0.1898  0.1128
45566W        W54166  10.426   2.589   7.093 -0.0809 -0.0410  0.0023
45567W        W54167  14.914   1.685  11.234 -0.0536 -0.1894 -0.0314
45568W        W54168  19.761   2.375   1.886 -0.0884  0.1340  0.0424
45569W        W54169  10.991   0.226  11.613  0.1474  0.1070  0.1219
45570W        W54170  23.960   1.707   3.530  0.2901 -0.0458 -0.3716
45571W        W54171   0.076   7.798   2.156 -0.0265 -0.3135  0.1847
45572W        W54172   6.043   3.095  20.727 -0.0231  0.0045 -0.0619
45573W        W54173  28.845   2.834   4.920 -0.1732 -0.3803 -0.3223
45574W        W54174  20.853   5.579   8.595 -0.2370  0.2875  0.2370
45575W        W54175   1.603   7.629   9.796  0.1535 -0.0227  0.0722
45576W        W54176   0.175   6.308  10.605 -0.1948  0.1073  0.1565
45577W        W54177  27.140   0.728  20.799  0.3403 -0.1966 -0.0188
45578W        W54178  17.775   4.480  26.204 -0.1327  0.1492 -0.0498
45579W        W54179  14.014   2.257  16.600  0.3136  0.3448 -0.1349
45580W        W54180   5.641   2.144  19.208 -0.1860  0.1169 -0.0336
45581W        W54181  27.825   7.000  25.603 -0.1276 -0.1653  0.1350
45582W        W54182  13.811   5.946  19.032 -0.6138  0.1916  0.3261
45583W        W54183  22.566   4.316  16.990  0.1227 -0.2736  0.1341
45584W        W54184  28.497   6.232   9.023  0.5169  0.2654  0.2028
45585W        W54185   8.545   1.329  11.396 -0.3202 -0.0777 -0.0601
45586W        W54186  19.533   1.725  22.426  0.0325  0.0513  0.0399
45587W        W54187   0.942   4.718  17.551  0.4392 -0.1199 -0.0580
45588W        W54188  12.009   1.451   8.251  0.0333 -0.2811 -0.0956
45589W        W54189  19.273   0.032  20.864 -0.0284  0.0754 -0.0975
45590W        W54190  10.997   6.345  20.245  0.1531 -0.1714 -0.0114
45591W        W54191  14.903   6.304  21.876  0.3096 -0.3796 -0.1968
45592W        W54192   8.707   6.689   5.733 -0.2183 -0.0694  0.0449
45593W        W54193  14.781   6.975   9.632  0.0331  0.0677  0.0028
45594W        W54194  28.618   3.193  19.335  0.1147 -0.1980  0.1992
45595W        W54195  15.244   1.112   2.541 -0.1124 -0.3402 -0.2057
45596W        W54196  18.043   5.872   0.970  0.0635  0.2387  0.1595
45597W        W54197  13.751   3.412   5.573 -0.2282  0.0614 -0.1996
45598W        W54198  19.630   2.387   5.347  0.0821 -0.2738 -0.0560
45599W        W54199  12.867   3.867  18.425  0.0230 -0.0470  0.1596
45600W        W54200  12.638   3.272   9.903 -0.0586 -0.0645 -0.1531
45601W        W54201   7.640   6.706   6.937  0.0695 -0.0477 -0.1681
45602W        W54202  16.640   5.510  18.006 -0.1370  0.1676 -0.0121
45603W        W54203   8.987   3.034  22.213  0.1116  0.2210 -0.0835
45604W        W54204  16.103   7.332  23.753  0.0102 -0.1335 -0.1871
45605W        W54205  14.078   1.709   7.635 -0.2077 -0.0397 -0.3652
45606W        W54206   2.467   2.840   7.599  0.0138 -0.1213 -0.1018
45607W        W54207  16.071   6.298   8.610 -0.0098 -0.2961  0.2054
45608W        W54208  14.778   7.125   7.142  0.1178  0.2369  0.0313
45609W        W54209  16.976   2.236  19.940  0.0608  0.1603  0.3080
45610W        W54210   9.488   6.715   2.820 -0.0197  0.1770 -0.0350
45611W        W54211   3.697   0.175   4.194 -0.2399  0.0593 -0.0365
45612W        W54212   0.420   4.768  17.315 -0.0206  0.1173 -0.0724
45613W        W54213  23.023   1.660  10.987 -0.1419  0.1383  0.1358
45614W        W54214   6.207   1.037   3.526 -0.2808  0.2616  0.0837
45615W        W54215  22.432   4.161  11.329 -0.0252  0.1854 -0.0205
45616W        W54216  10.624   4.727  23.512  0.0010  0.2010  0.1312
45617W        W54217   3.537   3.346  25.035 -0.1596 -0.0013  0.1607
45618W        W54218  20.297   7.095   4.969 -0.2964  0.0575 -0.0463
45619W        W54219   7.043   2.764  18.598  0.2448  0.1585  0.1722
45620W        W54220   2.065   3.261  24.212  0.0844  0.2339 -0.1199
45621W        W54221  17.878   7.145   4.507  0.0119  0.2480  0.1003
45622W        W54222   2.235   4.175  25.874  0.1820 -0.0673 -0.2575
45623W        W54223   8.973   0.955  21.395 -0.2832  0.1490 -0.0129
45624W        W54224   3.939   2.054   2.364  0.1752  0.1674 -0.0575
45625W        W54225  27.297   6.141   3.454  0.0430 -0.0403 -0.2634
45626W        W54226   5.130   3.645  24.317  0.0871  0.2088  0.0974
45627W        W54227  10.706   1.058   1.970 -0.0071  0.2359 -0.0665
45628W        W54228  24.927   6.209   0.462 -0.4611 -0.0042  0.1765
45629W        W54229   1.164   2.849  17.684 -0.2230 -0.0908 -0.3087
45630W        W54230   1.313   2.381  24.442 -0.1127 -0.1149  0.2412
45631W        W54231   8.242   6.516   8.331  0.2505  0.0464  0.1687
45632W        W54232  14.203   2.326  22.982 -0.0008 -0.2310  0.0895
45633W        W54233  15.311   0.029  17.637 -0.0145  0.0699  0.3378
45634W        W54234  13.635   4.136  26.165  0.1180  0.0364  0.3568
45635W        W54235  19.514   6.906  11.458  0.1862  0.0076  0.0731
45636W        W54236  16.804   1.026  20.698  0.0820  0.2924 -0.4273
45637W        W54237  23.848   2.733  19.826 -0.0305  0.1926  0.1000
45638W        W54238  26.723   6.785   4.734 -0.0525  0.1445  0.2102
45639W        W54239  17.914   4.308   5.297  0.0964  0.3760 -0.4496
45640W        W54240  27.330   4.731  23.874  0.0609 -0.1547 -0.0625
45641W        W54241  30.879   6.905   2.696 -0.0354  0.0287  0.1682
45642W        W54242  13.672   3.386   5.068  0.1084  0.1091  0.0301
45643W        W54243  24.644   3.861   1.317 -0.0513 -0.3402 -0.0901
45644W        W54244  14.319   0.455   1.985  0.2099 -0.0876 -0.2415
45645W        W54245  20.056   2.354  22.568  0.1929  0.2133 -0.1668
45646W        W54246  12.990   5.757   2.635  0.0513  0.1525 -0.2442
45647W        W54247  24.340   3.022  22.006  0.1259 -0.0523 -0.0412
45648W        W54248  15.240   2.087   2.052 -0.3397  0.0426  0.0872
45649W        W54249   8.263   2.877  21.024  0.2483 -0.0584 -0.0286
45650W        W54250  25.095   5.582  21.773  0.0265 -0.2181  0.2572
45651W        W54251   8.760   4.812  20.562  0.1691 -0.2607 -0.2374
45652W        W54252  28.846   0.249   3.819  0.0554  0.1432 -0.2012
45653W        W54253  28.617   5.423   9.883 -0.3935 -0.0726  0.1670
45654W        W54254   1.859   1.605  18.732 -0.2093 -0.1393 -0.0275
45655W        W54255  19.588   2.087  19.806 -0.0245  0.0550 -0.0871
45656W        W54256  25.887   7.450   2.454  0.1650  0.1314  0.0177
45657W        W54257   3.587   6.608   7.109  0.3630  0.2165  0.3247
45658W        W54258  26.104   3.885  17.701  0.1355  0.1451 -0.0380
45659W        W54259  25.439   5.214  23.676 -0.1405 -0.0312  0.0115
45660W        W54260  18.285   2.766   0.485 -0.0291 -0.1382 -0.1202
45661W        W54261  31.142   2.483   7.116  0.0198  0.1291  0.0349
45662W        W54262  30.246   2.240   9.184  0.0886 -0.2195  0.2690
45663W        W54263  19.483   1.392  25.190 -0.1412 -0.2809 -0.0739
45664W        W54264   2.207   0.204   8.718 -0.0427 -0.0606  0.0486
45665W        W54265   5.580   5.259  20.223 -0.5910  0.3487  0.0958
45666W        W54266  20.798   0.168   9.873 -0.1118 -0.1548 -0.1568
45667W        W54267  12.720   0.979   8.287  0.0019 -0.1014  0.0109
45668W        W54268   6.538   6.054  21.621 -0.0099 -0.4062  0.2071
45669W        W54269   5.121   0.475  22.320 -0.2238  0.0759  0.1405
45670W        W54270  11.251   2.236  26.372  0.0695 -0.3734 -0.0097
45671W        W54271  15.178   3.237  18.685  0.2127  0.0902 -0.0974
45672W        W54272   1.290   2.277  19.020 -0.2450 -0.1216  0.0904
45673W        W54273  25.657   6.774  22.442  0.3459 -0.0246 -0.0857
45674W        W54274   4.205   4.815   2.012 -0.1845 -0.3237 -0.2298
45675W        W54275  24.101   2.836   5.652 -0.1623  0.1051 -0.1213
45676W        W54276  24.458   4.211   9.227  0.2499 -0.0162 -0.4578
45677W        W54277  30.153   4.651   4.689 -0.1256 -0.0898 -0.0845
45678W        W54278  21.443   0.149  17.200 -0.1423  0.1810  0.1414
45679W        W54279  15.897   1.761   1.516  0.0877 -0.2007  0.0580
45680W        W54280  31.159   5.548   4.810 -0.1501 -0.2295 -0.0979
45681W        W54281  18.932   3.381  10.666 -0.3541  0.0665  0.0952
45682W        W54282   7.828   3.903   3.644 -0.0461 -0.2304  0.1161
45683W        W54283   1.628   4.108   7.260 -0.1988 -0.0835  0.0408
45684W        W54284   0.822   1.351  18.810 -0.1208  0.1427  0.0892
45685W        W54285   7.300   1.061   5.688 -0.3286 -0.0463 -0.1426
45686W        W54286   4.407   3.180  21.978 -0.1920  0.2088  0.0419
45687W        W54287  20.249   2.885   6.262 -0.1541 -0.1349 -0.1193
45688W        W54288  23.401   6.203  25.516  0.0777  0.1190  0.1880
45689W        W54289  16.819   2.078   8.009 -0.1619 -0.4121  0.0322
45690W        W54290  21.940   5.624  17.951  0.1948 -0.2135  0.1673
45691W        W54291  13.515   6.454   0.947 -0.1082 -0.0087 -0.1056
45692W        W54292   7.771   1.795   4.488 -0.3685  0.0161 -0.0570
45693W        W54293   7.349   4.368   8.535 -0.1063  0.2040 -0.1916
45694W        W54294  25.909   1.370  25.190  0.1229  0.0432 -0.1467
45695W        W54295   3.446   7.356   7.600 -0.2509  0.3956 -0.1394
45696W        W54296  17.592   7.498  18.154 -0.1033  0.0225 -0.1170
45697W        W54297  28.283   5.629   0.846 -0.1628 -0.2461 -0.1456
45698W        W54298  10.865   0.064  10.242 -0.3395  0.0623  0.1905
45699W        W54299  28.179   3.701   9.182  0.0656  0.0987  0.0640
45700W        W54300   8.931   0.625  22.292 -0.1631  0.2298  0.3053
45701W        W54301  12.960   7.524  23.748  0.1949  0.0036 -0.0523
45702W        W54302   8.766   3.178  24.562 -0.2114  0.0714 -0.0786
45703W        W54303  15.336   3.280  21.389  0.1335 -0.4776 -0.2425
45704W        W54304  22.094   3.975  21.367  0.1483  0.0831 -0.4200
45705W        W54305  25.037   4.283  15.555 -0.1508  0.1113  0.4642
45706W        W54306  12.938   4.670  22.812  0.1805  0.1515  0.0162
45707W        W54307  12.881   4.093  24.284 -0.1698  0.0854 -0.1875
45708W        W54308  22.495   5.205  15.739 -0.1013  0.4660  0.3587
45709W        W54309   2.813   1.001  26.345 -0.2500 -0.1208 -0.2765
45710W        W54310  19.896   1.709  18.475  0.1134  0.0541  0.3550
45711W        W54311  24.673   6.469  18.758 -0.0668 -0.1881 -0.0154
45712W        W54312  14.271   1.833   0.670  0.1635  0.2066 -0.1566
45713W        W54313  23.232   4.770  25.935 -0.2468 -0.0665  0.2065
45714W        W54314  23.149   3.970   5.270  0.1147  0.1065 -0.0382
45715W        W54315   0.408   4.482   8.321  0.0584  0.0804  0.0841
45716W        W54316  28.055   3.188   6.788  0.3061  0.2124  0.0714
45717W        W54317   2.678   7.172  22.207  0.2309 -0.1723 -0.1164
45718W        W54318   0.452   7.310  22.991 -0.0654 -0.3744  0.2923
45719W        W54319  25.335   5.816   2.858 -0.0014 -0.0471 -0.0380
45720W        W54320  27.700   2.344  16.824 -0.1754  0.1096  0.0531
45721W        W54321  17.848   3.586  18.994  0.4887  0.0476 -0.1384
45722W        W54322  24.813   0.535  16.719 -0.0667  0.0598  0.0395
45723W        W54323   3.102   5.441   2.925  0.2747  0.3112  0.3050
45724W        W54324  26.611   4.033   2.309  0.1537 -0.0535 -0.1050
45725W        W54325  18.061   7.702  19.866 -0.1341 -0.0267 -0.3497
45726W        W54326  12.499   2.454  22.530  0.0477 -0.0326  0.1824
45727W        W54327  29.114   2.020  16.887  0.0918  0.0373  0.0996
45728W        W54328  22.333   4.986  21.561 -0.1193 -0.0715 -0.2119
45729W        W54329  13.677   3.769  20.778  0.2641 -0.1083  0.3177
45730W        W54330  22.777   4.715  23.464  0.0785 -0.1107  0.2212
45731W        W54331  13.209   5.375   2.105  0.0367 -0.0346 -0.2273
45732W        W54332  24.053   7.717  18.630  0.1652 -0.1674  0.0753
45733W        W54333  19.823   4.352   1.467 -0.0456  0.0220  0.0327
45734W        W54334  14.855   7.166  14.983 -0.0458 -0.0019  0.1923
45735W        W54335  22.950   0.624  10.835 -0.0084  0.1531  0.1339
45736W        W54336  19.723   3.154  22.131  0.3117 -0.0449  0.0550
45737W        W54337  29.182   1.584  18.889 -0.2913 -0.1760  0.1651
45738W        W54338  18.942   2.921   3.384  0.0275 -0.1617  0.0875
45739W        W54339   0.914   3.812   3.386  0.0698 -0.2751 -0.2988
45740W        W54340   1.008   2.419  26.265  0.1913  0.4782  0.0755
45741W        W54341  19.635   1.794   7.711 -0.1331  0.2137 -0.0767
45742W        W54342  11.587   4.415  19.967  0.0522  0.0522  0.0465
45743W        W54343  26.582   3.148  19.670 -0.0332  0.0531  0.1303
45744W        W54344  30.040   4.757  23.101  0.1603 -0.0123 -0.1358
45745W        W54345  20.261   0.029   6.235 -0.1168  0.0258  0.0965
45746W        W54346   4.546   4.426   1.938 -0.0881  0.0321 -0.1058
45747W        W54347  26.926   2.941  19.999 -0.1005  0.1063 -0.1020
45748W        W54348  25.252   2.054  20.541  0.1382 -0.0183 -0.2875
45749W        W54349  30.326   4.090  18.019  0.0206 -0.2409  0.1878
45750W        W54350  10.068   2.419  21.966 -0.1175  0.2251 -0.0767
45751W        W54351  14.202   2.512  10.159 -0.4157 -0.1688 -0.3938
45752W        W54352  28.944   6.270  17.948  0.0749 -0.3924 -0.1881
45753W        W54353  12.378   5.543  21.122  0.1152 -0.3055  0.0521
45754W        W54354   4.663   7.133  19.723 -0.1415  0.1423  0.0606
45755W        W54355  17.284   4.955   6.498 -0.2471 -0.1738  0.0263
45756W        W54356  10.886   0.196   6.204 -0.2617 -0.1772  0.0983
45757W        W54357  18.835   5.015   2.553 -0.0548 -0.0260  0.0228
45758W        W54358   3.433   0.240  14.787 -0.2128  0.4676 -0.0648
45759W        W54359   7.667   4.043  25.610 -0.5023 -0.1162 -0.1356
45760W        W54360  10.795   6.092  19.330 -0.0586 -0.0393  0.0938
45761W        W54361   5.076   0.280   6.445  0.0933  0.2386 -0.0528
45762W        W54362   6.318   2.668   7.592  0.0307 -0.2115  0.0288
45763W        W54363  22.469   4.969  16.318 -0.2111  0.0020 -0.1045
45764W        W54364   1.101   3.692  18.547 -0.0868 -0.0781 -0.0936
45765W        W54365  14.795   5.752  10.422 -0.0355  0.0792 -0.0905
45766W        W54366   8.671   6.099   4.812  0.1521 -0.0106  0.1499
45767W        W54367   7.464   4.933   3.949 -0.0261  0.1345  0.4066
45768W        W54368  15.890   0.723   2.773 -0.0338 -0.1866 -0.0947
45769W        W54369   5.366   2.089  26.371 -0.1651 -0.0107  0.1969
45770W        W54370   6.863   3.554   7.491  0.0619  0.1242 -0.1014
45771W        W54371  23.252   5.958   0.756  0.0862 -0.0229  0.0011
45772W        W54372   1.925   2.877  22.511 -0.2695 -0.0944 -0.0526
45773W        W54373   2.327   0.535   8.277  0.2379  0.1597  0.3157
45774W        W54374  14.335   2.743  19.269  0.0159  0.0792 -0.0245
45775W        W54375  19.789   6.390  23.139  0.3250  0.1824 -0.0851
45776W        W54376  19.459   6.146   7.573  0.2776 -0.1786  0.1726
45777W        W54377  16.494   5.442   7.986  0.1237 -0.1950 -0.0115
45778W        W54378  26.935   2.735  16.171  0.2598  0.2035  0.0497
45779W        W54379   0.507   3.632   7.052  0.1958 -0.1440  0.4383
45780W        W54380  11.859   6.764   8.337  0.0922  0.1651  0.0900
45781W        W54381   3.615   7.404   4.963 -0.1765 -0.0799  0.1302
45782W        W54382  13.302   6.819   0.758 -0.0675 -0.2560 -0.4328
45783W        W54383  23.459   2.593  19.377  0.1150 -0.0737  0.0314
45784W        W54384  15.731   2.411  21.270 -0.0370  0.1929  0.1605
45785W        W54385  24.718   2.351  15.767 -0.1906  0.1503  0.2069
45786W        W54386  26.533   5.872  21.888 -0.0333  0.1019  0.1261
45787W        W54387  14.363   0.066  17.568 -0.1307 -0.0987 -0.0424
45788W        W54388  17.126   3.781   0.690 -0.0543  0.0111  0.3987
45789W        W54389  10.044   2.348  21.445  0.2529  0.1181  0.1362
45790W        W54390   2.828   2.674  24.484  0.1279 -0.1246 -0.2264
45791W        W54391   8.503   2.348   9.594 -0.2252  0.1999 -0.1470
45792W        W54392  25.201   1.435   6.150 -0.1458  0.0833 -0.0121
45793W        W54393   6.319   2.256   5.461 -0.1892 -0.2437 -0.2732
45794W        W54394  15.220   1.635  17.967 -0.1678 -0.4470  0.0473
45795W        W54395  14.766   1.018   0.743 -0.0727  0.1880  0.0413
45796W        W54396  27.594   4.353  19.219 -0.0757  0.1057  0.1458
45797W        W54397  15.468   1.057  21.368  0.1912 -0.0071  0.1142
45798W        W54398   4.425   3.134  17.101  0.2330  0.0134 -0.0144
45799W        W54399   1.852   2.589  22.858  0.2366 -0.1098  0.1774
45800W        W54400  15.277   1.052  26.359 -0.1316 -0.1547  0.2459
45801W        W54401   2.343   1.156  23.369  0.1775  0.0290 -0.1758
45802W        W54402  21.153   0.005  10.205  0.0507  0.4248  0.0441
45803W        W54403  17.662   5.792  24.330  0.0097  0.0732 -0.1589
45804W        W54404  18.998   7.734   8.655 -0.0112  0.3269 -0.0101
45805W        W54405  17.115   4.133  17.956 -0.1645 -0.0639  0.1161
45806W        W54406  14.994   2.263  24.546  0.0231  0.0020 -0.4636
45807W        W54407  15.166   6.218  15.165  0.1576  0.0288  0.0452
45808W        W54408  17.837   0.580   8.104 -0.0460  0.1707 -0.0258
45809W        W54409  12.505   3.394   7.914 -0.0053 -0.2499 -0.0455
45810W        W54410   2.968   6.277   9.984  0.2941  0.2151  0.0019
45811W        W54411  13.908   6.571  10.259  0.0023  0.0717 -0.0670
45812W        W54412  15.527   3.437   5.187  0.0660  0.0628  0.0509
45813W        W54413  22.672   3.938   9.260 -0.3540  0.1766  0.0667
45814W        W54414  16.757   0.035  15.571 -0.0192  0.4381 -0.0405
45815W        W54415  28.881   2.472  10.593 -0.0100  0.1769 -0.1296
45816W        W54416  22.152   4.880  20.224  0.1179  0.1770  0.2505
45817W        W54417  16.593   0.433   3.483 -0.0418  0.1278 -0.3276
45818W        W54418  20.508   6.757  21.518  0.3834  0.0694 -0.1112
45819W        W54419   0.906   0.782   8.599  0.1690  0.1773  0.0940
45820W        W54420   4.342   0.604  23.948 -0.0650 -0.0746  0.0040
45821W        W54421  10.418   5.092  23.818  0.0187 -0.2135 -0.1592
45822W        W54422  21.587   3.193   9.317  0.3486 -0.0547 -0.0166
45823W        W54423  26.483   0.820   7.835 -0.0637 -0.2278 -0.0232
45824W        W54424  26.103   6.090   1.774 -0.2331  0.0689 -0.1533
45825W        W54425   5.646   6.120  10.299  0.2472 -0.0191 -0.1486
45826W        W54426  27.451   4.696   0.243  0.1353 -0.1796 -0.0358
45827W        W54427   6.412   0.224  18.274  0.0372  0.0986 -0.0001
45828W        W54428   4.399   7.782   2.237  0.0706  0.2263 -0.0043
45829W        W54429  23.335   2.949   1.517  0.2103  0.0281 -0.0891
45830W        W54430  27.778   5.953  26.204 -0.0222 -0.1813 -0.2235
45831W        W54431  11.293   5.969  20.989 -0.0354  0.1179  0.1173
45832W        W54432  17.656   2.727   3.472  0.1338  0.0452 -0.2459
45833W        W54433   2.671   0.797  18.111  0.0972  0.0817 -0.1622
45834W        W54434  25.184   3.249   0.856 -0.1402  0.2262 -0.2315
45835W        W54435  10.380   3.702  16.906 -0.1493  0.1715  0.2952
45836W        W54436   6.385   2.508   6.396 -0.1474 -0.3208 -0.0945
45837W        W54437   0.999   3.547  20.079  0.3245 -0.3094  0.2348
45838W        W54438  29.786   0.598   7.966  0.0607  0.1725 -0.2456
45839W        W54439  13.577   0.868   9.651  0.0234 -0.1707  0.1257
45840W        W54440  20.142   6.511  25.938  0.3022  0.2933 -0.2357
45841W        W54441   0.637   3.810   6.579 -0.5370 -0.0045  0.2483
45842W        W54442  28.906   4.874   5.366 -0.2081  0.2582  0.2527
45843W        W54443  26.926   4.240  17.256 -0.1558 -0.1217 -0.3405
45844W        W54444  10.036   4.329   9.123 -0.2576 -0.0568  0.0121
45845W        W54445   9.410   2.888  18.358  0.0419  0.1920  0.3561
45846W        W54446   8.562   3.650   0.746 -0.1182  0.1036 -0.2168
45847W        W54447  14.393   6.490  10.380  0.0413 -0.0726 -0.2926
45848W        W54448  15.270   5.857  23.955 -0.0621  0.1307 -0.1093
45849W        W54449  22.867   6.429   3.757  0.2202  0.1248 -0.2573
45850W        W54450   3.774   3.400   8.552 -0.0287  0.0608 -0.1985
45851W        W54451  22.077   5.052   1.985  0.0810 -0.0048 -0.2494
45852W        W54452  12.254   2.617   4.914 -0.1679 -0.0727 -0.4064
45853W        W54453  28.510   3.109  24.643  0.0065  0.1009  0.3203
45854W        W54454  24.614   0.999   8.066 -0.3986 -0.1036 -0.0542
45855W        W54455  17.561   1.281  23.655  0.1424 -0.1704 -0.1210
45856W        W54456   1.656   2.625   6.215  0.2534 -0.0672 -0.3537
45857W        W54457  28.566   5.229  25.593  0.0117  0.1404 -0.4585
45858W        W54458  29.954   1.381   8.817 -0.0622 -0.1484 -0.0762
45859W        W54459  27.622   3.740   1.086 -0.2409 -0.0263  0.2004
45860W        W54460  23.437   6.287   5.174  0.0049 -0.0635  0.0648
45861W        W54461   3.484   6.034   8.400 -0.1634  0.2706 -0.1400
45862W        W54462  14.130   6.453  17.937 -0.0062  0.0768 -0.0386
45863W        W54463   7.316   7.237  22.460 -0.0466  0.1449  0.2486
45864W        W54464  24.208   5.534   0.805 -0.0355 -0.1744  0.0264
45865W        W54465  27.240   4.854  10.734  0.1272  0.1828 -0.1302
45866W        W54466  10.862   2.985  20.803  0.0898 -0.2665  0.1399
45867W        W54467  31.134   7.557  17.920 -0.0247  0.0989 -0.1837
45868W        W54468   1.143   1.141  21.892  0.3604 -0.1754  0.4451
45869W        W54469   4.326   4.449  22.131 -0.3015  0.0777 -0.3167
45870W        W54470  12.462   1.169  17.635 -0.0502  0.2066  0.2713
45871W        W54471  14.837   1.785   4.689 -0.1553 -0.2153 -0.0796
45872W        W54472   9.632   2.875  15.080 -0.0003 -0.1840 -0.4194
45873W        W54473   6.098   6.532   0.569 -0.0004 -0.0378 -0.0002
45874W        W54474  22.175   6.931   4.201 -0.2882 -0.0312 -0.1691
45875W        W54475  14.457   3.721  19.857  0.0008  0.1178  0.2458
45876W        W54476   5.271   6.154   6.914 -0.0908 -0.0067 -0.1771
45877W        W54477  24.434   4.696   9.158 -0.2055 -0.1530  0.0995
45878W        W54478  29.002   6.156   5.131  0.2814 -0.0489 -0.3581
45879W        W54479  12.606   0.518   5.805 -0.0817 -0.1857  0.1048
45880W        W54480  25.308   0.647   1.257  0.2846  0.0339 -0.0221
45881W        W54481  25.735   4.480   4.522  0.1582  0.0925 -0.0699
45882W        W54482  18.066   2.949   7.072 -0.1112  0.2995 -0.0922
45883W        W54483  22.794   2.151  10.337  0.0949 -0.3333 -0.1396
45884W        W54484  31.092   3.637  23.330  0.0856  0.0553 -0.1311
45885W        W54485   6.655   7.785  17.883 -0.1303 -0.2670 -0.3947
45886W        W54486  14.179   2.825  18.060 -0.0397  0.0486  0.0535
45887W        W54487  24.899   7.050   9.634  0.0189  0.3161  0.2358
45888W        W54488   0.138   0.902  23.594 -0.1023 -0.0931  0.5884
45889W        W54489  20.606   7.248  26.405  0.0002 -0.1694  0.1214
45890W        W54490  19.284   0.518  19.490 -0.3943  0.1361  0.0212
45891W        W54491  15.589   5.428  16.970 -0.0311  0.1414  0.2297
45892W        W54492   6.246   4.476   8.553 -0.0344 -0.0194  0.1838
45893W        W54493  22.693   3.918  24.479 -0.2956 -0.0999 -0.2907
45894W        W54494  18.010   6.005  10.073 -0.0912  0.1536  0.5311
45895W        W54495  27.074   3.300   2.625  0.1947  0.1289 -0.0718
45896W        W54496  31.163   5.289   3.661 -0.0630  0.0764 -0.0384
45897W        W54497  13.608   7.511  24.852 -0.0069  0.1723  0.0360
45898W        W54498  16.890   6.353   3.933  0.2269 -0.1314 -0.0807
45899W        W54499   5.434   1.129   6.499 -0.0906 -0.0897 -0.1025
45900W        W54500  29.610   6.889  21.427  0.2620  0.3659  0.1668
45901W        W54501  21.938   7.498  16.753 -0.3658 -0.0191 -0.1564
45902W        W54502  28.703   7.229   8.610  0.2135  0.0934  0.0830
45903W        W54503  22.028   1.527  25.856  0.0882 -0.2391 -0.0226
45904W        W54504   6.070   5.206  15.342  0.0601  0.2522  0.0502
45905W        W54505  22.384   3.048  22.813  0.0570  0.1185  0.1811
45906W        W54506   6.443   5.553   7.806  0.1507  0.1942  0.0827
45907W        W54507   4.535   3.896   0.467  0.0633  0.0306 -0.1994
45908W        W54508  13.649   3.537  15.430 -0.3651 -0.0541  0.3532
45909W        W54509  25.517   6.580  10.193  0.1280 -0.0614 -0.0042
45910W        W54510   7.243   2.719   9.813  0.0559 -0.3315  0.0443
45911W        W54511  22.060   6.557   6.497  0.0204 -0.2380  0.2605
45912W        W54512  25.065   1.115  23.572  0.1021  0.0789  0.2400
45913W        W54513  19.038   1.056  15.971  0.1706  0.0303 -0.2954
45914W        W54514   6.668   5.495  21.437  0.0243 -0.0075  0.0738
45915W        W54515   8.666   1.726  17.579 -0.0247 -0.0449 -0.1345
45916W        W54516  28.754   6.933   0.233 -0.1985 -0.1307 -0.0779
45917W        W54517  24.326   3.305   7.951  0.2485  0.0985 -0.1015
45918W        W54518   6.976   3.920   9.291  0.4275  0.1037  0.1125
45919W        W54519  18.369   0.105   9.985 -0.0374 -0.2745 -0.0812
45920W        W54520   4.797   2.127   6.135 -0.2171 -0.2731 -0.0696
45921W        W54521  22.260   7.670  11.154  0.2470 -0.1094  0.0294
45922W        W54522   4.981   4.030  18.509 -0.0536  0.0393 -0.0653
45923W        W54523   2.573   1.498   8.229 -0.1383  0.1218  0.2328
45924W        W54524  12.603   2.850   4.674 -0.0528 -0.0436  0.1531
45925W        W54525   6.167   2.450   5.881 -0.1633  0.0292  0.0719
45926W        W54526   3.356   7.721   4.007 -0.1363 -0.1528  0.2815
45927W        W54527  13.063   1.326  16.951  0.0265  0.2441 -0.3799
45928W        W54528  22.671   5.101  19.544  0.0873  0.1603 -0.2344
45929W        W54529   9.422   4.141  23.855 -0.0833  0.1568  0.1843
45930W        W54530  14.263   6.895  21.031  0.0460 -0.2745  0.2687
45931W        W54531  13.551   6.606  19.630  0.3346  0.0695 -0.1197
45932W        W54532  27.595   0.292   8.220 -0.0406 -0.0663  0.3960
45933W        W54533  14.831   2.284   1.721  0.1547  0.0695 -0.0135
45934W        W54534   2.093   6.220   3.193 -0.3309  0.0877  0.0724
45935W        W54535  10.790   1.887   6.165 -0.1304  0.0841 -0.2807
45936W        W54536   9.586   6.402  22.854 -0.0488 -0.4116  0.0825
45937W        W54537   7.858   6.669   2.231  0.2616  0.1201  0.1596
45938W        W54538  16.829   7.694  19.704  0.1190  0.2326  0.0977
45939W        W54539  24.328   0.745   3.552  0.1410 -0.3347  0.2470
45940W        W54540   1.271   3.002   2.088  0.0434 -0.1004 -0.0366
45941W        W54541   5.672   1.649  26.240  0.2447  0.0797  0.0666
45942W        W54542  27.999   6.991   7.047  0.1558  0.0648  0.0018
45943W        W54543  19.274   3.118   1.661  0.0814  0.2207 -0.3517
45944W        W54544  13.325   2.458  10.344  0.1321 -0.5511 -0.2827
45945W        W54545  16.725   6.773   5.864 -0.4287 -0.0367  0.0189
45946W        W54546  11.594   1.923   0.093  0.0402 -0.0694  0.5492
45947W        W54547   8.263   3.787  24.249  0.1422 -0.3881 -0.1650
45948W        W54548  28.106   6.585   8.980 -0.1609 -0.2096  0.0445
45949W        W54549  25.088   2.446   3.083 -0.1510  0.1838  0.2226
45950W        W54550  15.751   3.310   5.608  0.1151  0.0291 -0.1561
45951W        W54551  13.285   4.751  19.468 -0.0363  0.0927  0.3742
45952W        W54552  14.124   7.693  21.429  0.3159 -0.0652  0.0163
45953W        W54553  10.562   0.807   9.544  0.1438 -0.2326 -0.1094
45954W        W54554   3.640   1.738  18.149 -0.1641  0.1293 -0.1140
45955W        W54555   0.198   7.457  10.274  0.0367  0.0080 -0.3031
45956W        W54556   2.972   5.738   1.999  0.0205 -0.0576 -0.0114
45957W        W54557   6.175   0.135  19.168 -0.3609 -0.3551 -0.1252
45958W        W54558  14.405   5.202   9.995 -0.0679  0.1545 -0.1688
45959W        W54559   1.841   5.647  24.581 -0.1423  0.0679  0.0012
45960W        W54560  29.218   1.907  15.366 -0.0955  0.0487  0.1689
45961W        W54561   3.043   5.514  18.829 -0.1084  0.3794 -0.2451
45962W        W54562  21.208   3.123   0.083 -0.2887 -0.3475  0.2024
45963W        W54563  29.911   2.371   2.662 -0.1865  0.0454 -0.1890
45964W        W54564  16.168   3.520  15.760 -0.1981  0.2873  0.0463
45965W        W54565   6.832   3.329  11.459 -0.0643 -0.0335  0.0899
45966W        W54566  12.239   0.635   9.873  0.0400 -0.2811  0.0278
45967W        W54567  13.561   1.456  19.533 -0.2725 -0.5094  0.1075
45968W        W54568  29.398   1.902   8.843 -0.2733 -0.1897  0.0793
45969W        W54569  14.754   2.722  17.572 -0.0502 -0.3611 -0.0602
45970W        W54570   9.139   6.714  20.571  0.1181  0.0069  0.1581
45971W        W54571   9.356   7.281  21.186  0.2797  0.1516 -0.1752
45972W        W54572  11.906   3.809   0.274 -0.0855  0.1153  0.0291
45973W        W54573  15.629   0.047   2.074 -0.0154  0.0669  0.1891
45974W        W54574  15.634   7.373   2.828  0.1419 -0.3025  0.0368
45975W        W54575  19.457   3.537   8.955 -0.3694 -0.1739 -0.1810
45976W        W54576  30.132   0.637   8.410 -0.2359  0.1524 -0.3978
45977W        W54577   5.668   6.325  21.852  0.1707 -0.0863 -0.0352
45978W        W54578   1.268   5.164  15.589  0.0668  0.0188  0.1482
45979W        W54579  15.256   6.758   1.853  0.2653 -0.3341 -0.0870
45980W        W54580   2.559   4.359  23.563 -0.0067 -0.2489 -0.2149
45981W        W54581  16.841   1.827  16.778  0.1499 -0.1011  0.1732
45982W        W54582   0.915   5.792   9.629 -0.2995 -0.4416 -0.1039
45983W        W54583   4.544   7.715  26.297 -0.0526  0.1492  0.0384
45984W        W54584   4.912   2.026   1.910 -0.1262 -0.2259 -0.0264
45985W        W54585   9.030   2.581  22.797 -0.1118  0.2401 -0.2494
45986W        W54586  13.600   3.358  19.417 -0.1413 -0.1150 -0.1802
45987W        W54587  15.370   7.269  11.034 -0.1938  0.3703 -0.2884
45988W        W54588  23.851   1.034   6.451 -0.2284 -0.0224  0.2351
45989W        W54589   9.121   2.368  24.362  0.0357 -0.1145  0.0264
45990W        W54590   6.784   4.250  16.325 -0.2396  0.5199 -0.2002
45991W        W54591   9.826   7.081   8.742 -0.1003 -0.1415 -0.0748
45992W        W54592   1.608   7.564   5.582  0.2872  0.0221 -0.0379
45993W        W54593  28.993   3.170  17.555  0.3070 -0.2333 -0.1189
45994W        W54594  28.252   2.040   4.178 -0.2846  0.0011 -0.0205
45995W        W54595   7.208   5.034  18.013 -0.1359  0.0523 -0.3353
45996W        W54596  15.751   6.684  10.273 -0.1095 -0.0371 -0.0583
45997W        W54597   7.967   1.175   7.934 -0.0287  0.0707  0.1255
45998W        W54598  25.120   7.021   0.466 -0.1261 -0.0988  0.1001
45999W        W54599  27.206   4.780  11.260  0.2335  0.0924  0.2052
46000W        W54600  19.100   1.710   7.500 -0.0506 -0.3856  0.1369
46001W        W54601  11.727   6.215   0.850  0.0474  0.2203 -0.2796
46002W        W54602  19.365   0.276   8.858 -0.1436  0.1197  0.0237
46003W        W54603   3.727   5.299   4.809  0.4037 -0.2037  0.1160
46004W        W54604  30.104   1.424  20.105  0.2033 -0.3250 -0.0912
46005W        W54605  19.632   3.693  21.911  0.1949 -0.1492 -0.2767
46006W        W54606  24.720   6.828   9.169  0.0154  0.1976  0.0898
46007W        W54607   1.833   6.014   9.772 -0.0476  0.1811 -0.2541
46008W        W54608  17.184   5.424  16.085 -0.4060  0.0056  0.0917
46009W        W54609   3.849   6.186  25.918 -0.1062 -0.0159  0.3913
46010W        W54610  21.676   1.459   6.111 -0.3742  0.0281  0.0867
46011W        W54611  28.403   6.643   1.923 -0.3520  0.1147  0.0108
46012W        W54612  25.447   5.771  22.666  0.0802 -0.3763  0.1530
46013W        W54613  27.945   3.488  19.365  0.1144 -0.1881 -0.1894
46014W        W54614   5.275   0.200  23.678  0.2026 -0.1123 -0.2328
46015W        W54615   2.370   1.827  24.396  0.0789 -0.1486  0.2635
46016W        W54616   5.472   2.737   5.463  0.1611  0.0586 -0.2172
46017W        W54617  20.024   5.355  21.099 -0.0341 -0.0780 -0.2844
46018W        W54618  26.076   3.860   2.821 -0.1582 -0.2471 -0.0982
46019W        W54619  16.066   5.583  16.028 -0.0641 -0.2311 -0.1892
46020W        W54620   1.935   4.789   5.243  0.0741 -0.0938 -0.2985
46021W        W54621   2.899   5.962  18.965  0.3548 -0.2250  0.1789
46022W        W54622  20.088   1.639   6.916 -0.0526  0.3131  0.0303
46023W        W54623  18.994   5.630   8.698 -0.0121 -0.3459  0.2399
46024W        W54624  27.156   3.038  23.230 -0.1531 -0.2602  0.2004
46025W        W54625   8.923   5.871   0.954 -0.0080 -0.2118  0.0419
46026W        W54626   1.644   6.053   1.231  0.1288 -0.1032 -0.0916
46027W        W54627  19.319   4.815   7.608  0.1668  0.1368  0.1165
46028W        W54628  11.740   1.479   2.553  0.2211  0.0116  0.1503
46029W        W54629  11.348   6.970  19.578  0.1587 -0.0206 -0.3041
46030W        W54630   0.203   7.692   1.336 -0.3102  0.1989 -0.1900
46031W        W54631  29.211   0.550  22.743  0.1706  0.0666  0.1101
46032W        W54632  25.881   0.932  17.805 -0.0971 -0.0583 -0.0267
46033W        W54633  25.332   4.091  17.198  0.2785  0.1820  0.1469
46034W        W54634  15.316   3.036   9.781 -0.2979 -0.1846 -0.0291
46035W        W54635   7.837   7.489   0.534  0.3316  0.1250  0.2879
46036W        W54636  20.776   0.776   2.967 -0.1545 -0.2405  0.2228
46037W        W54637  17.487   3.592   8.062  0.1865  0.1307 -0.1223
46038W        W54638   2.079   2.021   4.862  0.0001  0.2296  0.1379
46039W        W54639   5.755   7.080  22.338 -0.0614  0.1101 -0.1795
46040W        W54640  29.538   5.136  20.862 -0.0137  0.0889  0.0231
46041W        W54641  16.695   4.074   8.153  0.0709  0.3707  0.1525
46042W        W54642   3.808   6.074   4.079 -0.0156 -0.0206  0.0214
46043W        W54643  15.121   4.828   8.343 -0.2519  0.0269  0.2301
46044W        W54644  18.316   0.323  20.817 -0.2459 -0.0632  0.1827
46045W        W54645   9.675   3.234  11.214  0.4224  0.1318 -0.1347
46046W        W54646  14.857   0.427  14.922 -0.1074  0.0133 -0.2379
46047W        W54647  21.747   0.525  23.559  0.4306 -0.2662 -0.2888
46048W        W54648   2.484   1.721  17.727  0.0559 -0.1595  0.2290
46049W        W54649  17.248   5.525   7.346 -0.0255  0.1882  0.1791
46050W        W54650   1.576   7.764  18.801  0.2152  0.1433 -0.1893
46051W        W54651  11.900   0.006   6.256  0.1168  0.0832  0.0636
46052W        W54652  16.406   3.156  21.006 -0.0364  0.2060 -0.1193
46053W        W54653  11.658   6.449   3.647 -0.4192  0.0431  0.1125
46054W        W54654  28.746   1.889  16.469 -0.1726  0.1406  0.4010
46055W        W54655   8.270   7.413   0.073 -0.4242 -0.1086 -0.0911
46056W        W54656   1.148   0.064  16.646 -0.0483 -0.0032  0.0316
46057W        W54657   2.827   7.579  21.041 -0.3705  0.2800 -0.1197
46058W        W54658   9.150   2.979   6.194  0.0435 -0.2316  0.4462
46059W        W54659   5.139   4.828   9.947 -0.2310  0.1270  0.4054
46060W        W54660   5.188   2.389   5.965 -0.1208 -0.0668 -0.0867
46061W        W54661  28.115   4.823  19.050  0.1909 -0.0228 -0.1422
46062W        W54662  11.222   7.130   7.765 -0.0463 -0.1211  0.0830
46063W        W54663  18.122   1.051  25.197 -0.0603  0.1976 -0.0405
46064W        W54664  24.162   7.206  20.047 -0.0590 -0.3141  0.0563
46065W        W54665   0.602   7.562  20.518 -0.4025 -0.1448 -0.0514
46066W        W54666  30.694   0.825  11.895  0.2298  0.2278 -0.2456
46067W        W54667   2.427   4.379   6.634 -0.1593 -0.2883 -0.1498
46068W        W54668  30.341   4.611   5.162  0.1281 -0.0036  0.1172
46069W        W54669  22.886   4.926  16.063 -0.0780  0.0760  0.1043
46070W        W54670  24.678   0.746   3.138 -0.1085 -0.0968 -0.1654
46071W        W54671   3.212   1.446  10.586  0.0129  0.0758  0.0546
46072W        W54672  15.962   0.755  19.171 -0.1878  0.1187 -0.0307
46073W        W54673  27.559   6.999  16.421  0.2018 -0.1346 -0.0239
46074W        W54674   1.386   1.586  21.262  0.2597 -0.0726  0.2095
46075W        W54675   1.476   3.360  17.661  0.1651 -0.1004 -0.0160
46076W        W54676  13.666   1.047   9.142  0.3098  0.0615 -0.5068
46077W        W54677  10.381   6.426   2.491  0.1631  0.0439  0.1489
46078W        W54678  20.061   4.479   2.574 -0.5120  0.0611 -0.0911
46079W        W54679  11.099   2.359  19.720  0.1137 -0.0319  0.0062
46080W        W54680   4.197   4.157  10.284 -0.2746  0.1743 -0.2711
46081W        W54681  26.666   5.684   4.446 -0.3880 -0.0226  0.4807
46082W        W54682  11.974   5.202   7.770 -0.4287  0.3170  0.1196
46083W        W54683   3.253   1.139   0.586  0.1188  0.0837  0.2482
46084W        W54684   2.772   7.380  17.417 -0.1313  0.1165 -0.2335
46085W        W54685  23.830   6.620  16.173 -0.2212  0.1226  0.1230
46086W        W54686  10.845   3.284   7.388  0.4597  0.1315 -0.0381
46087W        W54687  29.740   4.897  17.664 -0.0181 -0.1317 -0.0068
46088W        W54688  16.048   2.792  24.309  0.0191  0.1320  0.0939
46089W        W54689   4.286   4.135   4.117 -0.1137  0.0040 -0.1784
46090W        W54690  21.870   2.970  18.622 -0.1517  0.1370 -0.1234
46091W        W54691   4.839   4.979   7.606 -0.0185  0.0945 -0.1751
46092W        W54692  13.959   0.407   4.795  0.0938 -0.1518 -0.1176
46093W        W54693  11.632   6.034  25.037  0.0274  0.0906  0.1977
46094W        W54694  11.846   2.611   5.220  0.4494  0.2355 -0.1573
46095W        W54695   8.829   2.778   9.559 -0.1777  0.2498 -0.1149
46096W        W54696   1.665   2.057   3.896  0.2317  0.0204  0.4154
46097W        W54697  14.576   1.339  21.380 -0.0595 -0.3239  0.1388
46098W        W54698  22.629   6.637  21.640  0.2940  0.0871  0.0557
46099W        W54699  20.285   2.850   3.789 -0.1873 -0.0486 -0.1576
46100W        W54700  16.944   6.513   2.598 -0.1933  0.2122 -0.0671
46101W        W54701  10.568   7.502  11.089  0.0662 -0.0049  0.0464
46102W        W54702   6.825   4.601   9.932  0.0386  0.0293 -0.0594
46103W        W54703  26.936   4.436   9.581  0.0333 -0.0512 -0.0638
46104W        W54704  14.946   5.897  15.691 -0.0503 -0.1258 -0.3283
46105W        W54705  12.230   7.349   5.435 -0.0328 -0.0845  0.1063
46106W        W54706  21.327   5.611  17.349 -0.0127  0.0207  0.1128
46107W        W54707  20.550   6.958   5.364 -0.2703 -0.0929  0.2139
46108W        W54708  26.567   3.803  16.920 -0.1873 -0.0021  0.2085
46109W        W54709   1.804   1.254  18.349 -0.0629  0.0307 -0.0365
46110W        W54710  25.965   3.385  18.589 -0.2456  0.0227 -0.0845
46111W        W54711   5.497   2.321   2.479 -0.0729 -0.0211 -0.0041
46112W        W54712  11.943   5.420   2.116  0.0447  0.0011 -0.1266
46113W        W54713  13.616   2.155  17.014 -0.1755 -0.0144  0.4407
46114W        W54714  14.738   4.954   0.853 -0.4816  0.1221 -0.0019
46115W        W54715  22.723   6.184   2.933  0.2030  0.0634  0.0433
46116W        W54716   3.708   4.302  24.187 -0.3190  0.2754  0.0965
46117W        W54717   7.495   6.179  16.261  0.1132 -0.1016  0.1831
46118W        W54718   5.996   0.629   5.682  0.1555 -0.1883 -0.2501
46119W        W54719  21.313   2.035  24.193 -0.1349  0.1766  0.1270
46120W        W54720  27.568   6.094   6.429 -0.1638 -0.0415  0.2313
46121W        W54721  14.722   6.306   2.111  0.1532 -0.0642  0.0154
46122W        W54722   7.366   0.454   2.658  0.1721 -0.0281 -0.1291
46123W        W54723  17.696   7.103  19.359  0.0286 -0.1078 -0.1129
46124W        W54724  17.593   5.718  17.003  0.1477 -0.0414  0.1867
46125W        W54725   4.412   7.635  17.654 -0.0975 -0.3166  0.0831
46126W        W54726  18.470   4.793   3.331 -0.1235  0.0335 -0.0232
46127W        W54727  23.058   2.746  10.749 -0.0036 -0.0804 -0.1271
46128W        W54728   0.141   0.624   7.276 -0.0662  0.3673 -0.2228
46129W        W54729  29.730   3.654  10.349 -0.3350 -0.0148  0.0340
46130W        W54730   3.991   2.044  25.330  0.0545  0.1468  0.1765
46131W        W54731  10.785   2.511   6.271 -0.1188 -0.1740  0.0352
46132W        W54732  28.174   3.435   4.775  0.0708  0.0154  0.3575
46133W        W54733  20.351   7.672  18.959 -0.1601  0.1567  0.2447
46134W        W54734  22.498   6.899  19.472  0.3069 -0.0078 -0.1346
46135W        W54735  30.657   7.661  17.918 -0.1390 -0.0246 -0.1162
46136W        W54736  24.411   1.642   6.063  0.1220  0.4689 -0.0772
46137W        W54737  15.961   5.920  16.364  0.1547  0.1255  0.3173
46138W        W54738  17.200   5.670  24.246 -0.1421 -0.1346  0.0054
46139W        W54739  28.060   7.229  18.340  0.0881 -0.1105  0.2262
46140W        W54740  14.781   0.353   1.670  0.1321  0.1013  0.0432
46141W        W54741  20.958   7.794  17.366  0.1066  0.1961 -0.4480
46142W        W54742   3.601   4.017  20.223 -0.0613 -0.0918 -0.2436
46143W        W54743  12.523   1.271   8.653  0.1281 -0.0101  0.0276
46144W        W54744  22.617   2.046  18.114 -0.1349 -0.3483  0.3023
46145W        W54745  26.194   6.529   6.266  0.2470 -0.0358 -0.1265
46146W        W54746  17.780   0.911  21.146 -0.3909 -0.0313  0.0705
46147W        W54747  24.231   0.394   9.212  0.1386  0.2126  0.2879
46148W        W54748   8.479   0.407   1.978 -0.3384  0.2348  0.0682
46149W        W54749  16.868   1.711  25.093  0.2291  0.0502 -0.0494
46150W        W54750  21.927   5.522  16.466  0.0451  0.0513 -0.1134
46151W        W54751  11.143   2.069  11.455  0.0900  0.1000  0.1379
46152W        W54752  31.092   7.082   9.172 -0.0084  0.0821  0.2920
46153W        W54753  18.281   7.307  25.876 -0.1237 -0.0872  0.1761
46154W        W54754  23.002   5.424   4.195 -0.0085  0.1870  0.0258
46155W        W54755  27.011   2.185  18.701 -0.0144  0.1208  0.0130
46156W        W54756  10.536   3.257  24.389  0.1730  0.1789  0.0426
46157W        W54757   4.103   1.075   9.511 -0.1436  0.0050  0.2052
46158W        W54758   9.004   4.785   7.599  0.0127  0.0747  0.2634
46159W        W54759  16.755   0.142  24.552 -0.4555 -0.0028  0.0464
46160W        W54760  24.834   2.548  20.219  0.1333 -0.1442  0.0110
46161W        W54761   5.908   4.058   1.340 -0.3077 -0.1837 -0.1415
46162W        W54762  13.856   4.712  20.575 -0.1971  0.0559 -0.0474
46163W        W54763  21.276   3.014  25.926  0.0565 -0.0831 -0.4715
46164W        W54764  17.018   5.401   1.420 -0.1707  0.2329  0.0523
46165W        W54765  25.471   1.851  24.430 -0.2224  0.1129  0.2172
46166W        W54766  10.596   5.611  16.798  0.2461 -0.0727 -0.3193
46167W        W54767  30.478   1.023   8.463  0.2283  0.0672 -0.3059
46168W        W54768   9.167   5.449   9.577  0.1076 -0.1042  0.1465
46169W        W54769   6.908   0.859  18.003 -0.0684  0.0611 -0.0911
46170W        W54770  15.488   5.150   8.148 -0.1262 -0.1686 -0.2586
46171W        W54771  28.343   5.456  22.105  0.0873  0.1222  0.1558
46172W        W54772  18.804   5.722  26.326  0.1539  0.0070  0.1752
46173W        W54773   1.184   1.338   4.164 -0.1632  0.1283 -0.0695
46174W        W54774  26.217   0.023  11.674 -0.0102  0.2920  0.1393
46175W        W54775  27.831   6.544   6.288 -0.0117 -0.0148  0.1280
46176W        W54776  30.284   0.949   9.695  0.0780 -0.1286  0.0866
46177W        W54777   4.651   0.396   3.484  0.2415 -0.0079  0.0352
46178W        W54778  22.417   2.479  15.504 -0.2545 -0.0258 -0.2096
46179W        W54779   5.998   4.204   6.144  0.2566 -0.0343 -0.0769
46180W        W54780   3.235   3.734  19.451  0.1271  0.0982  0.0558
46181W        W54781   2.439   6.696   4.557  0.0664 -0.0333 -0.0395
46182W        W54782  20.495   0.655   1.096  0.5452 -0.0623  0.0931
46183W        W54783  22.905   1.667  24.693  0.0028  0.1742 -0.1043
46184W        W54784  14.663   6.889   2.085  0.0406 -0.1094 -0.0865
46185W        W54785   2.336   1.643   3.596  0.0985 -0.1010  0.1622
46186W        W54786  15.528   5.968   1.730  0.0934  0.3711 -0.0927
46187W        W54787  27.113   7.439   0.039 -0.1382  0.0372  0.0674
46188W        W54788   9.614   4.833  21.860 -0.0096  0.0304 -0.1833
46189W        W54789  11.456   1.166  17.895  0.1633 -0.1005 -0.0894
46190W        W54790   1.448   1.894   2.330  0.1374 -0.0768  0.3168
46191W        W54791  22.001   4.977  16.482  0.1588 -0.1762  0.0237
46192W        W54792  10.167   1.958  17.033  0.1418  0.2406  0.1203
46193W        W54793   3.168   1.995   4.196  0.1366  0.1033  0.0646
46194W        W54794  19.041   7.159   7.326 -0.1309  0.1754 -0.2561
46195W        W54795  17.059   5.357   1.941  0.0370  0.0362  0.0509
46196W        W54796  11.433   5.096  20.049  0.3383  0.0860 -0.0965
46197W        W54797  23.591   4.713  10.990 -0.0865  0.0935 -0.1663
46198W        W54798  23.692   4.120  23.993  0.1576 -0.1799  0.2164
46199W        W54799   9.774   4.632  20.340  0.0096  0.0077  0.1256
46200W        W54800  21.571   3.083  19.424  0.0657  0.0057  0.1322
46201W        W54801  11.802   4.962   4.388  0.0874 -0.0016 -0.2951
46202W        W54802   9.564   5.515   1.586 -0.0263  0.0348  0.0895
46203W        W54803  27.123   7.062  22.866  0.2584  0.1251 -0.0155
46204W        W54804  26.885   5.063   5.260  0.0701 -0.1544 -0.3002
46205W        W54805  23.486   1.081  22.520  0.3378 -0.2706  0.2920
46206W        W54806   4.809   0.515  23.564  0.3405 -0.0077 -0.0279
46207W        W54807  21.385   3.662   9.521  0.1077  0.0479 -0.2506
46208W        W54808  24.355   3.151  10.852 -0.1200  0.1174  0.4306
46209W        W54809   7.781   1.542   6.327  0.1769 -0.0092  0.0210
46210W        W54810   4.223   6.298   4.527 -0.0232 -0.3174  0.0423
46211W        W54811  19.178   5.705   5.565  0.0458 -0.0055  0.2226
46212W        W54812  27.103   7.129   6.711 -0.0722 -0.1427 -0.2033
46213W        W54813  16.820   3.382  24.535  0.2656  0.0281  0.2469
46214W        W54814  23.970   4.593   2.086 -0.0204 -0.1205  0.0428
46215W        W54815  26.748   5.144  21.286 -0.2204  0.0677  0.0668
46216W        W54816  19.616   1.221   1.207  0.2988 -0.0489  0.0480
46217W        W54817  10.610   0.696  23.446 -0.1690 -0.0467 -0.1128
46218W        W54818   0.541   4.992  19.917 -0.0108 -0.1969 -0.0049
46219W        W54819  30.953   3.716   4.327  0.0972 -0.1924 -0.1489
46220W        W54820  30.645   5.492  23.119  0.1989 -0.1202  0.1220
46221W        W54821   4.184   6.861  16.346  0.0267 -0.0546  0.2362
46222W        W54822  12.656   6.982   6.831  0.1120  0.2983  0.1898
46223W        W54823   1.786   6.938  20.537 -0.0367 -0.3881 -0.0988
46224W        W54824   0.734   1.245   1.315  0.0612 -0.1887 -0.1121
46225W        W54825   6.453   7.337  24.415 -0.0122 -0.0165 -0.2825
46226W        W54826  10.134   6.094  15.433  0.2685  0.0568  0.1555
46227W        W54827   8.302   1.937   6.195 -0.1911  0.0884  0.1647
46228W        W54828  23.169   7.352   8.383 -0.0293 -0.0124 -0.2479
46229W        W54829  10.696   0.870  18.424  0.1617 -0.0596 -0.0849
46230W        W54830   1.448   5.148   4.847 -0.0727 -0.1104 -0.0679
46231W        W54831  18.500   4.602  24.510 -0.0767 -0.0324  0.1643
46232W        W54832   6.512   7.361  20.812  0.2205 -0.0587  0.2317
46233W        W54833   8.643   5.611   3.141  0.1525 -0.0447  0.1940
46234W        W54834  14.184   6.799   7.284 -0.2227  0.4334 -0.0535
46235W        W54835   8.061   1.856  22.126 -0.3315  0.2247 -0.6855
46236W        W54836  28.893   5.828  18.609 -0.1934 -0.1230 -0.4761
46237W        W54837  24.666   5.960   3.667 -0.5291 -0.1856 -0.0831
46238W        W54838  10.476   7.068   6.838  0.1663 -0.0680  0.1876
46239W        W54839  24.080   1.017   8.021 -0.0690 -0.2465  0.2162
46240W        W54840   5.469   4.034  17.502 -0.2218  0.0675 -0.0224
46241W        W54841   7.202   7.353  25.213  0.0183  0.2742 -0.0223
46242W        W54842   2.655   4.569   2.477  0.4379 -0.2173  0.2440
46243W        W54843  12.556   7.646   5.656 -0.1652 -0.0785 -0.3196
46244W        W54844  28.486   1.075  10.196 -0.2801  0.2405 -0.0943
46245W        W54845  16.551   2.518  20.203 -0.0269 -0.1763  0.2125
46246W        W54846   2.805   4.198  16.592 -0.0466 -0.0821  0.0186
46247W        W54847  29.104   3.990  22.479 -0.1101 -0.1838 -0.1358
46248W        W54848  16.402   7.319  25.105 -0.0348 -0.0793  0.2649
46249W        W54849  16.226   4.551  17.829 -0.0186 -0.0126 -0.0259
46250W        W54850   6.112   3.035  18.911  0.0999 -0.1930 -0.0202
46251W        W54851   9.902   1.706   3.845  0.1613  0.0822 -0.0406
46252W        W54852  11.353   7.576   2.387 -0.2569 -0.1242  0.0288
46253W        W54853  17.462   0.259   5.078 -0.1264  0.1231 -0.2662
46254W        W54854  18.517   2.812   1.931 -0.0577 -0.2822 -0.1507
46255W        W54855  28.796   1.439  23.830 -0.0386  0.2217 -0.0982
46256W        W54856  30.143   1.930  20.715  0.1239  0.1860 -0.3762
46257W        W54857  14.638   7.348  19.571  0.2582  0.0848 -0.2064
46258W        W54858   9.323   5.784  24.333 -0.4454 -0.1547  0.0367
46259W        W54859  13.648   3.173   0.928  0.2679  0.0410 -0.0428
46260W        W54860   4.977   3.207  23.130  0.1231 -0.1438  0.0153
46261W        W54861   3.524   3.009   8.294  0.0914 -0.0968 -0.1511
46262W        W54862   3.009   3.338  17.471  0.0333  0.1666  0.1673
46263W        W54863  13.563   3.040   5.791 -0.0811  0.0522  0.0952
46264W        W54864  22.772   1.746   5.004 -0.1447  0.1482 -0.0867
46265W        W54865   1.615   0.025  23.399  0.1188 -0.2921  0.0620
46266W        W54866   2.918   2.900   9.550  0.0645 -0.0914 -0.0487
46267W        W54867  24.203   6.193  18.594 -0.2508  0.3118 -0.0469
46268W        W54868  22.469   5.608   1.494 -0.1955  0.0377 -0.0396
46269W        W54869  11.088   3.143  16.048  0.1010  0.1834  0.0657
46270W        W54870  16.932   1.281   4.894  0.3705  0.2772  0.0749
46271W        W54871  10.955   5.094  19.255  0.0238 -0.1855  0.0587
46272W        W54872  19.392   0.140   9.678  0.1341 -0.0312  0.0389
46273W        W54873  28.584   4.288   0.810  0.3163 -0.1711 -0.1248
46274W        W54874   8.870   7.573  20.701  0.4422  0.1280  0.2343
46275W        W54875  22.160   3.982  24.601  0.2664 -0.2236  0.0318
46276W        W54876   7.252   2.736   4.555  0.2423 -0.0629 -0.1784
46277W        W54877   9.379   6.821  23.108 -0.1948 -0.0390  0.0084
46278W        W54878   6.890   4.101   1.619 -0.1202  0.1018  0.1036
46279W        W54879   3.660   7.387   9.974  0.0993 -0.2546 -0.2313
46280W        W54880   6.569   7.734  18.852 -0.3300  0.1733  0.0115
46281W        W54881   6.286   2.643  22.099  0.0664 -0.2343 -0.1112
46282W        W54882  29.981   5.539  18.764 -0.1845  0.2146  0.0103
46283W        W54883  25.777   6.491   5.956 -0.1537 -0.1922  0.0698
46284W        W54884  15.674   6.790  24.626  0.0153 -0.1384  0.1524
46285W        W54885  20.721   3.732   5.139  0.1190 -0.0903  0.0503
46286W        W54886  17.384   0.914  21.562 -0.0525 -0.1399  0.0867
46287W        W54887   1.618   3.890  19.677  0.4489  0.0838 -0.0003
46288W        W54888  26.741   7.695  24.741 -0.0259 -0.0018  0.0151
46289W        W54889  12.665   1.886   4.850  0.0527  0.0358  0.1248
46290W        W54890   0.741   1.567  22.981 -0.1180 -0.0577  0.0042
46291W        W54891  18.330   6.092  23.368  0.1917  0.1386 -0.2935
46292W        W54892  15.506   5.562  20.717  0.1509 -0.0488  0.1342
46293W        W54893  17.057   5.889  20.431  0.0261 -0.1040 -0.1337
46294W        W54894  22.425   0.728  18.179 -0.1631 -0.0813  0.4014
46295W        W54895  22.613   4.141   6.582 -0.1567  0.0005  0.0170
46296W        W54896  26.164   6.665   4.707  0.1397  0.4554 -0.0876
46297W        W54897   3.616   6.447  11.001  0.0858  0.0700 -0.2656
46298W        W54898  22.923   7.320  22.985 -0.1226 -0.1504  0.0395
46299W        W54899  20.908   2.441  21.146  0.0229  0.1155  0.0304
46300W        W54900  26.312   1.411   5.695  0.1881  0.0367  0.1205
46301W        W54901   9.578   2.425  18.243 -0.0766 -0.1420  0.1887
46302W        W54902   7.084   7.422  26.176  0.0350  0.1597 -0.1046
46303W        W54903   5.252   2.815  19.927  0.2295  0.0338 -0.2026
46304W        W54904   6.538   4.365   8.093 -0.2270 -0.1059 -0.1148
46305W        W54905   3.720   5.736  17.689  0.1233  0.1442 -0.0996
46306W        W54906  16.608   7.459  24.682  0.0998  0.1397 -0.0546
46307W        W54907  27.854   7.373  19.091 -0.0332  0.0335 -0.1171
46308W        W54908  29.229   6.487   7.793  0.0602  0.1015  0.0938
46309W        W54909   4.316   4.003   8.018 -0.1194 -0.1887  0.0559
46310W        W54910  10.054   1.264   5.513  0.2431  0.1387  0.2790
46311W        W54911  11.026   1.543   0.262 -0.0640 -0.0314 -0.4892
46312W        W54912   5.014   3.000  20.877  0.0191  0.3408 -0.4091
46313W        W54913  25.589   4.814   6.510  0.0663  0.1419  0.0243
46314W        W54914  18.118   5.578   6.973  0.0680  0.0743  0.0158
46315W        W54915  11.113   4.530   8.759 -0.2538 -0.1801 -0.1784
46316W        W54916  28.693   2.433   7.185  0.3615 -0.0535 -0.0801
46317W        W54917  22.405   4.383  17.636 -0.0415 -0.1813  0.0451
46318W        W54918  24.642   1.433  18.751  0.0101  0.2807  0.1429
46319W        W54919   7.685   0.221  21.731 -0.1104 -0.0843 -0.0651
46320W        W54920  18.701   3.537  18.239 -0.0954  0.0687 -0.0277
46321W        W54921   9.058   5.935   1.420  0.2009 -0.0744  0.3109
46322W        W54922  16.197   2.835  22.357  0.2372  0.5962  0.1252
46323W        W54923  26.857   5.698  11.190 -0.0285 -0.1046 -0.2721
46324W        W54924  29.375   4.108  19.230 -0.0926 -0.3285 -0.0749
46325W        W54925  23.349   0.135   7.984 -0.0959  0.1841 -0.2202
46326W        W54926  26.118   7.290   7.736  0.0705 -0.0151  0.3678
46327W        W54927  15.401   0.712   6.431 -0.0635 -0.2485 -0.0549
46328W        W54928   6.508   0.501  20.235  0.2114 -0.1150  0.1091
46329W        W54929  26.253   7.029  22.820  0.2145  0.0066  0.0176
46330W        W54930   3.522   5.264  25.842 -0.2395 -0.3827 -0.0196
46331W        W54931  10.424   6.770  22.420 -0.0084 -0.2962 -0.2117
46332W        W54932  15.452   5.948   0.730 -0.1033 -0.0899 -0.2704
46333W        W54933   6.976   1.847   2.552 -0.1367  0.0186  0.0027
46334W        W54934   7.669   3.834   5.405 -0.1326  0.1271  0.2056
46335W        W54935   8.067   4.411  25.672  0.0518  0.0813 -0.0447
46336W        W54936  19.827   7.336   4.368 -0.2662  0.0804 -0.1781
46337W        W54937   0.777   2.825  15.690 -0.1474  0.1123 -0.1267
46338W        W54938  19.010   2.990  10.289 -0.0329 -0.1295  0.0087
46339W        W54939   3.369   7.157   0.381 -0.0374  0.1138 -0.0788
46340W        W54940  18.004   5.001  20.201  0.1211 -0.1183 -0.3309
46341W        W54941  30.841   0.474   0.037 -0.1274 -0.1242  0.2346
46342W        W54942  10.543   1.160   2.937  0.0359  0.2588 -0.0122
46343W        W54943  19.495   0.839  18.117  0.2880 -0.2115 -0.0726
46344W        W54944  22.306   7.579  21.108 -0.0740 -0.0577  0.0918
46345W        W54945  11.376   6.566   4.198  0.1216  0.0633  0.0676
46346W        W54946  16.862   2.522   6.624  0.0517  0.0015  0.1482
46347W        W54947  14.119   2.360  14.586 -0.0552 -0.0926  0.0841
46348W        W54948  10.047   1.475  15.566 -0.1510  0.3065  0.1153
46349W        W54949  23.442   7.389   5.610 -0.0630 -0.3663  0.3581
46350W        W54950   4.591   1.164  17.948 -0.0703 -0.3049  0.1839
46351W        W54951   6.048   3.977  23.689  0.3158  0.3394 -0.1006
46352W        W54952  27.654   1.035  10.787 -0.0653 -0.0578 -0.1757
46353W        W54953  10.077   0.493  19.208 -0.1373  0.0927  0.2679
46354W        W54954  20.210   6.706   9.242  0.1216  0.1811 -0.2405
46355W        W54955  15.269   3.521  20.922  0.2202  0.0488  0.0923
46356W        W54956  24.400   5.871  23.488  0.1081 -0.1298  0.0232
46357W        W54957  10.945   2.828   0.480 -0.0393  0.0689  0.2076
46358W        W54958  24.926   7.294  25.370  0.1332  0.2776 -0.0111
46359W        W54959  27.825   7.576   8.209 -0.2051 -0.1079  0.0599
46360W        W54960  22.685   1.428   1.221 -0.1882 -0.2038  0.3387
46361W        W54961  24.575   0.838  17.746  0.0769  0.3032  0.1706
46362W        W54962   8.227   4.536   3.959 -0.0197 -0.0287 -0.0856
46363W        W54963   3.551   4.453  18.805  0.3074  0.0006 -0.0845
46364W        W54964  21.118   2.336   1.915  0.1055  0.1569 -0.2428
46365W        W54965  19.951   1.204  18.120 -0.2900 -0.1453  0.2037
46366W        W54966   7.304   0.334   1.627 -0.0103 -0.0480 -0.1988
46367W        W54967   1.543   5.573  15.753  0.1565  0.0232  0.0733
46368W        W54968  28.452   7.599  25.017  0.1029 -0.1748 -0.0108
46369W        W54969  25.879   1.172  25.617  0.1158 -0.1682 -0.0101
46370W        W54970  20.355   6.358  18.844  0.2594  0.1140 -0.0118
46371W        W54971  27.890   5.605  19.195  0.0242  0.3401  0.1131
46372W        W54972   6.553   7.049  22.215  0.3264  0.3731  0.3264
46373W        W54973   4.843   0.801   0.930 -0.0110  0.0310 -0.0402
46374W        W54974   4.981   4.141  24.626  0.1083  0.1079  0.2255
46375W        W54975   1.078   4.455   2.762  0.3108  0.1605 -0.3149
46376W        W54976   3.511   7.485  25.661 -0.1574  0.1136  0.1275
46377W        W54977  27.940   7.281   1.623 -0.0967 -0.2390 -0.2493
46378W        W54978   7.764   4.960  24.228 -0.0504  0.0281  0.1173
46379W        W54979  24.632   5.693   6.251 -0.1993  0.0761  0.2160
46380W        W54980  15.371   0.301   4.687  0.1571 -0.2447 -0.4167
46381W        W54981  21.523   4.551  22.659 -0.2688 -0.0006  0.2131
46382W        W54982  24.514   2.749  10.523  0.0391 -0.2927 -0.2066
46383W        W54983   6.127   3.845   6.883  0.0222  0.0259 -0.4221
46384W        W54984  25.621   7.426  20.263  0.0439 -0.1732 -0.0318
46385W        W54985  12.442   6.126  10.833  0.1218 -0.1535 -0.3373
46386W        W54986   4.217   0.375  17.262 -0.0079 -0.0333 -0.0185
46387W        W54987   3.360   5.942  19.214 -0.1285 -0.0277  0.3075
46388W        W54988   8.923   7.720   3.123 -0.0415  0.0190 -0.0062
46389W        W54989  27.258   0.122   7.525 -0.1560 -0.0093 -0.0197
46390W        W54990  17.531   0.916  18.875 -0.0190  0.0639  0.0602
46391W        W54991  21.216   4.930  10.555  0.4394 -0.2768 -0.2926
46392W        W54992  17.467   3.432  24.045 -0.4058  0.2372  0.1155
46393W        W54993  10.672   2.023  24.135 -0.2506  0.2831  0.0174
46394W        W54994  31.195   7.385  23.871 -0.4116 -0.1515 -0.0531
46395W        W54995  27.110   6.275   0.936 -0.4186  0.0737  0.1624
46396W        W54996   7.333   5.715  18.744  0.0664  0.3430 -0.0096
46397W        W54997   4.457   3.590   6.622  0.3054  0.1314  0.0586
46398W        W54998  12.975   7.715   7.783  0.0821  0.0622  0.0985
46399W        W54999   9.733   3.222   6.201  0.0087  0.1277  0.0194
46400W        W55000  10.344   3.391  18.204 -0.1997  0.1382 -0.1638
46401W        W55001  13.113   0.043  18.199  0.0279 -0.0892  0.1515
46402W        W55002  14.790   2.152  19.341  0.1694  0.0982  0.0506
46403W        W55003   9.080   4.802   0.001  0.1364 -0.1160  0.0615
46404W        W55004   9.524   7.142   2.018 -0.2151  0.1590 -0.0980
46405W        W55005   4.544   4.416   4.833 -0.0512  0.0384 -0.1989
46406W        W55006  20.406   4.749   5.666 -0.0085  0.0148 -0.0533
46407W        W55007  22.874   3.786   4.255 -0.3881  0.2093  0.1747
46408W        W55008   8.114   4.589  22.301  0.2920 -0.2736  0.1014
46409W        W55009  13.483   7.169  15.644  0.0417  0.0436 -0.0346
46410W        W55010   9.935   2.300  10.109  0.0858  0.1236 -0.1305
46411W        W55011  11.981   6.364  23.047  0.0028  0.1483  0.0913
46412W        W55012   8.890   3.099   6.614 -0.3459  0.1635  0.0504
46413W        W55013   6.698   7.738   6.086 -0.1918  0.1802  0.0770
46414W        W55014   4.770   1.484  15.026  0.1228 -0.2212  0.0286
46415W        W55015  24.320   4.877  21.005 -0.1547 -0.0366 -0.1755
46416W        W55016  13.524   1.901   5.878  0.1257  0.1268  0.1760
46417W        W55017  16.858   4.411   5.637  0.2503  0.4760 -0.1511
46418W        W55018  31.040   0.188  25.929 -0.0898  0.0075 -0.1206
46419W        W55019   4.138   5.154  20.501  0.0162  0.0764 -0.0028
46420W        W55020  13.939   1.771  16.801  0.2308  0.0298 -0.0534
46421W        W55021  10.540   2.172   2.902 -0.0808 -0.0598  0.0343
46422W        W55022   8.860   7.096   4.835 -0.0877  0.1375  0.0764
46423W        W55023   7.349   5.579  25.269  0.1193  0.1657  0.0033
46424W        W55024   7.154   2.303   4.850  0.5976  0.0962 -0.2488
46425W        W55025  14.637   0.958  22.340 -0.1481 -0.0466 -0.0586
46426W        W55026  22.634   6.488   7.360 -0.2699 -0.1254  0.2400
46427W        W55027  30.353   7.338   6.489  0.0569  0.1856  0.0848
46428W        W55028  26.338   4.737   0.729  0.0716 -0.0172 -0.0087
46429W        W55029  21.033   7.001  19.690  0.1538  0.2499 -0.1445
46430W        W55030  23.991   6.485  11.191  0.1497 -0.1823 -0.1675
46431W        W55031   6.741   2.445   7.621  0.0034  0.3105 -0.1934
46432W        W55032   4.749   7.035  23.034 -0.0807 -0.0353  0.2180
46433W        W55033  20.113   0.928  17.415 -0.1083 -0.0012  0.0539
46434W        W55034  29.316   5.381   7.031 -0.2154  0.3224  0.0887
46435W        W55035   9.184   1.502   3.008  0.3112  0.0021 -0.0124
46436W        W55036  30.969   0.702  21.958  0.3237 -0.0918  0.0288
46437W        W55037   7.989   0.559   4.722 -0.2026 -0.2009 -0.0113
46438W        W55038  14.485   3.902  23.407 -0.1821 -0.2008  0.0985
46439W        W55039   6.917   6.069  22.384 -0.1397 -0.2452  0.0275
46440W        W55040  16.384   3.737  23.574  0.0229  0.2499  0.1643
46441W        W55041  14.113   2.620  25.288  0.2084 -0.1026  0.0497
46442W        W55042   8.660   1.907   4.896  0.1792  0.0605  0.1032
46443W        W55043  27.124   1.393  26.339  0.0147  0.4274  0.0097
46444W        W55044  22.716   2.617   2.180  0.0676 -0.3592  0.0993
46445W        W55045  22.206   6.003   9.146 -0.2544  0.1032 -0.0006
46446W        W55046  24.344   7.615   2.703  0.1748  0.1757 -0.2149
46447W        W55047   7.530   3.626  17.383  0.0872 -0.0329  0.1146
46448W        W55048  15.304   6.827  22.574 -0.4025 -0.0774 -0.0538
46449W        W55049   2.280   2.223   4.406  0.0394  0.1356  0.0284
46450W        W55050   7.700   2.707  17.636 -0.0477  0.0769 -0.1620
46451W        W55051  29.779   3.919   8.196 -0.1617  0.1032 -0.1663
46452W        W55052  31.149   1.184   4.044  0.2958 -0.0235  0.1363
46453W        W55053  29.818   7.605  20.764  0.1963  0.1201 -0.1497
46454W        W55054  15.411   1.963  10.500 -0.2847 -0.1664  0.0857
46455W        W55055   3.894   2.344   3.945  0.1791  0.0399  0.0933
46456W        W55056  12.746   5.277  19.118  0.0840  0.1288 -0.2220
46457W        W55057  10.860   0.698  20.272 -0.1032 -0.0014 -0.2082
46458W        W55058  10.337   4.193   5.161 -0.1946  0.0361  0.0331
46459W        W55059  24.896   6.614  20.793 -0.3118  0.2449  0.4384
46460W        W55060  17.022   4.634   3.770 -0.0701 -0.3380  0.0699
46461W        W55061   6.031   2.994  19.411  0.0423 -0.1678  0.2090
46462W        W55062  30.932   5.318   6.380 -0.0823  0.0414  0.1157
46463W        W55063  23.301   4.782  16.374  0.1111 -0.3561  0.1192
46464W        W55064   3.383   1.344  11.363  0.1502  0.1335 -0.0264
46465W        W55065  24.974   7.003   8.380 -0.0651  0.2552 -0.1944
46466W        W55066   1.869   3.031   6.419  0.1046 -0.1348 -0.1472
46467W        W55067  20.687   3.816  16.154  0.1394 -0.1610  0.0214
46468W        W55068   0.578   0.713  22.757  0.1334  0.2368  0.1497
46469W        W55069  30.905   4.527  24.359  0.2505 -0.0584  0.1303
46470W        W55070  19.394   4.287  22.043 -0.0251 -0.0934  0.2254
46471W        W55071  20.847   2.744  18.329 -0.1470 -0.0249  0.4038
46472W        W55072  22.531   3.676   0.647  0.3681  0.0778  0.1974
46473W        W55073  30.179   6.399   5.171 -0.3357  0.2490 -0.0101
46474W        W55074  26.458   5.180   4.982  0.1103  0.1835  0.2321
46475W        W55075  27.035   6.365   4.969 -0.1669  0.0876 -0.1332
46476W        W55076  19.215   1.094  16.936 -0.3133  0.1614 -0.1570
46477W        W55077  17.582   3.732  26.199  0.3359 -0.0518  0.0973
46478W        W55078   0.721   6.048  10.157 -0.2865 -0.0608 -0.2172
46479W        W55079  11.493   7.411  21.963 -0.0847  0.1625 -0.3641
46480W        W55080  13.736   4.592  19.834  0.0742  0.0496  0.2751
46481W        W55081  18.049   3.442  23.207 -0.0267  0.2422  0.4672
46482W        W55082  29.083   7.549   1.515  0.1975  0.1066  0.0677
46483W        W55083  18.459   3.264   4.305 -0.0615 -0.2394 -0.0204
46484W        W55084  19.288   6.449   0.975  0.2444  0.2049  0.0796
46485W        W55085  14.847   6.649   4.538 -0.0273  0.4166 -0.0785
46486W        W55086  22.220   4.681   7.617 -0.2258 -0.3504 -0.0082
46487W        W55087  26.342   3.512   6.289  0.0625  0.0320  0.0669
46488W        W55088   5.189   5.595  23.130 -0.2216  0.4237  0.0282
46489W        W55089  30.468   0.976   7.405 -0.2593 -0.1865  0.0377
46490W        W55090  23.848   7.607   1.795 -0.0095 -0.0840  0.1913
46491W        W55091  23.026   2.672  17.533 -0.1162  0.2696  0.1712
46492W        W55092  31.109   5.935  20.900 -0.1990 -0.2887  0.2794
46493W        W55093  16.696   2.317   0.609  0.2630  0.0601  0.0388
46494W        W55094   8.498   0.051   3.599  0.1078  0.1354  0.1973
46495W        W55095   1.101   4.414  25.549  0.0555  0.0223 -0.4910
46496W        W55096  28.502   2.291  21.875  0.0026 -0.1434  0.0391
46497W        W55097  22.451   7.064   9.115  0.1892 -0.1922  0.2089
46498W        W55098   6.440   5.702  19.294  0.0502  0.3683  0.1328
46499W        W55099   0.939   5.653   3.776 -0.2325  0.0040  0.2586
46500W        W55100  19.196   7.185  10.148  0.2702 -0.1458 -0.1753
46501W        W55101  30.206   4.511  25.231  0.0369 -0.1058  0.0018
46502W        W55102  23.144   0.472   3.036  0.1768 -0.0566  0.2442
46503W        W55103  14.267   1.806  21.197 -0.4050 -0.0815 -0.1226
46504W        W55104  15.674   3.380   9.517  0.0947  0.0307 -0.0504
46505W        W55105   8.555   1.802   7.654 -0.2358 -0.0284 -0.0927
46506W        W55106  20.371   2.375  11.158 -0.0773 -0.0107  0.2205
46507W        W55107  13.609   6.891   2.350 -0.1397  0.0485 -0.0266
46508W        W55108  10.970   0.627   0.963  0.0989  0.1719 -0.1343
46509W        W55109  13.110   1.574  24.643  0.5944  0.0121  0.2065
46510W        W55110  30.474   0.500  25.203  0.0313 -0.0307 -0.1425
46511W        W55111  30.924   3.465  25.664 -0.0295  0.1824 -0.0426
46512W        W55112  13.174   5.490  20.599 -0.2414 -0.2808  0.0131
46513W        W55113  21.327   5.547   9.002 -0.1934 -0.0704 -0.1472
46514W        W55114  24.157   7.572  21.235 -0.2677 -0.1112 -0.0932
46515W        W55115  13.772   5.483   9.490 -0.0402 -0.0817  0.0656
46516W        W55116   7.146   1.521  24.284 -0.1826 -0.0008  0.1818
46517W        W55117   5.005   7.044  17.854 -0.1689 -0.2253 -0.0927
46518W        W55118  16.143   6.182  15.093 -0.1996 -0.0887 -0.0439
46519W        W55119   8.249   1.305  19.089 -0.0067  0.0548 -0.2338
46520W        W55120  10.728   1.650  18.847  0.2139  0.0784  0.0087
46521W        W55121  18.427   5.273  21.319 -0.2352 -0.1933 -0.1912
46522W        W55122  14.982   7.688   8.887 -0.1018 -0.0890  0.0333
46523W        W55123  29.881   3.787  17.861 -0.2017  0.0670  0.1868
46524W        W55124  26.612   5.039  15.339 -0.1244  0.0106  0.0829
46525W        W55125  13.288   5.140  24.236  0.1490 -0.0895 -0.1951
46526W        W55126   9.836   3.385  19.283  0.0828  0.0980 -0.1958
46527W        W55127  11.442   5.459   2.281 -0.0380  0.0757  0.1816
46528W        W55128   7.454   6.144  24.058  0.0083  0.1421  0.1790
46529W        W55129   6.681   3.550   4.931 -0.0446 -0.1870  0.0408
46530W        W55130  27.952   5.164   9.929  0.3486  0.1871 -0.0136
46531W        W55131   8.754   2.297  17.544 -0.2921 -0.0930 -0.0713
46532W        W55132  29.099   0.604   6.718 -0.2865  0.1021 -0.1342
46533W        W55133  27.537   2.668  21.900 -0.0686 -0.3146  0.1265
46534W        W55134   5.325   0.330   7.869  0.1642 -0.0963 -0.1797
46535W        W55135  26.484   4.306  18.716  0.1206 -0.2036  0.0909
46536W        W55136  16.813   3.725  23.312  0.1476  0.0604 -0.2307
46537W        W55137  10.107   4.112  22.434 -0.3743 -0.0132 -0.0161
46538W        W55138  25.195   1.210   7.059  0.1278  0.0604  0.0524
46539W        W55139   0.159   1.678  16.954  0.0078 -0.0157  0.0500
46540W        W55140  15.842   4.151   1.398  0.0517  0.1942  0.0836
46541W        W55141  16.186   6.600   9.505  0.0844 -0.2380 -0.0940
46542W        W55142   6.414   6.139   8.480 -0.1547 -0.0464 -0.0717
46543W        W55143   5.775   0.420   6.908  0.3437  0.0708 -0.1443
46544W        W55144  26.680   5.497   3.486  0.1312  0.4455  0.0595
46545W        W55145  14.237   2.822  18.659  0.0599 -0.1115 -0.1016
46546W        W55146   4.114   6.405  26.295  0.2359  0.0891  0.0047
46547W        W55147  11.280   1.848   5.220  0.2217  0.3950 -0.2083
46548W        W55148  25.927   6.915  21.900 -0.1753  0.1060  0.0235
46549W        W55149  27.171   6.643   1.254  0.0677 -0.1117  0.0898
46550W        W55150   1.765   1.035  18.764  0.1284 -0.2386  0.0865
46551W        W55151   9.192   3.221  14.738  0.0504 -0.2178 -0.0795
46552W        W55152  26.442   2.747  17.921 -0.0637 -0.1723  0.0696
46553W        W55153  21.284   6.690  18.300  0.1841  0.0640 -0.2636
46554W        W55154   0.438   2.355  24.682  0.0131  0.1187 -0.0481
46555W        W55155  16.661   1.061  17.740 -0.0249  0.0368  0.2017
46556W        W55156   4.234   3.496   3.083  0.2075 -0.0842  0.1865
46557W        W55157  20.654   2.887  21.158 -0.0302 -0.1469  0.0804
46558W        W55158   0.302   2.358  18.821 -0.1215  0.0907  0.0724
46559W        W55159   5.889   4.983  21.615 -0.4077 -0.0332 -0.0561
46560W        W55160  15.731   0.617  20.099 -0.1750  0.0979  0.2566
46561W        W55161   5.937   2.138  24.378  0.0997 -0.1062 -0.4416
46562W        W55162  20.668   7.319   6.103  0.1878  0.0497 -0.1815
46563W        W55163  10.404   6.258  17.885 -0.2140  0.1967  0.0114
46564W        W55164  28.591   1.475  18.211  0.0003 -0.0909 -0.2334
46565W        W55165  15.691   2.807  22.145 -0.2776  0.0822  0.0828
46566W        W55166  27.605   2.574   2.074  0.0385  0.1845 -0.0535
46567W        W55167  30.004   1.866   8.733  0.3353  0.3275  0.0888
46568W        W55168  16.197   0.571   3.708 -0.0779 -0.1111 -0.4317
46569W        W55169  19.271   6.426  17.648 -0.4493  0.3083 -0.1543
46570W        W55170  11.010   6.126   5.386  0.2765  0.1948  0.1869
46571W        W55171  22.728   4.046   4.647  0.0974 -0.1220  0.1828
46572W        W55172  24.590   2.833  22.363  0.1927  0.0052  0.2477
46573W        W55173  16.707   7.715  26.365  0.1433  0.0657 -0.0038
46574W        W55174  10.486   4.551  16.175  0.3303 -0.1588  0.1394
46575W        W55175   5.583   6.567   0.714 -0.1114 -0.2159 -0.2347
46576W        W55176  11.032   7.084  16.542 -0.1963  0.1263  0.0139
46577W        W55177   4.632   5.832   8.969 -0.0762 -0.1080 -0.1610
46578W        W55178  17.963   0.511  22.744  0.1528 -0.2100  0.1886
46579W        W55179   2.831   1.187  22.466 -0.2546  0.2271 -0.2716
46580W        W55180  24.670   7.310  21.932 -0.0629 -0.0686  0.1520
46581W        W55181  16.427   3.033  17.401 -0.2174 -0.0340 -0.0985
46582W        W55182  24.355   5.763  11.252 -0.0294 -0.4191  0.2729
46583W        W55183   5.460   2.887  10.585  0.0777 -0.5488 -0.1343
46584W        W55184   2.073   1.797  18.076 -0.3071 -0.0165  0.1162
46585W        W55185  12.536   4.087  16.793 -0.0928 -0.1529  0.1148
46586W        W55186   0.628   3.065   4.804  0.1462  0.2203 -0.0342
46587W        W55187   0.882   5.494  22.620 -0.0284 -0.0209  0.1036
46588W        W55188  23.076   1.726   8.337  0.2619 -0.1609  0.3184
46589W        W55189   6.213   5.762   1.401  0.1751  0.2300 -0.4028
46590W        W55190  17.703   0.472   8.583 -0.2320  0.0467  0.1802
46591W        W55191   7.295   1.400   8.098  0.1395  0.1062  0.0446
46592W        W55192  21.025   5.330  22.654  0.2979  0.1698 -0.0320
46593W        W55193  26.810   1.020  19.909  0.3173  0.1441 -0.1424
46594W        W55194  17.003   3.014  20.960  0.0843 -0.1480 -0.0469
46595W        W55195  18.461   7.416  15.531 -0.0088 -0.0533 -0.1055
46596W        W55196   1.649   7.174   4.511  0.2827 -0.1419 -0.1981
46597W        W55197  30.711   2.561  25.098 -0.2142  0.0082  0.1312
46598W        W55198   5.820   7.070   4.570 -0.1847  0.1481 -0.0044
46599W        W55199   1.306   1.775  23.567  0.5220 -0.3157  0.0257
46600W        W55200  19.631   3.213  19.235 -0.2155 -0.0072 -0.2016
46601W        W55201   6.321   4.401  17.190  0.0847  0.0696 -0.1331
46602W        W55202  18.321   0.823  14.995 -0.0265 -0.4293  0.0246
46603W        W55203   1.365   1.860  16.046  0.0842 -0.1976 -0.0805
46604W        W55204   5.487   1.936  18.798 -0.1303  0.0601 -0.1568
46605W        W55205  28.912   5.072   7.215 -0.0979 -0.0371  0.0203
46606W        W55206   9.497   2.491   7.863 -0.0546  0.2058 -0.1746
46607W        W55207   1.618   4.165   7.793  0.2227 -0.0172 -0.0203
46608W        W55208  15.084   6.524   3.833  0.1306  0.2904  0.0966
46609W        W55209   1.380   4.266   4.356  0.2793 -0.5340 -0.0400
46610W        W55210  27.813   2.003  22.056 -0.1553  0.1592 -0.2418
46611W        W55211   1.420   4.046   6.298 -0.0902  0.2362  0.1580
46612W        W55212  15.471   5.196  15.506 -0.2085 -0.2094 -0.0758
46613W        W55213  24.402   6.502   6.658  0.1262 -0.3145  0.0068
46614W        W55214  19.580   3.201   9.460 -0.4369  0.1201 -0.1915
46615W        W55215  17.852   6.237   7.624 -0.0442 -0.2061 -0.0788
46616W        W55216  12.522   7.295  21.379  0.0840 -0.2863 -0.0947
46617W        W55217  22.067   2.815  22.497 -0.2339 -0.1779  0.0922
46618W        W55218   9.261   1.587  20.895  0.2973  0.0943 -0.1118
46619W        W55219  30.441   1.385   8.807  0.0891  0.2016  0.3104
46620W        W55220  20.151   2.232   6.316 -0.2118 -0.1104 -0.0904
46621W        W55221  14.383   6.620   7.817 -0.1744 -0.1325 -0.0345
46622W        W55222  15.678   2.263   2.247 -0.1895  0.0038 -0.0271
46623W        W55223   2.238   5.490  26.138  0.2457  0.1021 -0.1235
46624W        W55224  27.541   4.507   3.894  0.3595  0.0702  0.1031
46625W        W55225   5.669   7.434   1.158 -0.3233 -0.2235 -0.0304
46626W        W55226   7.302   4.811   5.747  0.1033  0.1753  0.0391
46627W        W55227  10.734   4.889  10.058  0.0000 -0.2476 -0.1103
46628W        W55228   4.027   5.880  24.858 -0.0422 -0.2786  0.1474
46629W        W55229   6.979   4.131  26.071  0.0167  0.1795 -0.1100
46630W        W55230  25.813   4.591  16.535  0.1215 -0.1214 -0.1125
46631W        W55231  17.053   4.711  15.494 -0.1240 -0.0059  0.0372
46632W        W55232  10.228   1.380  10.023 -0.0206 -0.1543 -0.1876
46633W        W55233  22.410   7.723   2.022  0.1256 -0.0113  0.1019
46634W        W55234   3.089   6.771  24.700  0.1626  0.0475 -0.0227
46635W        W55235   8.903   6.434  18.156 -0.2741  0.0113 -0.0270
46636W        W55236  29.727   1.746  16.110 -0.1842 -0.1595  0.2451
46637W        W55237  22.258   3.414  21.260 -0.1826  0.0748  0.2588
46638W        W55238  24.729   3.076   0.111 -0.1799 -0.0163  0.2931
46639W        W55239  26.101   0.953  21.432 -0.0672  0.2676 -0.0543
46640W        W55240  24.108   0.937   6.993 -0.1356  0.3119 -0.3025
46641W        W55241  20.458   6.028   4.273  0.4549  0.1724 -0.1193
46642W        W55242  29.413   5.583   9.655 -0.0262 -0.2020 -0.0918
46643W        W55243  10.894   3.126  10.820 -0.0506  0.2953  0.1382
46644W        W55244  22.771   4.980   5.515 -0.0758  0.1247  0.2140
46645W        W55245  22.881   6.239   6.933  0.1376 -0.0292  0.0591
46646W        W55246   4.009   3.106  24.841  0.0478 -0.1037 -0.0308
46647W        W55247   6.118   6.846  21.399 -0.0414 -0.0015 -0.2141
46648W        W55248  22.104   7.673  25.699 -0.1225  0.0235 -0.0419
46649W        W55249  23.195   7.717  17.008  0.2140 -0.0262 -0.2446
46650W        W55250  24.987   4.014   8.577  0.0708  0.1353  0.0438
46651W        W55251  20.784   5.346  18.233 -0.0072 -0.2456 -0.1367
46652W        W55252  23.852   7.032   6.425 -0.0911  0.0446  0.2074
46653W        W55253  18.872   2.456  16.364 -0.0132 -0.2629  0.0344
46654W        W55254  15.111   2.014   8.639 -0.1023 -0.4187  0.0810
46655W        W55255   8.900   0.823   0.791  0.0012  0.0773  0.0741
46656W        W55256  12.355   3.851  19.829  0.1265 -0.1492  0.0155
46657W        W55257  29.860   6.335  22.102 -0.0487  0.1589  0.3039
46658W        W55258  23.924   0.816  11.502 -0.3259  0.0845  0.4173
46659W        W55259   3.336   0.231   6.877 -0.1232 -0.4826 -0.1034
46660W        W55260  14.344   2.527   2.306 -0.1078 -0.1338 -0.0935
46661W        W55261  26.293   0.926  20.955 -0.1118 -0.0223  0.5152
46662W        W55262   1.124   3.367  21.061 -0.2054  0.1280  0.0010
46663W        W55263  17.123   1.965   2.177  0.0167 -0.0861  0.3283
46664W        W55264  16.939   6.301  18.951 -0.0985 -0.0899 -0.0163
46665W        W55265  29.055   7.564   6.361  0.0200  0.0209  0.1358
46666W        W55266  13.991   5.839   8.185  0.0970 -0.1287 -0.2502
46667W        W55267  15.100   0.405  17.284  0.3624 -0.1108  0.1837
46668W        W55268  20.790   2.155   1.069 -0.1241  0.1789 -0.0443
46669W        W55269  21.860   5.669   6.865  0.0162  0.0650  0.1090
46670W        W55270  15.608   2.921  10.239  0.1523  0.3128  0.0288
46671W        W55271   1.206   1.608  11.585  0.0129 -0.0985 -0.2489
46672W        W55272   0.072   3.370  10.040 -0.2405  0.0018 -0.1521
46673W        W55273  11.148   0.070   4.523  0.0318  0.2005  0.0305
46674W        W55274   4.583   4.060   9.949 -0.2197 -0.1420  0.1117
46675W        W55275   9.866   4.699   8.413  0.0494  0.1442 -0.0557
46676W        W55276   0.302   3.351   3.344  0.2688 -0.1924 -0.3475
46677W        W55277  11.436   6.213   5.745 -0.1660  0.1218  0.0340
46678W        W55278  26.249   4.340   4.387 -0.3783 -0.1540  0.2428
46679W        W55279  12.820   2.352   5.629  0.1110 -0.1476  0.0219
46680W        W55280   3.626   5.095  16.455 -0.1762  0.0314 -0.3130
46681W        W55281  30.223   6.243   6.709 -0.2463 -0.0897 -0.1956
46682W        W55282  21.454   1.222  19.182 -0.1266  0.2444  0.1557
46683W        W55283   8.122   0.461  10.536 -0.0928 -0.0911 -0.1465
46684W        W55284   1.643   4.889  24.356 -0.0619 -0.0152 -0.0307
46685W        W55285  13.238   5.823   7.567 -0.1802 -0.0651 -0.2225
46686W        W55286   8.369   1.038   4.551 -0.1185 -0.0008  0.1790
46687W        W55287  24.054   6.828   3.212  0.3866 -0.4521 -0.2015
46688W        W55288  20.495   2.773   6.981 -0.1438  0.3139  0.0491
46689W        W55289   9.312   1.104   5.398 -0.1226  0.0991 -0.0200
46690W        W55290   4.157   5.721   5.024  0.2354 -0.0960 -0.2326
46691W        W55291  12.649   1.478   1.782  0.0670 -0.0513 -0.0202
46692W        W55292   2.904   3.792  15.290 -0.1702  0.2037 -0.0925
46693W        W55293  23.558   3.624  17.652 -0.1870  0.0745 -0.1594
46694W        W55294  26.930   6.441  18.664  0.0568  0.0602 -0.2222
46695W        W55295   4.879   7.721   7.345 -0.3004  0.1231  0.3436
46696W        W55296  25.881   4.536  25.046  0.0613  0.1288 -0.0129
46697W        W55297  18.752   2.860   4.526  0.2495  0.4506 -0.0210
46698W        W55298   1.674   4.950   8.837 -0.2189  0.1073 -0.2748
46699W        W55299  26.022   3.113   6.305  0.0897  0.0082  0.0724
46700W        W55300  20.120   5.696  25.202  0.1516  0.2657 -0.1859
46701W        W55301  11.890   0.165  17.627 -0.2515  0.1234  0.2919
46702W        W55302   6.406   2.861  24.026 -0.1448 -0.1087 -0.0475
46703W        W55303  21.882   6.891  26.222 -0.0668  0.0670 -0.0621
46704W        W55304   0.044   6.748  20.626  0.0881  0.1714  0.0405
46705W        W55305  13.503   0.850   3.217  0.1756  0.2201  0.2541
46706W        W55306  25.518   3.240  18.718 -0.5120 -0.0123 -0.0186
46707W        W55307  28.555   5.017   9.570  0.1864 -0.0292 -0.1313
46708W        W55308  11.252   4.510  11.199 -0.0826 -0.2228 -0.1484
46709W        W55309  14.332   3.144  21.648  0.0455 -0.0441  0.1205
46710W        W55310  27.960   3.320  25.437 -0.0375 -0.1724 -0.0525
46711W        W55311  12.671   2.567  20.653 -0.2955 -0.1636 -0.3124
46712W        W55312  21.004   5.976  16.974 -0.0882  0.0278 -0.2051
46713W        W55313  24.456   1.047  26.186  0.0431 -0.3483  0.0414
46714W        W55314  27.374   6.023   4.506  0.3386 -0.1345 -0.2639
46715W        W55315   6.249   4.815  19.918 -0.1713  0.2182 -0.1919
46716W        W55316  10.048   3.287  21.421 -0.1973  0.0132 -0.1533
46717W        W55317   3.689   1.110   4.543  0.1122  0.2617  0.0515
46718W        W55318   6.030   1.304   5.941 -0.1088  0.0660  0.1883
46719W        W55319   9.265   3.547  22.823 -0.2651  0.0499  0.2595
46720W        W55320  23.901   5.413   1.172  0.0945 -0.3390  0.2375
46721W        W55321  30.856   0.492   2.752  0.0984  0.0635 -0.0798
46722W        W55322  20.190   3.588  18.945  0.1546 -0.1296 -0.0280
46723W        W55323  23.290   0.295   6.944 -0.0492 -0.0994  0.0967
46724W        W55324  15.393   5.466  17.431  0.0910 -0.0441  0.0336
46725W        W55325  26.449   1.808   1.177  0.2428 -0.2733 -0.0171
46726W        W55326  19.001   3.129  18.443 -0.0158  0.0702 -0.2483
46727W        W55327  25.293   2.608   2.599  0.0484 -0.0616 -0.0003
46728W        W55328  29.249   2.087  11.072 -0.1838  0.2768 -0.0866
46729W        W55329  11.144   3.143  19.669 -0.2145 -0.1175  0.0775
46730W        W55330   8.119   6.430   6.959  0.0073 -0.2594 -0.0621
46731W        W55331  10.119   1.528   6.942 -0.0099 -0.0980  0.1285
46732W        W55332  27.987   3.224  22.066 -0.0864 -0.0540  0.0056
46733W        W55333  12.636   3.412   3.601 -0.0792 -0.2552 -0.0966
46734W        W55334   2.645   1.611  16.168 -0.2050  0.1234 -0.0196
46735W        W55335  23.349   0.650   3.948  0.0481  0.2251 -0.4211
46736W        W55336  16.479   3.831  15.964 -0.3077  0.0950 -0.4861
46737W        W55337   7.133   5.839   4.518 -0.2331  0.1653  0.2697
46738W        W55338  15.139   3.126  10.299 -0.2632  0.1470 -0.0562
46739W        W55339  24.967   6.009   1.232 -0.1035  0.0058 -0.1492
46740W        W55340  11.711   2.596   1.543  0.0798 -0.2183  0.1838
46741W        W55341   2.261   6.823  21.247 -0.1143  0.1350  0.1850
46742W        W55342   6.401   2.805  10.308  0.0248 -0.0249 -0.0791
46743W        W55343  15.219   4.644  20.792 -0.2184 -0.0253 -0.0785
46744W        W55344  23.217   6.567   4.683 -0.0215 -0.1213 -0.2844
46745W        W55345  26.813   3.854  23.426 -0.1579  0.1615 -0.1514
46746W        W55346   6.625   1.192  25.327 -0.1573  0.2213 -0.0844
46747W        W55347  24.076   6.312   3.094 -0.2030 -0.1447 -0.2871
46748W        W55348   5.557   6.468  17.195 -0.0262  0.2161 -0.1202
46749W        W55349   1.839   2.607  10.265 -0.3120  0.1069  0.1654
46750W        W55350  24.453   3.413   0.844 -0.3047 -0.2273 -0.0394
46751W        W55351  20.844   1.268   6.398  0.1235  0.3138  0.2967
46752W        W55352  28.569   7.363   9.716 -0.3116  0.1707  0.3490
46753W        W55353   3.754   1.126   0.877 -0.1073  0.0108  0.3795
46754W        W55354  10.437   4.775   8.201  0.0286 -0.1104  0.2438
46755W        W55355  22.350   0.174  16.022  0.1475 -0.1755  0.1912
46756W        W55356   7.052   4.289   2.377 -0.2963  0.1417 -0.2640
46757W        W55357  16.543   2.557   4.819 -0.1942  0.0414  0.0248
46758W        W55358  12.705   5.031   4.419  0.1249 -0.1910  0.1650
46759W        W55359   7.427   4.983  21.273  0.1102 -0.0453 -0.2233
46760W        W55360  26.505   4.906   2.398 -0.0739 -0.2328  0.5326
46761W        W55361  16.686   4.393  25.391  0.0315 -0.1807 -0.2717
46762W        W55362  12.320   7.428   0.320 -0.1346  0.0923  0.0565
46763W        W55363  24.363   1.624   1.183 -0.2256 -0.1199 -0.1005
46764W        W55364  24.547   1.751   1.742  0.2022 -0.2300 -0.3071
46765W        W55365  15.240   3.693   6.885  0.1321  0.1583 -0.2266
46766W        W55366   0.394   5.577  19.295 -0.0406 -0.0239  0.5353
46767W        W55367  11.170   5.135  10.055 -0.0174  0.0581 -0.2457
46768W        W55368   6.858   6.234  25.288 -0.0525 -0.3342 -0.0680
46769W        W55369  27.762   0.884  21.490 -0.0909  0.1250  0.2509
46770W        W55370  13.977   3.642   3.624 -0.2284 -0.2797  0.0224
46771W        W55371  24.801   5.814   9.954  0.1123 -0.0672 -0.4659
46772W        W55372  19.587   7.702   8.478 -0.0922  0.0550  0.2579
46773W        W55373   0.621   4.983   5.704  0.1137  0.1585 -0.0889
46774W        W55374  29.771   3.206  10.170 -0.1621  0.0639 -0.2288
46775W        W55375  24.312   0.099   6.121 -0.1266 -0.0911  0.0847
46776W        W55376   9.347   0.093  24.205  0.2438  0.0527 -0.2253
46777W        W55377   7.195   1.898  22.341  0.0463  0.1690 -0.1155
46778W        W55378  12.608   1.037   1.105 -0.2682  0.2684  0.2831
46779W        W55379  10.318   7.078   8.615  0.0500 -0.3127 -0.1222
46780W        W55380  12.417   7.284  22.192 -0.0564 -0.2154  0.0970
46781W        W55381  19.130   1.217   3.559  0.0587 -0.0726  0.0581
46782W        W55382  28.550   5.312  20.830  0.0887  0.0063 -0.4289
46783W        W55383  30.252   6.122  20.888 -0.0604  0.0307  0.2281
46784W        W55384   3.031   5.602  23.928  0.1268  0.0059  0.3475
46785W        W55385  19.296   3.753   7.112  0.1776  0.2445 -0.0767
46786W        W55386  11.854   6.235  24.622  0.2191  0.1682 -0.0721
46787W        W55387  30.323   3.177   8.422  0.0069  0.0877  0.0613
46788W        W55388   7.486   1.928   8.584  0.0094 -0.1783  0.2557
46789W        W55389  12.248   4.314   4.741 -0.1409 -0.0295  0.1050
46790W        W55390  28.611   1.236   7.631 -0.1285  0.1012  0.4091
46791W        W55391  12.990   6.789   4.541  0.2921  0.0695 -0.1612
46792W        W55392  13.036   1.485  26.296  0.3582 -0.1143 -0.1096
46793W        W55393   0.791   6.586   1.109 -0.0371 -0.0009  0.0525
46794W        W55394   4.274   7.123   1.872  0.4220  0.0718  0.1003
46795W        W55395  13.850   2.560   3.684  0.2034 -0.3385  0.4049
46796W        W55396  12.198   4.514  23.695 -0.0029 -0.0076 -0.1389
46797W        W55397  11.636   0.685   6.540 -0.0928 -0.0016 -0.0829
46798W        W55398   1.117   5.836   7.028  0.0030 -0.0474 -0.0465
46799W        W55399  29.117   2.776  26.286 -0.0846  0.1193  0.0055
46800W        W55400  29.318   0.062  16.740  0.1211  0.0705 -0.3807
46801W        W55401   5.636   6.546   2.958 -0.1075 -0.0112 -0.0034
46802W        W55402  20.000   6.129   5.593  0.0494  0.0841  0.0172
46803W        W55403   0.887   6.269  23.249 -0.0804 -0.1145  0.0552
46804W        W55404  22.714   3.295  16.393 -0.4572  0.2992  0.1159
46805W        W55405  17.168   6.801  17.684 -0.0002  0.0930 -0.2894
46806W        W55406   1.092   5.102  21.759  0.3488  0.1279 -0.3612
46807W        W55407  25.463   1.561   1.714 -0.0189 -0.0366  0.1859
46808W        W55408  15.848   0.011   5.320 -0.0842 -0.1275  0.1008
46809W        W55409   4.374   1.049  18.393 -0.0664  0.1348 -0.0500
46810W        W55410  18.346   2.757  26.346 -0.0030 -0.2101 -0.0405
46811W        W55411  26.076   4.963  22.724 -0.1548  0.0290 -0.1036
46812W        W55412  24.453   4.093  18.071 -0.0621  0.0542  0.1206
46813W        W55413   6.009   5.808   7.836 -0.0079 -0.1407 -0.4653
46814W        W55414  24.741   3.975   5.739 -0.3039  0.1723  0.1048
46815W        W55415  20.960   1.405  17.341  0.0547 -0.3443  0.0588
46816W        W55416   6.945   6.639  21.089  0.0871 -0.2441 -0.1671
46817W        W55417  11.522   7.137   5.228 -0.0922  0.0991 -0.1045
46818W        W55418  28.927   1.540  25.868 -0.1932  0.3462  0.0462
46819W        W55419  30.987   7.074   9.703  0.3245  0.0214 -0.3988
46820W        W55420  27.572   1.666  24.315  0.1941  0.0358 -0.2786
46821W        W55421   0.863   4.788   8.203  0.1662  0.0744  0.0385
46822W        W55422   3.115   6.748  20.832  0.0426 -0.1008 -0.2388
46823W        W55423  10.471   4.938  19.919  0.0109  0.3496  0.0614
46824W        W55424  22.546   4.583  18.617  0.0278 -0.0299 -0.1849
46825W        W55425  28.559   0.149  21.899  0.0535 -0.0298 -0.2726
46826W        W55426  24.745   0.750  23.382 -0.0823 -0.0508 -0.0787
46827W        W55427   8.020   6.291  16.358 -0.2156 -0.0914  0.1936
46828W        W55428  30.352   0.400  15.802  0.3137 -0.3447 -0.4092
46829W        W55429  22.373   2.869  16.979  0.1210  0.0889  0.2521
46830W        W55430   1.965   2.181  25.358 -0.0757 -0.0836  0.3784
46831W        W55431   0.186   4.985  21.102  0.0527 -0.1135  0.0236
46832W        W55432  23.105   6.827  22.882 -0.3809  0.3874 -0.2149
46833W        W55433  27.892   5.670   1.714  0.1703  0.0785 -0.1527
46834W        W55434   8.944   5.176   0.414  0.0933  0.0936  0.0611
46835W        W55435  14.685   6.537  23.519 -0.1273  0.0974  0.0876
46836W        W55436  18.725   1.417  17.872 -0.3653 -0.1575 -0.3165
46837W        W55437  18.747   2.305   9.669  0.0394  0.1105 -0.1774
46838W        W55438  17.659   3.307  10.688 -0.3065  0.0700 -0.0338
46839W        W55439   8.155   2.106   3.794  0.2574  0.2413 -0.3130
46840W        W55440  16.613   6.263   9.848  0.1262  0.0105 -0.2657
46841W        W55441   2.611   0.304   4.472 -0.1742  0.1600 -0.1828
46842W        W55442   5.429   1.385   2.731  0.1016  0.0270  0.0025
46843W        W55443  15.523   5.510   6.795 -0.0432  0.1669  0.1334
46844W        W55444  26.632   2.717   4.031  0.2201 -0.1014  0.4134
46845W        W55445   4.828   5.983  22.035  0.2819  0.0187 -0.2607
46846W        W55446  19.359   2.030  23.549 -0.2308  0.0639 -0.0422
46847W        W55447  23.925   1.513   8.127  0.1518  0.0705 -0.0553
46848W        W55448   1.117   1.377  20.890  0.1836 -0.3153  0.0069
46849W        W55449  14.266   4.579   9.184 -0.1192  0.2140  0.2367
46850W        W55450  27.597   4.461  24.232 -0.0173 -0.0621  0.0863
46851W        W55451  20.906   6.137   5.351  0.0295 -0.1028 -0.0161
46852W        W55452  17.348   0.583  25.932  0.3641  0.0569  0.0361
46853W        W55453   0.140   7.241  23.414 -0.1283 -0.0597 -0.2532
46854W        W55454  16.015   0.074   6.649  0.0784  0.2547  0.2623
46855W        W55455  22.740   7.344   8.697 -0.1436  0.1304 -0.1254
46856W        W55456   3.312   7.077   9.331  0.2298  0.1782  0.1375
46857W        W55457  27.487   2.022   3.015  0.1295  0.0711  0.1378
46858W        W55458   1.721   5.355   7.503 -0.1795 -0.0059  0.0448
46859W        W55459   0.570   6.467  21.272 -0.1069 -0.1580 -0.2251
46860W        W55460  26.714   2.292  16.739  0.1525 -0.0417 -0.0134
46861W        W55461  13.418   5.111  19.185  0.0636 -0.1412  0.0643
46862W        W55462  11.848   1.556  23.782 -0.4212  0.0766  0.1111
46863W        W55463   5.418   0.878   0.401 -0.3546  0.0378 -0.0640
46864W        W55464  21.779   3.297  21.946 -0.0741  0.2673  0.2384
46865W        W55465   7.168   3.851  25.714 -0.2279  0.2125 -0.2008
46866W        W55466  25.959   7.183   3.093  0.1535 -0.0224  0.1931
46867W        W55467   0.163   2.680  15.791  0.1191 -0.2682 -0.1394
46868W        W55468  28.727   3.126   1.149  0.0535  0.1264  0.3549
46869W        W55469  22.937   6.282  18.721  0.0521  0.1319 -0.2796
46870W        W55470   6.966   0.715  20.162 -0.0059 -0.3805  0.2068
46871W        W55471   1.861   0.144  16.201  0.0037  0.1779  0.2686
46872W        W55472   2.399   2.553  18.349  0.0729  0.1941  0.1608
46873W        W55473  20.209   4.723  20.755 -0.1591 -0.0982  0.1268
46874W        W55474  15.865   2.571  23.561 -0.2524 -0.2874  0.1088
46875W        W55475  13.152   7.642  18.745  0.0957 -0.2277 -0.0166
46876W        W55476  26.972   3.537  18.862 -0.2223  0.0008  0.2453
46877W        W55477  14.444   6.425  20.531  0.0098 -0.0488  0.1841
46878W        W55478   7.388   4.627  10.221 -0.0240 -0.0259 -0.0315
46879W        W55479   1.658   2.180   4.533 -0.1031  0.0304  0.3034
46880W        W55480  25.486   0.912   2.710 -0.0737 -0.2293 -0.1948
46881W        W55481  19.316   4.489   7.180 -0.0443 -0.0264 -0.2438
46882W        W55482  23.917   6.828   2.179  0.1133 -0.0035  0.0443
46883W        W55483  26.039   7.792  20.257  0.1094  0.2141 -0.1032
46884W        W55484  17.006   2.713  21.393 -0.1781  0.0813 -0.1157
46885W        W55485   1.423   0.100  10.925 -0.3376  0.0675 -0.0352
46886W        W55486   1.346   0.610   9.088 -0.1264  0.1556 -0.0805
46887W        W55487   5.003   5.195   5.534  0.0634  0.0178 -0.0003
46888W        W55488  19.884   1.309  16.166 -0.1774  0.2199 -0.3757
46889W        W55489   0.401   4.771  18.925 -0.3087  0.2197  0.1384
46890W        W55490  23.678   6.937  19.076 -0.1873 -0.1378 -0.0476
46891W        W55491   0.933   3.568  23.263  0.0392 -0.0767  0.0309
46892W        W55492   8.729   2.342   2.537  0.0955  0.1817  0.2286
46893W        W55493   1.444   3.208   1.639 -0.2678  0.1597  0.0677
46894W        W55494  11.809   4.679  18.324 -0.1711 -0.0376  0.1981
46895W        W55495   7.125   3.940   2.031 -0.0819 -0.0995  0.0093
46896W        W55496   0.046   7.799  18.489 -0.0386 -0.1749 -0.1616
46897W        W55497   3.706   2.916   6.709  0.2326  0.1699  0.1768
46898W        W55498  18.737   3.652   9.645 -0.1101  0.0600 -0.2022
46899W        W55499  23.097   7.238  22.068 -0.2699  0.1509  0.0440
46900W        W55500   5.073   4.582  24.990 -0.1399  0.4039 -0.3565
46901W        W55501  17.648   5.816   8.548  0.0327 -0.0044  0.1818
46902W        W55502   1.622   5.863   5.921 -0.2160 -0.0163  0.2040
46903W        W55503   6.911   3.655   1.221 -0.3609  0.0631 -0.1243
46904W        W55504  18.425   1.915  26.324  0.2672  0.1186 -0.1047
46905W        W55505  23.547   2.024   1.406 -0.0035  0.0504  0.2908
46906W        W55506   9.487   1.524   5.279  0.0099  0.1698 -0.1558
46907W        W55507   5.008   1.668   6.941 -0.3211  0.1800 -0.0068
46908W        W55508  29.377   3.935  20.918 -0.0356 -0.1067  0.2488
46909W        W55509   9.709   4.133   9.917  0.1362 -0.2675 -0.0551
46910W        W55510  30.816   1.411   0.808 -0.0327  0.0831  0.1118
46911W        W55511  10.829   6.626   3.826 -0.0996 -0.2383  0.0413
46912W        W55512  28.149   4.647   3.335 -0.0012  0.1886  0.0853
46913W        W55513  17.992   6.189  17.817 -0.0373  0.1173  0.1033
46914W        W55514   7.705   1.759  16.747 -0.2536  0.2992  0.1752
46915W        W55515   1.259   1.976   8.981 -0.3015  0.0525  0.0634
46916W        W55516  11.283   6.637   7.539  0.0575  0.1667  0.2630
46917W        W55517  28.479   6.133  23.676  0.2741 -0.1902  0.2804
46918W        W55518  12.511   4.440  24.341 -0.1281  0.2561  0.0900
46919W        W55519   9.542   1.187  16.971 -0.0549  0.1640 -0.3116
46920W        W55520   9.679   3.125   8.285 -0.0192 -0.0349  0.1494
46921W        W55521  17.309   3.414  25.982 -0.1470 -0.1055 -0.2029
46922W        W55522  13.107   5.057  15.182 -0.0780  0.0004  0.0438
46923W        W55523  24.833   6.152   2.783  0.0008 -0.0706 -0.3633
46924W        W55524   5.625   2.314  21.126  0.0945  0.0333  0.0841
46925W        W55525  14.186   1.457  22.787 -0.1138 -0.1067  0.0382
46926W        W55526  20.738   4.422  10.003  0.4077 -0.2149  0.2062
46927W        W55527  10.989   0.761   4.996  0.0824  0.1454  0.0277
46928W        W55528  30.088   2.742  10.282  0.0825 -0.1276 -0.1525
46929W        W55529  19.653   5.753  26.315 -0.1395 -0.0648  0.1247
46930W        W55530  15.423   3.263  15.123 -0.0634 -0.0342  0.0257
46931W        W55531   0.043   4.514  19.920  0.0949 -0.0375  0.0971
46932W        W55532  20.627   4.276  24.854  0.1771 -0.3014 -0.1058
46933W        W55533   0.151   7.783   2.842  0.1852  0.4678 -0.1867
46934W        W55534   7.042   5.228  25.387  0.1822 -0.1934  0.3424
46935W        W55535  27.166   2.722  20.841  0.1279  0.1654 -0.2115
46936W        W55536  16.147   4.601  24.346 -0.0476  0.1353 -0.1316
46937W        W55537  20.572   2.346  16.425 -0.0570  0.2975  0.0668
46938W        W55538  16.029   6.820  17.726  0.0745 -0.0598  0.2636
46939W        W55539  24.194   3.489   6.238  0.0836 -0.0335  0.2043
46940W        W55540  26.142   3.015  24.502 -0.1623 -0.0658  0.2567
46941W        W55541  30.122   5.206  19.685 -0.1494 -0.1338 -0.0353
46942W        W55542  10.100   4.714  24.950 -0.1259 -0.1581 -0.0748
46943W        W55543  21.256   7.490  22.364 -0.0665  0.1683  0.1773
46944W        W55544  24.120   4.137  24.224  0.1648  0.2793  0.4288
46945W        W55545  17.685   4.730  23.369  0.0370 -0.0557 -0.0517
46946W        W55546  24.146   6.620  15.389 -0.2295  0.1556  0.2089
46947W        W55547   6.743   5.693  15.805 -0.1416 -0.1793 -0.2118
46948W        W55548  13.270   1.857  20.983  0.0931  0.1067  0.0464
46949W        W55549  14.155   4.003  23.029  0.1424  0.2252  0.1895
46950W        W55550  14.573   2.558   6.046  0.1139 -0.0442 -0.0237
46951W        W55551  20.617   3.570  20.411  0.2079  0.3633 -0.0064
46952W        W55552   9.619   0.831   3.257 -0.5162  0.0286 -0.0397
46953W        W55553  19.901   5.590   5.493 -0.1683 -0.1984 -0.3607
46954W        W55554   4.119   3.436   4.650 -0.3124 -0.0280  0.0824
46955W        W55555  19.575   2.228   9.867 -0.1135  0.0715  0.1857
46956W        W55556  30.220   4.788   9.623 -0.0527 -0.0907 -0.0113
46957W        W55557  26.534   2.712  24.570  0.0704  0.2157  0.0393
46958W        W55558  27.478   2.444  17.870  0.0915  0.1332  0.0247
46959W        W55559  17.411   3.909  24.801  0.0010  0.2014 -0.0028
46960W        W55560  20.087   3.802   4.544  0.2925  0.1525 -0.0005
46961W        W55561  16.354   3.064   7.344  0.0839  0.1183 -0.0143
46962W        W55562   7.776   5.497  14.672 -0.0060 -0.1017  0.1980
46963W        W55563  15.087   6.887  10.905 -0.0212  0.0926  0.2780
46964W        W55564   6.447   0.977  21.218  0.0671 -0.1589  0.0035
46965W        W55565   7.497   0.555   1.221 -0.0338  0.1436 -0.0080
46966W        W55566   6.700   1.463   8.534 -0.3181 -0.2057 -0.0373
46967W        W55567   4.245   2.297  16.272  0.1589  0.0113  0.0307
46968W        W55568   9.817   3.226  17.358 -0.0871 -0.0168  0.0680
46969W        W55569   4.553   6.580  23.075  0.1210 -0.0654 -0.0471
46970W        W55570  10.461   6.376  23.859 -0.0984  0.1099 -0.0152
46971W        W55571  23.627   0.122   1.463  0.1577 -0.0545 -0.1165
46972W        W55572   5.388   0.374   2.703 -0.4196 -0.0060 -0.1327
46973W        W55573  28.817   3.027   2.400 -0.1370 -0.1420  0.2163
46974W        W55574  15.049   7.703   2.007 -0.0985  0.0181  0.0208
46975W        W55575  23.524   0.305  26.187  0.0377  0.1561 -0.0877
46976W        W55576  11.720   6.970  26.097 -0.0429 -0.2205  0.0762
46977W        W55577  30.890   1.781   7.393  0.0670  0.1922  0.0661
46978W        W55578  21.587   0.120   4.897  0.1989  0.1877 -0.0808
46979W        W55579  31.008   0.268  25.439  0.2477  0.0146  0.0335
46980W        W55580  16.322   6.560   5.550 -0.0310 -0.0804  0.1555
46981W        W55581  23.658   0.187   4.529  0.1671 -0.0416 -0.0936
46982W        W55582  31.099   1.768   4.092 -0.5057  0.0112  0.1407
46983W        W55583   3.713   7.013   4.470 -0.0207  0.1458  0.1844
46984W        W55584  20.716   4.852  20.784 -0.0528  0.0628 -0.0129
46985W        W55585   2.644   4.578   4.778  0.0672  0.3799  0.0885
46986W        W55586  21.721   3.901   1.897 -0.0522  0.1605 -0.3701
46987W        W55587   2.050   2.603  15.627  0.2079  0.0939  0.1760
46988W        W55588  25.713   2.478  20.723  0.2300 -0.3793  0.1197
46989W        W55589  14.467   2.576  15.719  0.0994 -0.1856  0.5949
46990W        W55590   4.367   3.472   7.495 -0.2930  0.3497  0.4045
46991W        W55591   8.788   1.624  16.053  0.4266  0.1124 -0.1264
46992W        W55592  22.040   3.030  21.604 -0.1278  0.2346 -0.1146
46993W        W55593  26.948   0.909   1.260 -0.0664  0.0778  0.0361
46994W        W55594   7.666   6.798  10.082  0.2268 -0.3346 -0.2627
46995W        W55595  15.303   0.583  23.929  0.0012 -0.1519 -0.0263
46996W        W55596   4.005   0.961   3.847 -0.1038  0.0013 -0.0418
46997W        W55597  14.185   6.780   1.670  0.0331  0.3656 -0.2232
46998W        W55598   1.144   2.618  22.001 -0.2074  0.1188  0.1765
46999W        W55599  24.481   2.896  24.731 -0.0717 -0.1720  0.0780
47000W        W55600  25.562   5.242   6.150  0.0985 -0.0355 -0.1389
47001W        W55601  20.909   4.590   1.591 -0.1436  0.1006 -0.0087
47002W        W55602  24.316   1.043  10.849  0.1003  0.1568  0.1974
47003W        W55603  15.465   2.733   8.358 -0.2349 -0.4414  0.0072
47004W        W55604  21.104   4.647   6.722  0.0150  0.0157 -0.2499
47005W        W55605   3.060   0.394  21.897 -0.1684 -0.2127  0.2221
47006W        W55606  27.461   2.641  17.165  0.1438  0.0014  0.1117
47007W        W55607   6.662   1.623  17.177  0.2043  0.0319 -0.1674
47008W        W55608  18.247   5.345  22.247 -0.0288  0.0810 -0.0024
47009W        W55609  13.226   5.559  11.270  0.0435  0.0412  0.1925
47010W        W55610   3.004   3.227  22.593 -0.0850 -0.0112  0.1492
47011W        W55611  17.137   3.139   2.803  0.0387 -0.2859 -0.1489
47012W        W55612  29.362   4.421  25.668  0.1147 -0.3447  0.1505
47013W        W55613  19.511   1.009   2.653  0.1127 -0.1829  0.0900
47014W        W55614  19.606   5.967   5.308  0.1169 -0.1650  0.1657
47015W        W55615  29.117   5.437  19.386  0.1562  0.1870 -0.1694
47016W        W55616  26.364   6.811   2.008 -0.1367 -0.0017 -0.2782
47017W        W55617  10.999   0.136   8.613  0.2909 -0.1685  0.4207
47018W        W55618  16.094   6.290  16.045  0.2215  0.0433  0.1021
47019W        W55619  26.427   5.736   8.976  0.0501  0.2256  0.1632
47020W        W55620  19.812   0.003  25.932 -0.0853 -0.0618  0.0728
47021W        W55621  11.944   3.805  18.913 -0.1858 -0.1215 -0.0098
47022W        W55622  25.115   1.540  17.404 -0.0484  0.1004 -0.0542
47023W        W55623  14.641   2.613  25.254  0.2411 -0.1369  0.3010
47024W        W55624  14.445   6.949  23.203  0.1315 -0.1249  0.0293
47025W        W55625  30.209   7.498  10.408  0.0420 -0.4571  0.0504
47026W        W55626  26.095   0.309  23.556 -0.1092 -0.1156 -0.0645
47027W        W55627   9.379   0.637  18.397  0.2868  0.0172 -0.0687
47028W        W55628   2.044   4.749  22.208  0.0025 -0.2625  0.0899
47029W        W55629  20.918   5.122  24.266  0.1748 -0.0451 -0.0185
47030W        W55630  24.986   0.050  21.443  0.1957 -0.1772  0.0696
47031W        W55631  12.096   6.026   8.989  0.1871  0.0380  0.1491
47032W        W55632  20.158   7.604   2.210  0.2042 -0.3815  0.1080
47033W        W55633   1.939   4.810  24.769  0.3755 -0.1934 -0.0833
47034W        W55634  10.499   7.543  19.909 -0.3475 -0.2879  0.0698
47035W        W55635  18.033   0.947   4.855 -0.0511  0.1235  0.0923
47036W        W55636  17.339   3.597  22.770  0.1474 -0.0280  0.1489
47037W        W55637   8.644   4.094  24.451 -0.1586  0.0598  0.3295
47038W        W55638  14.297   4.626  16.758 -0.1299  0.5106 -0.4469
47039W        W55639  12.804   6.176   2.949  0.4788  0.0701 -0.2332
47040W        W55640  22.429   0.714  22.245  0.1728 -0.0702  0.0669
47041W        W55641  12.703   5.978   8.269  0.0430 -0.0034  0.0209
47042W        W55642  13.559   1.831  16.031 -0.3936  0.1554  0.2315
47043W        W55643   8.677   3.524  20.828 -0.0371  0.4007  0.2411
47044W        W55644  24.696   3.594   5.391  0.1395 -0.2332  0.0192
47045W        W55645  20.288   2.916  24.805  0.0817 -0.1059  0.0649
47046W        W55646  24.641   1.502   4.145 -0.1978 -0.2305 -0.1324
47047W        W55647  11.521   6.319  22.988 -0.2087 -0.0618  0.0170
47048W        W55648  26.008   7.028  16.342  0.1304 -0.2600 -0.1060
47049W        W55649  20.735   2.833   2.179  0.0205  0.0315  0.1287
47050W        W55650  21.539   7.058   9.072  0.1230 -0.1623 -0.0250
47051W        W55651  26.535   3.347  23.418  0.1607  0.2351  0.0421
47052W        W55652   4.570   1.988  17.897  0.1456  0.0884 -0.2230
47053W        W55653  14.369   3.307  10.956  0.3047  0.2773 -0.0604
47054W        W55654  19.764   2.759   6.523 -0.2037 -0.1126  0.1177
47055W        W55655  18.169   6.847  23.979  0.2865  0.2850 -0.0313
47056W        W55656   0.174   2.359  19.708 -0.0703 -0.3374  0.3085
47057W        W55657  27.978   0.211   0.781 -0.1050 -0.1387 -0.2929
47058W        W55658  22.590   7.235  20.220  0.1566  0.3576 -0.2131
47059W        W55659  30.374   7.654   5.173 -0.0807  0.1681 -0.0983
47060W        W55660  15.094   3.475   6.142 -0.0863 -0.0606 -0.0455
47061W        W55661   8.741   7.296  23.433 -0.0758  0.0355 -0.2070
47062W        W55662  17.544   5.361  26.158  0.1438  0.1280 -0.1189
47063W        W55663   7.372   3.134  17.664  0.2649  0.0248  0.0390
47064W        W55664  25.429   5.832   1.704  0.2497  0.1964 -0.1781
47065W        W55665  11.330   3.301   4.734  0.1591 -0.0726 -0.4860
47066W        W55666   5.789   4.687  10.282  0.1168  0.0119  0.0004
47067W        W55667  21.896   4.164   7.369  0.0567 -0.1283 -0.3054
47068W        W55668   4.813   1.971  23.543 -0.0769 -0.0261  0.1008
47069W        W55669  26.354   2.781   6.157 -0.2727  0.2765  0.1112
47070W        W55670   6.954   4.095   7.791 -0.1892 -0.2257  0.0221
47071W        W55671  11.119   4.700   2.652  0.2834 -0.1692 -0.3935
47072W        W55672  14.380   0.521   2.874 -0.1109 -0.1652 -0.4842
47073W        W55673  17.737   6.878   0.182  0.1216 -0.3247 -0.4353
47074W        W55674   9.706   3.243   3.972  0.1158  0.0144 -0.1713
47075W        W55675  17.483   2.238   8.647  0.0755  0.2839  0.0718
47076W        W55676  11.088   1.150  17.534 -0.2397  0.0559  0.1287
47077W        W55677  30.501   0.304  11.189 -0.2294 -0.0174  0.0785
47078W        W55678  16.444   0.945   5.620  0.0189 -0.0903 -0.1433
47079W        W55679  25.580   4.256  16.062 -0.1691 -0.2357 -0.1049
47080W        W55680  21.425   6.327   5.193  0.0218  0.0742 -0.0707
47081W        W55681  28.147   1.175  10.588 -0.1705  0.1500 -0.2341
47082W        W55682  26.556   5.310  25.002 -0.0668  0.0021  0.0348
47083W        W55683   7.803   0.702   2.672  0.3967  0.0631  0.1811
47084W        W55684  28.510   1.211   7.005  0.0151 -0.2538  0.0852
47085W        W55685  27.050   0.859  24.182  0.0079  0.2577 -0.1830
47086W        W55686   5.022   1.801   6.433  0.3159  0.1996 -0.1609
47087W        W55687  12.213   5.647   5.939 -0.0953  0.2047  0.1577
47088W        W55688   2.846   1.344  17.028 -0.0146 -0.1506 -0.0613
47089W        W55689  19.518   6.285  10.618 -0.0779  0.3684 -0.3007
47090W        W55690  10.485   4.220   3.275 -0.0714  0.1652 -0.2194
47091W        W55691  18.492   3.060  17.873  0.1894 -0.0250 -0.2086
47092W        W55692  13.942   2.415  19.483 -0.1440  0.3575 -0.1283
47093W        W55693  16.606   5.385   5.796 -0.0180  0.1135 -0.0442
47094W        W55694  10.100   0.997   9.705  0.1130  0.0010  0.0510
47095W        W55695   1.550   1.682   6.495  0.1740  0.1169  0.0456
47096W        W55696  24.540   1.804   8.344  0.2290 -0.1198 -0.0584
47097W        W55697   6.572   2.095  10.819 -0.0414  0.1981  0.1479
47098W        W55698  15.531   0.414  15.937  0.2166 -0.0066  0.0626
47099W        W55699   1.905   2.183   6.824  0.0752  0.2346  0.0117
47100W        W55700  10.098   0.477   1.240 -0.0274  0.0126  0.0602
47101W        W55701   2.445   1.516  20.237 -0.1675 -0.0486  0.1618
47102W        W55702  17.538   1.717   9.804  0.0978 -0.0302  0.0653
47103W        W55703  11.412   7.426   6.977  0.3067  0.3389  0.1081
47104W        W55704  11.126   0.377   3.090  0.0114  0.2687 -0.0964
47105W        W55705  26.110   6.397  10.260 -0.2861 -0.0249  0.0777
47106W        W55706  22.849   6.440  22.020 -0.1092 -0.0908  0.1306
47107W        W55707  18.459   7.222  21.009  0.1797  0.0264  0.1010
47108W        W55708  20.767   5.726  18.829  0.4030 -0.0041  0.0832
47109W        W55709   2.724   0.463  22.493  0.4308  0.2352 -0.1757
47110W        W55710   0.358   0.887   2.575  0.0240  0.0301  0.0481
47111W        W55711  18.709   2.528   6.921  0.1003 -0.0631  0.0411
47112W        W55712   5.352   0.253  21.895  0.1254 -0.3773  0.1315
47113W        W55713  17.430   5.090  10.239 -0.2506 -0.1285 -0.0695
47114W        W55714   4.669   0.857   9.059  0.1100 -0.2614  0.2327
47115W        W55715  23.118   5.248   2.058 -0.0918 -0.2762  0.0678
47116W        W55716   9.069   1.116  24.590 -0.0270 -0.0957  0.0952
47117W        W55717   2.505   1.713   6.836 -0.0469 -0.1827 -0.1766
47118W        W55718  16.235   3.919   9.688 -0.1849  0.0788 -0.2363
47119W        W55719   9.588   1.835   8.223 -0.2708 -0.1288 -0.1055
47120W        W55720   4.459   6.471  20.656  0.0730  0.0412  0.3322
47121W        W55721   9.425   5.829  17.675 -0.0319  0.0669 -0.1592
47122W        W55722  10.176   5.821  19.941 -0.0810  0.1723 -0.2451
47123W        W55723  21.374   1.795   4.473 -0.1440 -0.2378 -0.0037
47124W        W55724  30.656   5.635  14.612 -0.0402 -0.2481 -0.3372
47125W        W55725   4.528   4.311  24.055 -0.0561  0.1947 -0.1056
47126W        W55726  18.750   7.265  23.254  0.0177 -0.1724 -0.1173
47127W        W55727   6.679   5.210  23.585 -0.1364 -0.0872  0.2401
47128W        W55728  16.266   2.139   7.092 -0.1227  0.3181  0.0295
47129W        W55729  28.071   5.999  20.680 -0.0990  0.1019 -0.1600
47130W        W55730   2.069   6.903  23.976  0.0725  0.2840 -0.2903
47131W        W55731   4.450   0.845  24.814  0.1403 -0.1526 -0.0614
47132W        W55732  21.942   0.026   7.461  0.2426 -0.2464 -0.1239
47133W        W55733   3.391   0.476   9.803 -0.2000 -0.1402  0.0285
47134W        W55734  14.780   6.728  22.816  0.1604 -0.1018  0.0674
47135W        W55735   4.127   5.589   5.611 -0.2444  0.5150 -0.0976
47136W        W55736  11.449   3.926  15.809  0.2314 -0.0612  0.1005
47137W        W55737   2.401   7.471  18.585 -0.3200  0.0051 -0.0808
47138W        W55738  22.779   4.880   5.001  0.4073 -0.2026 -0.2311
47139W        W55739  14.685   2.452   6.723 -0.0743 -0.0497  0.3000
47140W        W55740  25.728   3.547  19.626  0.0016  0.1948  0.0073
47141W        W55741  29.035   0.842   4.466 -0.2596  0.0892 -0.3877
47142W        W55742  23.431   0.848   0.356 -0.1045 -0.0052 -0.3026
47143W        W55743   1.821   1.290   3.486 -0.1220  0.1780 -0.1168
47144W        W55744  10.610   4.707  14.806  0.0102  0.0855 -0.0243
47145W        W55745  10.705   1.461  23.012  0.0619  0.0843 -0.2530
47146W        W55746  11.479   5.326   4.143  0.1285 -0.0276 -0.1296
47147W        W55747   2.574   0.401   1.978 -0.0971 -0.0067 -0.0755
47148W        W55748  30.912   5.339  24.056  0.1667 -0.0281 -0.0446
47149W        W55749  29.688   0.927   9.069 -0.1559 -0.2828 -0.1762
47150W        W55750  18.724   1.350   6.564 -0.1311  0.0328  0.1733
47151W        W55751   4.778   3.693   8.996  0.0531 -0.0858 -0.1510
47152W        W55752  14.688   0.653  23.271  0.0245 -0.0923 -0.1170
47153W        W55753  21.263   4.217   3.896 -0.0128 -0.0549  0.2070
47154W        W55754  12.565   1.327  26.385 -0.1809  0.0430  0.1384
47155W        W55755  23.855   5.202  23.775 -0.1772  0.3466 -0.0130
47156W        W55756  10.336   1.644   6.360 -0.0363 -0.0960  0.1860
47157W        W55757  27.586   5.775  16.721 -0.2368 -0.0069 -0.1785
47158W        W55758  26.251   1.648   7.697 -0.0595  0.0403 -0.0756
47159W        W55759   5.298   7.076   3.394 -0.3536  0.0335  0.0171
47160W        W55760   2.589   0.175  15.176 -0.0578  0.1175  0.0372
47161W        W55761  16.176   0.358   8.651  0.2460 -0.2824 -0.2767
47162W        W55762  21.416   0.732  10.060  0.0139  0.0847 -0.1191
47163W        W55763  18.124   1.747   1.203  0.1345 -0.0129  0.1235
47164W        W55764  25.710   6.073   7.443  0.2152 -0.0551  0.2825
47165W        W55765  24.301   0.132   4.961  0.2292 -0.1612 -0.0061
47166W        W55766  29.917   4.075   2.584  0.3915  0.2101  0.0796
47167W        W55767  11.250   0.283  25.520 -0.2670 -0.0211  0.2946
47168W        W55768  22.883   0.269   7.255 -0.0509  0.1628  0.0182
47169W        W55769  28.514   4.041  21.216 -0.0077  0.1671  0.1454
47170W        W55770   9.107   1.465   7.147  0.2567  0.1555  0.1324
47171W        W55771   4.507   7.249   5.110  0.0268  0.0293  0.3138
47172W        W55772  30.353   4.749   7.311 -0.0827  0.1357  0.1547
47173W        W55773  15.061   0.383   9.025  0.1015 -0.0321  0.1436
47174W        W55774   1.940   0.105  22.594 -0.1123 -0.0456 -0.2285
47175W        W55775  19.005   5.150   8.502 -0.1215 -0.0850  0.0432
47176W        W55776  23.036   7.756  25.980 -0.0318 -0.0475  0.0818
47177W        W55777   1.266   5.321  16.970  0.0767 -0.0946  0.0430
47178W        W55778  29.234   2.079  10.575  0.0733 -0.0149 -0.4769
47179W        W55779  29.523   6.235  25.376  0.2224  0.3601 -0.1441
47180W        W55780  26.048   5.314  20.371  0.4171 -0.0877 -0.0087
47181W        W55781  28.828   2.239  18.261  0.0042  0.0049 -0.1795
47182W        W55782   0.016   6.941  10.280  0.0777  0.2018  0.0097
47183W        W55783   4.694   2.085  16.274  0.2977 -0.0221  0.0433
47184W        W55784  10.477   0.561  16.292 -0.0122  0.1257  0.2141
47185W        W55785  23.093   3.174  21.663  0.1674  0.3380 -0.0091
47186W        W55786  19.547   1.413  25.718  0.0517  0.2048  0.0294
47187W        W55787  22.387   0.331  21.146  0.1455 -0.0217  0.3054
47188W        W55788   5.776   5.080   1.960 -0.0674  0.0997  0.2248
47189W        W55789   9.151   1.973  23.603  0.2073  0.2644 -0.1694
47190W        W55790  18.952   2.718  18.880  0.2787  0.0473 -0.0583
47191W        W55791  27.732   3.446   6.458  0.1492 -0.0660  0.0506
47192W        W55792   9.272   3.921  16.892  0.4772 -0.0457  0.0008
47193W        W55793   6.615   6.508  19.217 -0.0414  0.2729 -0.0522
47194W        W55794  31.177   6.391  17.726  0.1621  0.1199  0.0910
47195W        W55795   9.679   2.313   4.509  0.1431  0.0206 -0.0286
47196W        W55796  21.782   3.536  21.492  0.0059  0.2593  0.6793
47197W        W55797   6.552   2.633   1.233 -0.1499 -0.4918  0.2188
47198W        W55798  11.894   6.928   7.140  0.1138  0.0124  0.1050
47199W        W55799  10.892   6.200  18.083 -0.1218 -0.0348  0.3042
47200W        W55800  30.196   2.571  22.421 -0.2580  0.1827 -0.1500
47201W        W55801   3.384   1.209  20.363 -0.1055 -0.0761  0.0176
47202W        W55802  25.743   7.177   8.205  0.1061  0.1251 -0.1664
47203W        W55803  12.882   0.346   2.255  0.1167  0.0187 -0.1063
47204W        W55804   7.671   6.106   7.817  0.1363 -0.1343 -0.1507
47205W        W55805   2.207   1.853  25.626 -0.1933 -0.2106 -0.2309
47206W        W55806  11.176   2.327   8.343 -0.0385  0.3214  0.0242
47207W        W55807  24.818   5.449   3.523  0.0389 -0.2862  0.1616
47208W        W55808  17.241   0.619   3.184  0.2505  0.5625  0.1760
47209W        W55809  19.106   3.502  26.360  0.0270 -0.2432  0.0850
47210W        W55810   1.547   2.478  17.711  0.0589 -0.4085 -0.2361
47211W        W55811  12.323   3.708  23.104 -0.3397 -0.1349 -0.1723
47212W        W55812  11.642   5.325   1.273 -0.0326 -0.3856  0.0058
47213W        W55813  30.724   2.202  23.552  0.0890  0.0885 -0.0514
47214W        W55814   0.395   6.726   6.589  0.0450  0.0303 -0.3696
47215W        W55815   9.913   4.814   2.772  0.0175  0.1461 -0.0426
47216W        W55816   7.829   2.094   8.199  0.1281 -0.2151 -0.2083
47217W        W55817   7.574   7.606   4.190 -0.2749 -0.0233 -0.1272
47218W        W55818  21.719   4.552  26.318  0.1790  0.0813 -0.0970
47219W        W55819  17.235   0.482  23.390 -0.0479  0.3929  0.2003
47220W        W55820  13.968   1.832   1.848 -0.1078  0.0853  0.0421
47221W        W55821  20.817   7.534  23.687 -0.0828 -0.0926 -0.0590
47222W        W55822  17.502   6.349  18.896 -0.0466 -0.1769  0.2566
47223W        W55823   2.248   1.889  15.974  0.0412  0.2235  0.0780
47224W        W55824  24.246   5.360  10.835 -0.0093 -0.0490 -0.0072
47225W        W55825   1.988   4.149  23.720  0.1095 -0.1110 -0.2681
47226W        W55826   2.463   2.229   1.575 -0.1708 -0.3403  0.1238
47227W        W55827   2.441   5.509  18.279 -0.1877  0.0891 -0.1530
47228W        W55828  14.737   4.857  17.058  0.3308 -0.1967  0.1724
47229W        W55829  28.036   4.235  23.793 -0.0316 -0.3615 -0.1061
47230W        W55830  28.868   0.264  17.981 -0.1053  0.0076 -0.3595
47231W        W55831  18.750   0.571  20.074 -0.2919  0.0223  0.2544
47232W        W55832   0.740   4.367   4.448 -0.1756  0.2477  0.1866
47233W        W55833  15.887   7.584   4.002 -0.0768 -0.1922  0.1673
47234W        W55834  22.979   3.216  10.075  0.2765 -0.0646  0.3111
47235W        W55835  19.102   3.559   7.722 -0.1199 -0.1948  0.1149
47236W        W55836   7.191   1.251  25.411  0.1950  0.1181  0.0136
47237W        W55837  25.048   7.729   1.625 -0.0041 -0.3160  0.0592
47238W        W55838  11.912   2.300  10.334  0.1474 -0.3273  0.4539
47239W        W55839  27.556   7.025   4.422 -0.0436  0.1016  0.1734
47240W        W55840  26.962   7.341  19.525 -0.1363  0.0520  0.0035
47241W        W55841   3.164   7.114  26.366 -0.0337 -0.1274  0.0771
47242W        W55842  29.768   2.223   8.992 -0.0735 -0.0557  0.0706
47243W        W55843   2.510   3.381  15.976 -0.0568  0.1109  0.0860
47244W        W55844   1.217   0.476  24.302  0.0417 -0.0901 -0.0115
47245W        W55845  14.889   3.482  22.397  0.1175  0.0081 -0.0437
47246W        W55846   4.923   1.375  16.971 -0.0104 -0.0125 -0.2449
47247W        W55847   2.533   5.128  25.321 -0.0450 -0.0860 -0.0466
47248W        W55848  12.020   5.140  18.218  0.0415  0.3321  0.2188
47249W        W55849  20.461   2.043  10.016  0.0144 -0.3493  0.0532
47250W        W55850   7.829   2.999  20.792  0.1380 -0.1059  0.1481
47251W        W55851  24.775   1.296  17.744  0.0133  0.1141  0.1362
47252W        W55852  11.249   0.554   6.316  0.1789 -0.0166  0.1151
47253W        W55853  13.897   1.823  17.925  0.0396  0.2259 -0.0826
47254W        W55854  29.650   6.523  22.800 -0.0511 -0.0934  0.1261
47255W        W55855   2.630   2.793  21.904 -0.2725  0.0326  0.0087
47256W        W55856  31.088   6.460   9.416  0.1795 -0.1769  0.0983
47257W        W55857  15.730   6.592   3.863  0.0885 -0.1467  0.0526
47258W        W55858   3.688   5.536  22.764 -0.3144  0.2898  0.0110
47259W        W55859   6.454   7.479  22.564  0.0262  0.1705  0.2911
47260W        W55860  25.604   4.825  21.982  0.0029  0.1521 -0.1008
47261W        W55861   5.990   2.634  20.400 -0.0178  0.1982  0.1550
47262W        W55862  14.462   2.725   0.813  0.2536  0.3264 -0.1079
47263W        W55863  13.059   6.768  24.267 -0.0395  0.0182  0.1791
47264W        W55864  17.741   2.690   5.154  0.2094 -0.0936  0.2846
47265W        W55865  17.813   4.950  26.124 -0.0680  0.0625  0.0508
47266W        W55866   7.722   4.390  25.305 -0.1631 -0.0907  0.2805
47267W        W55867   8.230   0.429   8.588 -0.1293  0.1006  0.5174
47268W        W55868   6.090   4.979  10.571  0.2871  0.2880 -0.1488
47269W        W55869  29.434   6.069   2.212 -0.0097 -0.1153 -0.0989
47270W        W55870   0.304   6.845  22.148  0.0149  0.1603 -0.1247
47271W        W55871   0.307   1.679   6.203  0.1016  0.1430 -0.4940
47272W        W55872   1.433   2.016  20.251 -0.1060  0.1767  0.1134
47273W        W55873   0.596   2.805  10.746  0.1322  0.1558 -0.1357
47274W        W55874   9.736   3.056   0.409  0.0968  0.1106 -0.1144
47275W        W55875  10.723   3.250   1.980 -0.3772 -0.0161  0.5198
47276W        W55876  17.069   3.975   5.204 -0.0589  0.2065 -0.0632
47277W        W55877  13.229   3.036   7.378 -0.1953 -0.1876  0.0748
47278W        W55878  24.031   4.783   0.059  0.2140 -0.1697 -0.1189
47279W        W55879  12.074   3.368  21.352 -0.2643  0.0047 -0.0086
47280W        W55880  19.504   5.513  18.050  0.0033 -0.0638  0.2466
47281W        W55881  27.483   4.142  16.387 -0.2231 -0.0826 -0.2221
47282W        W55882   6.562   2.375  25.258 -0.0137 -0.1222  0.2838
47283W        W55883  14.037   1.876   6.253 -0.1401  0.1932  0.1685
47284W        W55884  12.759   7.552  19.174  0.1173 -0.0319  0.3307
47285W        W55885   1.057   0.409  11.070 -0.1013  0.1615 -0.1010
47286W        W55886  23.005   4.463  20.618  0.0683 -0.1949 -0.1089
47287W        W55887  24.653   3.601  26.411 -0.2212 -0.0491 -0.1067
47288W        W55888   4.141   5.420   6.563  0.2406 -0.1534 -0.1538
47289W        W55889  24.624   0.425  19.919 -0.1434  0.0860  0.3266
47290W        W55890   9.189   6.870   5.625  0.1725  0.2261 -0.4273
47291W        W55891   5.070   2.386  17.045 -0.1002  0.3853 -0.0715
47292W        W55892   3.362   6.698  21.575 -0.3714 -0.1966 -0.3775
47293W        W55893  15.649   5.134  22.080  0.2283 -0.2777  0.1517
47294W        W55894  28.375   0.128   5.822  0.0189 -0.0883 -0.1992
47295W        W55895  11.496   4.365  15.998 -0.0353  0.0397  0.0904
47296W        W55896   2.521   5.909  26.072 -0.1255 -0.0862 -0.1087
47297W        W55897  22.470   1.471  10.998 -0.3209 -0.1760 -0.1615
47298W        W55898  22.082   3.775  25.070  0.2603 -0.1496 -0.2668
47299W        W55899   0.958   4.006   9.028 -0.2536  0.1291 -0.0496
47300W        W55900  11.092   7.729   7.897  0.1937 -0.2365  0.5035
47301W        W55901  24.052   6.000   0.692  0.0431  0.0227 -0.0209
47302W        W55902   8.092   3.328   9.901 -0.0799 -0.2956  0.2534
47303W        W55903  30.141   5.347   8.355 -0.1215  0.0551 -0.1344
47304W        W55904   2.606   5.760  24.134  0.0531  0.2243 -0.1721
47305W        W55905  30.652   2.875   8.224  0.2440 -0.1747  0.5693
47306W        W55906   2.987   6.284  21.247 -0.0211  0.1823  0.0084
47307W        W55907   3.734   6.845  24.971  0.0281  0.4050  0.3089
47308W        W55908  26.259   2.589   8.536  0.1075 -0.0646  0.2855
47309W        W55909  16.697   1.400   0.951  0.0278  0.0428  0.1955
47310W        W55910  25.857   1.891   2.692 -0.1259 -0.1266 -0.3130
47311W        W55911   6.964   6.214   9.716 -0.1888 -0.2348  0.3430
47312W        W55912   9.806   0.414  17.021  0.0169 -0.0843 -0.3754
47313W        W55913   8.141   4.842   6.001  0.2968 -0.1415  0.1434
47314W        W55914  18.165   2.102  16.689  0.2473 -0.0907  0.2191
47315W        W55915  14.026   6.119  23.038 -0.0457 -0.1036 -0.0538
47316W        W55916   0.094   3.639  15.830 -0.1605  0.3391 -0.0856
47317W        W55917  18.110   5.873   2.355 -0.0745  0.1412 -0.0331
47318W        W55918  16.674   1.278   2.572 -0.1893 -0.2238 -0.0390
47319W        W55919  13.956   2.790   1.067  0.0449 -0.2619 -0.3839
47320W        W55920  22.994   1.284  10.090 -0.6221  0.2415 -0.1027
47321W        W55921   6.639   7.306   2.546  0.0870 -0.1470  0.1139
47322W        W55922   7.645   1.563   6.820  0.0267  0.4250 -0.1748
47323W        W55923  27.343   2.313  10.075  0.1483 -0.1761 -0.1832
47324W        W55924  19.598   7.194   8.560 -0.1032 -0.2207  0.1024
47325W        W55925  18.267   0.764   6.164  0.0838  0.1531 -0.2336
47326W        W55926   8.878   0.186   7.180  0.1638  0.0291  0.3678
47327W        W55927  31.037   4.910  26.332 -0.1906  0.1468 -0.1156
47328W        W55928   6.351   0.721  14.966  0.1095 -0.1279  0.1377
47329W        W55929  28.911   4.132   3.917 -0.2436 -0.2020 -0.0285
47330W        W55930  30.189   4.877   6.140 -0.2076  0.1154 -0.1321
47331W        W55931   6.582   0.357  16.451  0.0803 -0.0848 -0.1574
47332W        W55932  23.218   0.458  10.407  0.2352  0.0582  0.2010
47333W        W55933   8.993   7.718  10.634  0.2718 -0.1601  0.1002
47334W        W55934  13.302   5.904  25.597  0.0129 -0.2282 -0.1570
47335W        W55935  26.813   5.976   3.564  0.0019 -0.0158 -0.0336
47336W        W55936  12.909   6.418   2.067  0.0675 -0.1245 -0.1617
47337W        W55937  12.491   6.915  20.572  0.0854  0.0612  0.3132
47338W        W55938  15.174   7.265  10.572  0.0441  0.0407  0.1786
47339W        W55939  14.923   7.143   8.792 -0.2329 -0.0737  0.0238
47340W        W55940   3.962   1.170   2.766 -0.1633  0.0451  0.1715
47341W        W55941  21.267   3.614   7.983  0.1781 -0.2544 -0.0713
47342W        W55942  21.807   5.240   8.768 -0.1465 -0.2043  0.1960
47343W        W55943   2.769   0.042  17.152  0.0562 -0.3439 -0.3229
47344W        W55944  17.001   0.723  23.765  0.0551 -0.3891  0.4813
47345W        W55945   1.231   6.723   6.136 -0.1205 -0.3544  0.0850
47346W        W55946  27.628   6.843   1.174 -0.1042  0.1272  0.1920
47347W        W55947  21.080   3.540   4.866  0.0348 -0.0787 -0.0169
47348W        W55948   4.337   2.200   6.945  0.1750  0.2794  0.0754
47349W        W55949  28.630   5.370  24.230  0.2930 -0.0471  0.0243
47350W        W55950  10.613   4.456   5.524  0.1944 -0.1400  0.0171
47351W        W55951  20.755   3.941   8.343 -0.1082  0.2267  0.1613
47352W        W55952   5.578   5.939   8.110  0.1353  0.1007  0.3098
47353W        W55953  25.082   1.203  20.280  0.0179 -0.0429 -0.3336
47354W        W55954   7.534   0.697  16.824  0.3122 -0.0144  0.2215
47355W        W55955  15.139   4.975   2.317  0.2149 -0.0015 -0.2953
47356W        W55956  23.548   3.250   6.896 -0.2062 -0.0110 -0.0086
47357W        W55957  13.865   3.507   4.534  0.0287  0.1086 -0.1508
47358W        W55958  19.861   3.422   2.957  0.4910  0.0079 -0.1156
47359W        W55959   7.014   7.768  15.132  0.0177 -0.1423  0.0726
47360W        W55960  22.378   6.664   8.022 -0.1734 -0.1671  0.0967
47361W        W55961  17.059   5.249  18.229  0.2185  0.0388 -0.0267
47362W        W55962  26.106   0.403   4.223  0.3465 -0.2036 -0.3674
47363W        W55963  25.934   5.550   2.898  0.1430  0.0953  0.0111
47364W        W55964  23.777   2.740  16.825  0.2982 -0.1206 -0.2043
47365W        W55965  12.953   7.074  24.775 -0.1304  0.0035 -0.0127
47366W        W55966   9.924   2.313  24.681 -0.0423 -0.2791 -0.2838
47367W        W55967  18.118   0.959  18.814  0.2625 -0.1684  0.0697
47368W        W55968  22.925   2.632   8.493  0.0058 -0.0875  0.0707
47369W        W55969  13.272   2.569  18.036  0.1750 -0.0361  0.2042
47370W        W55970  24.581   0.777  17.173  0.0853 -0.5421  0.0469
47371W        W55971   3.018   1.947  11.592  0.2117 -0.0000  0.1627
47372W        W55972  25.306   0.832   0.224 -0.2769  0.1250  0.2237
47373W        W55973  29.940   6.189  23.953 -0.2280 -0.3108 -0.0788
47374W        W55974   9.053   6.682  25.020  0.2514  0.1783  0.1957
47375W        W55975   3.300   6.699  16.772 -0.1135 -0.2349  0.1395
47376W        W55976  11.723   2.975  17.034 -0.2436 -0.3849  0.0766
47377W        W55977  22.120   4.249   1.767  0.2876  0.1489  0.1078
47378W        W55978  13.839   2.766   2.058 -0.0866  0.3124  0.1662
47379W        W55979   9.164   3.527  16.013  0.1316  0.1109  0.0378
47380W        W55980   5.030   3.537  16.392 -0.2241 -0.2074  0.0489
47381W        W55981  20.086   4.796   4.852 -0.1263 -0.1880  0.1570
47382W        W55982  16.005   1.248   2.732  0.0767 -0.0132 -0.0992
47383W        W55983  26.373   3.603  18.932  0.2838 -0.1175 -0.2689
47384W        W55984  30.025   3.220   8.827  0.1317  0.0500  0.0443
47385W        W55985   4.522   4.346   1.411  0.3228  0.3036 -0.0461
47386W        W55986  14.241   7.792  15.827 -0.0173  0.1004  0.0555
47387W        W55987  11.302   5.426   0.869 -0.2131 -0.2831 -0.0105
47388W        W55988   5.284   1.674   1.696  0.0643 -0.0645  0.0620
47389W        W55989  28.628   0.596  10.197  0.0784 -0.3339 -0.0518
47390W        W55990  12.167   1.448  19.588  0.2842  0.1951 -0.1276
47391W        W55991  24.019   2.854   6.208 -0.0637  0.1488 -0.2661
47392W        W55992  15.090   7.201   3.356  0.0398 -0.1593 -0.1753
47393W        W55993  15.571   2.381  26.307 -0.0190  0.0865  0.1645
47394W        W55994  11.047   6.560   9.726 -0.2045  0.0773 -0.1197
47395W        W55995  22.479   7.517   2.580  0.0268 -0.1044  0.5651
47396W        W55996   1.255   3.611   5.036  0.0261 -0.0518 -0.2660
47397W        W55997  27.908   2.493  10.664  0.0975  0.0494  0.0589
47398W        W55998  22.916   3.561  20.678  0.0811  0.4362  0.3851
47399W        W55999  18.476   2.953  19.568 -0.1416  0.0321  0.2800
47400W        W56000  12.380   2.172  15.735 -0.0995 -0.0159  0.0735
47401W        W56001   2.353   3.035   7.119 -0.0196 -0.1292  0.0529
47402W        W56002  29.729   5.555  20.150  0.1956 -0.1438  0.3037
47403W        W56003   5.391   4.056  24.281  0.2013 -0.2273 -0.0564
47404W        W56004   3.209   1.013   6.374 -0.2821 -0.1911  0.0594
47405W        W56005  15.623   0.425  18.993 -0.0122  0.1985  0.1817
47406W        W56006  26.899   3.118   4.090 -0.2980  0.2324 -0.1956
47407W        W56007  15.944   3.015  15.793 -0.2498 -0.2892 -0.1183
47408W        W56008  26.015   0.888  19.118 -0.0720 -0.3571 -0.1021
47409W        W56009   2.901   1.357   8.577  0.0944  0.2257 -0.0894
47410W        W56010  10.597   2.788   6.587  0.1148 -0.3838  0.0222
47411W        W56011   2.863   5.195  16.218  0.2345  0.3019 -0.1830
47412W        W56012  22.212   0.977   3.070  0.1873  0.2810 -0.0202
47413W        W56013   1.037   3.524  23.900 -0.0055 -0.1258  0.1809
47414W        W56014  29.131   5.374   5.452 -0.0520  0.2239  0.2747
47415W        W56015  18.057   7.483  10.178 -0.0383 -0.0811  0.0542
47416W        W56016  27.491   1.375  10.449 -0.1880 -0.3273 -0.0304
47417W        W56017  18.472   4.204  20.122 -0.1650  0.3146 -0.1132
47418W        W56018  18.691   7.374   8.313  0.2150 -0.0947 -0.2213
47419W        W56019  26.452   4.231   5.714  0.3235 -0.0653  0.4701
47420W        W56020  18.647   0.498   1.744  0.1141 -0.4505  0.2124
47421W        W56021  14.308   4.029  23.914  0.0934 -0.2725  0.0574
47422W        W56022  11.969   4.680  19.826  0.0121 -0.1153 -0.1941
47423W        W56023  10.696   0.126   2.036 -0.0325 -0.1958  0.0251
47424W        W56024  25.029   7.753  25.412 -0.3139  0.1566 -0.2873
47425W        W56025  30.435   0.583  18.821  0.1596  0.0111  0.0045
47426W        W56026   4.921   6.551   6.787 -0.3213  0.0385 -0.0004
47427W        W56027  20.374   5.560  23.284  0.0874 -0.2940 -0.1458
47428W        W56028  18.068   7.514  11.460 -0.0729 -0.5401 -0.0261
47429W        W56029  18.138   3.975   2.486 -0.2349  0.1876 -0.1379
47430W        W56030  26.897   1.351  11.384  0.0109  0.2732  0.0736
47431W        W56031  17.082   0.982  21.980 -0.0522 -0.2623  0.0266
47432W        W56032  17.243   5.482  14.904  0.1560 -0.0294 -0.2346
47433W        W56033   1.938   2.447   4.201 -0.2166 -0.1001  0.0632
47434W        W56034  10.845   6.996   8.471  0.1366  0.0933 -0.1667
47435W        W56035   8.994   4.906  17.041  0.1575 -0.1256  0.0702
47436W        W56036  24.435   3.839  21.280  0.0655 -0.0799 -0.0463
47437W        W56037  12.408   0.057  15.936 -0.1304  0.0443  0.1858
47438W        W56038  22.125   7.435   8.138  0.2326 -0.3950 -0.0716
47439W        W56039  11.573   0.891  21.350 -0.0046 -0.1004 -0.2650
47440W        W56040   9.206   3.835   6.423 -0.0116 -0.0184  0.0796
47441W        W56041  21.298   0.689  22.747  0.0884 -0.1861 -0.0486
47442W        W56042   5.598   3.355  18.717 -0.2010  0.1487  0.2259
47443W        W56043  12.676   3.990   8.232  0.1459  0.1641 -0.1232
47444W        W56044  23.785   7.455   3.719 -0.0399  0.0861 -0.2583
47445W        W56045  21.103   2.728  11.367  0.0270  0.2283 -0.0185
47446W        W56046  22.682   3.135  15.907  0.1681  0.0776  0.1380
47447W        W56047  20.383   6.411   5.345 -0.2497  0.4683  0.1813
47448W        W56048   4.502   1.059  25.259 -0.0168 -0.1891 -0.2884
47449W        W56049  24.294   0.556  15.936  0.1864 -0.0531 -0.0651
47450W        W56050   8.224   7.551  24.488  0.0671  0.2196  0.0527
47451W        W56051   4.837   4.712  22.207 -0.3700  0.2417  0.2172
47452W        W56052  30.861   7.240  10.132 -0.1013  0.1559  0.0756
47453W        W56053   4.663   2.345   4.212 -0.0802  0.2619 -0.1104
47454W        W56054   7.767   1.415   1.666  0.1361  0.1910 -0.2032
47455W        W56055   8.150   7.796  19.973 -0.1886 -0.1051 -0.1379
47456W        W56056  28.346   3.612   1.708 -0.0446 -0.0622  0.0396
47457W        W56057   5.874   1.826  17.713  0.0834  0.0922 -0.0062
47458W        W56058   7.976   6.133   1.441  0.2514 -0.2409 -0.1174
47459W        W56059  26.246   4.571  17.032  0.2559  0.1992  0.1981
47460W        W56060  22.355   6.190   6.716  0.2958 -0.1059 -0.0869
47461W        W56061  24.555   5.713   0.495 -0.4220  0.2753 -0.3499
47462W        W56062  11.699   3.316  15.691  0.1451 -0.2234  0.2015
47463W        W56063  11.714   2.858   7.272  0.0384 -0.0153 -0.0061
47464W        W56064  16.382   7.606  15.338 -0.0100 -0.1258  0.1957
47465W        W56065  20.575   5.138   3.971  0.2418  0.1386 -0.0223
47466W        W56066  24.951   0.238  20.977  0.0926 -0.0302 -0.0046
47467W        W56067  12.213   6.130   6.228 -0.1408  0.1873 -0.2203
47468W        W56068  24.638   7.114   7.470  0.4081  0.2792  0.2941
47469W        W56069   7.777   3.068  22.800  0.1216  0.1116  0.1511
47470W        W56070  25.926   7.359  18.803 -0.0692  0.2243 -0.2347
47471W        W56071  11.003   7.761   5.764  0.1239 -0.0783  0.0445
47472W        W56072  20.117   7.746   3.215  0.1859  0.0711 -0.0183
47473W        W56073  17.001   1.695  20.137 -0.2249 -0.0587 -0.0770
47474W        W56074   1.402   1.434  17.834 -0.2292  0.1654 -0.1250
47475W        W56075  26.273   0.389   2.051  0.0810 -0.0886  0.0392
47476W        W56076  12.787   2.437   1.315  0.2233 -0.0110  0.1686
47477W        W56077  16.839   7.280   3.522 -0.2006  0.2142 -0.0875
47478W        W56078  29.409   1.627  15.702  0.0853  0.3733 -0.1375
47479W        W56079  12.181   3.143   8.551  0.1074  0.2895 -0.1835
47480W        W56080  19.730   0.844   4.391  0.2422 -0.0787 -0.0764
47481W        W56081   3.566   7.245  22.216  0.0523 -0.0757 -0.0936
47482W        W56082   4.011   0.696   1.154 -0.1738 -0.0426 -0.2368
47483W        W56083   9.257   6.178  16.009  0.1206 -0.1572 -0.0166
47484W        W56084   0.569   7.242  17.318 -0.2311 -0.0181 -0.1196
47485W        W56085   8.699   4.877  10.276 -0.2355  0.1182 -0.3765
47486W        W56086   5.115   5.577  18.982 -0.2095 -0.1599  0.0642
47487W        W56087   5.622   6.093   9.157 -0.2416  0.0264 -0.0010
47488W        W56088  26.676   6.906   1.350 -0.0141  0.3492  0.0539
47489W        W56089  22.452   7.406   0.796 -0.1828 -0.0196  0.1277
47490W        W56090   5.216   1.400  22.036 -0.0069  0.0876  0.0945
47491W        W56091   0.333   4.102  15.765  0.0267  0.0052  0.0095
47492W        W56092   5.345   4.222   0.394  0.0969 -0.0853 -0.0791
47493W        W56093  19.674   2.896  23.425  0.2470  0.1688 -0.1073
47494W        W56094  30.915   6.642  11.311 -0.1858 -0.0369 -0.0477
47495W        W56095  21.530   2.508   9.025 -0.0516  0.0629  0.2165
47496W        W56096  28.347   0.091   7.158 -0.1209  0.2704 -0.2467
47497W        W56097  26.549   4.814  25.214 -0.0513  0.0042  0.0145
47498W        W56098  27.441   1.833  22.390  0.0455  0.0525 -0.2188
47499W        W56099  21.477   7.607  20.667  0.2433 -0.0267  0.0453
47500W        W56100   6.040   5.517   3.080 -0.0069  0.0901 -0.0012
47501W        W56101  13.277   7.376  25.918  0.1690  0.0657  0.0711
47502W        W56102  30.311   0.765   0.706 -0.1374 -0.2337  0.0436
47503W        W56103  11.978   3.442   8.907 -0.1795  0.0326  0.0814
47504W        W56104  24.654   1.519  16.557  0.0086  0.2241  0.4075
47505W        W56105  12.245   6.380   8.193  0.2176  0.0583 -0.0141
47506W        W56106  28.267   1.406   9.763 -0.1390  0.0169 -0.1922
47507W        W56107  15.713   1.609   7.498  0.0672 -0.1151  0.0676
47508W        W56108  30.576   5.465  19.225 -0.1962  0.2012  0.2073
47509W        W56109  28.275   4.415   2.125 -0.3039  0.0869 -0.0676
47510W        W56110   8.845   2.347   1.015 -0.2320  0.1097  0.0082
47511W        W56111  23.235   2.023  10.077 -0.0951  0.3173  0.1657
47512W        W56112  20.286   0.659  21.757  0.1210 -0.0629  0.1369
47513W        W56113  28.936   1.388  24.834  0.1188 -0.2206 -0.0937
47514W        W56114  23.714   2.889  15.076 -0.4489  0.0323 -0.2936
47515W        W56115  25.679   2.894  19.639 -0.0359  0.1157  0.1106
47516W        W56116  27.521   1.026   1.360 -0.0274  0.1257 -0.1724
47517W        W56117   9.262   0.796  11.574 -0.0379 -0.0319  0.0025
47518W        W56118  15.353   4.474  15.837 -0.0812 -0.1902  0.1316
47519W        W56119  11.165   3.449  23.080  0.0230 -0.1299 -0.1318
47520W        W56120  30.244   7.549   9.564  0.1277 -0.0845 -0.2941
47521W        W56121   1.629   4.786   7.881 -0.2042 -0.1216 -0.0330
47522W        W56122  30.131   0.138  19.691  0.0227  0.1988 -0.1299
47523W        W56123   0.830   3.235   8.840  0.0466  0.1996 -0.0608
47524W        W56124  13.839   4.486  16.468  0.0385  0.0215  0.1582
47525W        W56125  14.549   0.698  19.789 -0.1208  0.2822  0.1227
47526W        W56126  20.708   4.766   8.031  0.0569  0.0312 -0.2263
47527W        W56127   2.322   5.213   6.092 -0.0164 -0.1924 -0.2127
47528W        W56128  29.934   0.424   2.891  0.1803 -0.0709 -0.1963
47529W        W56129  17.367   4.256  16.278 -0.1145  0.0004  0.2728
47530W        W56130   4.134   5.326   9.718 -0.0158 -0.0008 -0.0583
47531W        W56131  23.304   3.113  23.426  0.0130 -0.1690 -0.1332
47532W        W56132  11.602   4.467   7.244 -0.0217 -0.0516 -0.0892
47533W        W56133  22.284   3.469  24.528 -0.0836  0.0030  0.2063
47534W        W56134  12.968   1.311  17.502  0.0590  0.0530 -0.0954
47535W        W56135  20.501   0.799  18.767 -0.1893  0.0828 -0.0170
47536W        W56136  18.232   6.265  22.052  0.1239  0.1193  0.2149
47537W        W56137  18.576   6.412  23.678 -0.1005 -0.1460 -0.0270
47538W        W56138  24.700   5.343   2.352  0.2549 -0.2635 -0.0187
47539W        W56139  27.703   2.976  25.775 -0.1725 -0.0305 -0.1573
47540W        W56140   3.036   3.320  25.847  0.1626 -0.0504 -0.2579
47541W        W56141  16.227   1.864   7.550  0.1752 -0.3133  0.0706
47542W        W56142  20.516   0.575   9.874 -0.2547  0.2309 -0.0937
47543W        W56143  28.312   5.276  10.237 -0.0135 -0.1229 -0.2683
47544W        W56144  30.547   0.087  23.571  0.1809 -0.0396 -0.0625
47545W        W56145  10.064   3.912  24.344 -0.0519 -0.1159  0.4162
47546W        W56146  18.534   5.940   9.813  0.0279  0.1345 -0.0116
47547W        W56147   5.168   5.761   9.105 -0.1099 -0.0694 -0.0529
47548W        W56148  15.475   3.621   8.408  0.1340 -0.1298  0.1362
47549W        W56149  14.943   2.660  22.239 -0.2927  0.0624 -0.1251
47550W        W56150   3.977   3.753   9.287  0.0844  0.0496  0.1674
47551W        W56151   1.813   2.089  16.211 -0.1236 -0.1749  0.1524
47552W        W56152   6.843   4.566  17.143 -0.1541 -0.2855 -0.3695
47553W        W56153  18.500   5.715  15.557  0.0266  0.0057 -0.0700
47554W        W56154   6.623   7.131   6.030 -0.0859  0.1987 -0.0671
47555W        W56155  30.823   5.670   4.387  0.4856 -0.1518  0.1499
47556W        W56156  17.104   3.886  20.133 -0.1702 -0.0959 -0.2068
47557W        W56157  27.717   0.796  17.252  0.2763 -0.1696 -0.2179
47558W        W56158   6.707   3.965   6.835 -0.1984  0.0071 -0.2012
47559W        W56159  16.541   2.503  10.325  0.1952  0.2091 -0.2344
47560W        W56160  11.989   4.651  21.648  0.0391 -0.0310  0.4079
47561W        W56161   9.674   7.463  20.445  0.1130  0.0317 -0.1533
47562W        W56162  13.372   0.063  21.633 -0.3650  0.2629  0.0897
47563W        W56163  24.240   0.885   4.013  0.0168  0.0555  0.0281
47564W        W56164  19.058   6.285  25.378 -0.0832  0.2382 -0.0156
47565W        W56165  30.372   7.589  16.793  0.1880 -0.0298  0.0825
47566W        W56166  17.940   4.968  25.492  0.2998  0.2323 -0.0720
47567W        W56167  27.993   7.635   0.404  0.0035 -0.0999 -0.1905
47568W        W56168  17.263   1.381   6.175  0.1564  0.1118  0.1706
47569W        W56169  19.500   2.391   3.807 -0.1460  0.0939 -0.1102
47570W        W56170  27.762   3.898  24.092 -0.1455  0.2453 -0.2358
47571W        W56171  26.393   6.499   7.878  0.0415  0.2795  0.2887
47572W        W56172  19.195   1.337   6.290  0.0547 -0.1143 -0.0067
47573W        W56173  17.017   0.197   3.517 -0.1454 -0.0290 -0.2630
47574W        W56174  12.228   0.707   4.770 -0.0154  0.0435 -0.0574
47575W        W56175  17.465   2.884   1.587 -0.3349 -0.0639  0.2047
47576W        W56176   7.988   7.100   0.949 -0.1099  0.2703 -0.2655
47577W        W56177  30.866   4.988  23.704  0.1165  0.0937 -0.0073
47578W        W56178  16.142   4.826   4.003 -0.0254 -0.2137  0.5016
47579W        W56179  26.916   3.050  23.819  0.4680 -0.1491 -0.0104
47580W        W56180  25.556   0.414  24.965 -0.2383 -0.1226  0.1622
47581W        W56181  20.763   6.142  20.570  0.4267  0.1965 -0.1050
47582W        W56182   5.354   4.243   7.429  0.4042  0.1410 -0.2053
47583W        W56183   4.613   4.881   8.596  0.2054 -0.2747 -0.2535
47584W        W56184   2.005   6.082  22.446 -0.1810 -0.0572  0.1757
47585W        W56185   5.708   4.143  16.617 -0.0546  0.0018  0.0630
47586W        W56186  22.614   4.411   7.987  0.0448 -0.0756  0.0708
47587W        W56187   9.170   7.241  23.199 -0.2805  0.0367 -0.0234
47588W        W56188  15.039   3.220   5.726 -0.1018  0.2705  0.0682
47589W        W56189  22.075   5.095   6.274 -0.3898 -0.0802  0.0712
47590W        W56190  28.931   0.188   0.014  0.0208 -0.3801 -0.0445
47591W        W56191  19.068   3.370   0.437 -0.0824  0.0533  0.0771
47592W        W56192   4.754   6.659  24.759 -0.0084 -0.2019 -0.1845
47593W        W56193  11.255   3.165   9.966 -0.0829  0.1304 -0.1999
47594W        W56194  17.600   3.230   7.732 -0.1472  0.1978  0.0883
47595W        W56195  11.444   1.708  21.205 -0.1346  0.1539  0.0541
47596W        W56196   1.528   1.377  25.453  0.0472  0.0585  0.2143
47597W        W56197   1.527   7.187  18.508 -0.1443  0.2270 -0.0649
47598W        W56198  19.939   3.501   0.546 -0.0389  0.0684 -0.1581
47599W        W56199   0.661   1.069   5.308 -0.4311 -0.0506  0.0971
47600W        W56200  25.313   5.132  20.316  0.0301  0.1414  0.2533
47601W        W56201  16.876   1.922  24.613 -0.0674  0.0173  0.2092
47602W        W56202  10.354   0.679  17.189 -0.1297  0.0800 -0.0303
47603W        W56203  28.716   1.641  26.291  0.1811  0.0031  0.0638
47604W        W56204   4.971   4.556   1.666  0.2124  0.1868  0.0630
47605W        W56205  18.318   4.903  11.229  0.0390 -0.4584 -0.0911
47606W        W56206  22.038   0.644   1.600  0.2852 -0.1825  0.1428
47607W        W56207   3.268   7.268   4.556 -0.0465 -0.0223  0.1106
47608W        W56208  12.712   5.355  11.005 -0.3985  0.2254 -0.1279
47609W        W56209  21.212   5.818  23.244  0.2554  0.0446 -0.3182
47610W        W56210  26.074   5.651   6.059  0.1251  0.0202 -0.2792
47611W        W56211  25.591   5.429  10.542  0.2500 -0.0374  0.3060
47612W        W56212   5.988   3.347   5.715  0.0134 -0.2068 -0.0642
47613W        W56213  15.188   1.279   9.347  0.3849 -0.3668 -0.1489
47614W        W56214   6.094   0.833   5.081  0.0002  0.1122 -0.1087
47615W        W56215   2.303   3.561   0.999 -0.0501 -0.0535 -0.2552
47616W        W56216  15.753   1.851  18.949  0.1602 -0.1869  0.2178
47617W        W56217  11.824   5.905   2.122  0.1640 -0.0208  0.0334
47618W        W56218   4.902   3.255  23.655  0.2907 -0.2754 -0.3320
47619W        W56219  27.170   1.837  26.011 -0.0582 -0.2348 -0.0046
47620W        W56220   8.354   1.070  15.089  0.0125 -0.1987 -0.4531
47621W        W56221   8.430   3.721  10.849 -0.1815  0.0377  0.0230
47622W        W56222  15.249   0.793  25.210 -0.3962 -0.0002  0.0322
47623W        W56223   7.179   5.848   0.239 -0.0953  0.3169 -0.0172
47624W        W56224   3.473   5.490   7.223  0.2110 -0.2989 -0.0787
47625W        W56225  21.104   6.040  25.204  0.2507 -0.1731  0.1927
47626W        W56226   5.750   3.438  23.587 -0.1832 -0.1523 -0.1116
47627W        W56227   8.504   6.298  21.025  0.1474  0.0053  0.0589
47628W        W56228   8.048   6.119   8.732  0.2351 -0.0246 -0.0873
47629W        W56229  18.923   3.459  17.388  0.1717  0.0116  0.1572
47630W        W56230   2.776   4.252  20.705 -0.1278  0.1507  0.1939
47631W        W56231  27.007   0.310   1.993  0.0013 -0.2118  0.1361
47632W        W56232   0.801   3.104   1.043 -0.0293 -0.0837  0.0995
47633W        W56233  29.550   4.575  17.953  0.1570  0.0156 -0.2679
47634W        W56234  30.573   6.374   7.662  0.2019 -0.0326 -0.1823
47635W        W56235   6.474   0.560   5.371 -0.2309 -0.1915 -0.0787
47636W        W56236  18.364   3.688  24.838  0.0583 -0.0153  0.1625
47637W        W56237  17.989   0.449  24.605 -0.1431  0.1662 -0.0659
47638W        W56238  28.242   3.624  22.652  0.1629 -0.2094 -0.0696
47639W        W56239  25.839   3.641  25.478  0.1186  0.3700  0.2105
47640W        W56240  22.108   1.452   9.498 -0.0184 -0.1446  0.0636
47641W        W56241  17.243   4.580   1.370  0.2472 -0.0194 -0.2220
47642W        W56242  20.078   3.523  26.152  0.2509 -0.0921  0.0643
47643W        W56243  17.130   5.773  17.232  0.3242 -0.0591  0.0013
47644W        W56244  21.103   4.001  19.426  0.2865  0.0086 -0.1815
47645W        W56245  16.309   0.092  19.818 -0.1932  0.2147  0.1731
47646W        W56246   5.835   0.221  18.284 -0.1312  0.1449  0.0929
47647W        W56247  27.144   4.224   3.942  0.1868  0.0090 -0.0192
47648W        W56248  24.257   2.493   6.633  0.3562  0.0287 -0.3531
47649W        W56249  23.101   0.954  21.169  0.1078  0.3919  0.0694
47650W        W56250  10.281   6.408   0.809  0.2482  0.2674  0.0191
47651W        W56251  24.701   2.332   6.433 -0.3011 -0.0147  0.1270
47652W        W56252  26.861   4.809  23.672  0.2862 -0.0177 -0.3501
47653W        W56253  10.461   1.777  19.357 -0.1718 -0.1066 -0.0366
47654W        W56254  13.783   6.356  15.498  0.1012  0.1200  0.0048
47655W        W56255  30.988   6.689   6.106 -0.4050  0.1935  0.0043
47656W        W56256  29.892   5.311   9.662 -0.3622  0.2041  0.0124
47657W        W56257  11.111   6.686  24.529 -0.0890  0.2364  0.2258
47658W        W56258  24.098   7.680   4.616  0.1841 -0.0932  0.1188
47659W        W56259   4.434   3.160  22.950 -0.2088  0.1844 -0.2787
47660W        W56260  25.146   2.807  21.897 -0.1515  0.1565 -0.2498
47661W        W56261  27.844   3.870  21.752  0.0522  0.0089  0.1858
47662W        W56262  27.011   3.104  25.176  0.3376 -0.1004  0.0977
47663W        W56263   6.820   4.693  19.064  0.0330  0.1169 -0.0966
47664W        W56264  23.165   0.094  10.091  0.2298 -0.0864 -0.0849
47665W        W56265  22.783   3.235   3.483  0.0964 -0.1861 -0.1468
47666W        W56266  26.956   6.187   6.028  0.0703  0.0746 -0.1746
47667W        W56267   5.227   7.549   3.441  0.2643 -0.1571 -0.1948
47668W        W56268   0.617   1.850   8.513 -0.0240 -0.0059  0.0717
47669W        W56269  11.283   1.016  19.028 -0.0244 -0.2532 -0.3008
47670W        W56270  17.918   5.238   1.743 -0.0868 -0.0135 -0.1530
47671W        W56271  13.887   5.526  17.466 -0.0083  0.0919  0.0808
47672W        W56272  16.213   1.043   3.951 -0.0993  0.0421 -0.0769
47673W        W56273  14.601   2.041   5.901 -0.0732  0.0418 -0.2331
47674W        W56274   7.002   0.860   3.590  0.1092 -0.2639 -0.0569
47675W        W56275   7.350   0.790   8.365  0.0751 -0.2324  0.0416
47676W        W56276   1.107   2.189   3.783 -0.1797 -0.0228 -0.0855
47677W        W56277   0.816   7.328  26.257  0.0456 -0.3291  0.0402
47678W        W56278  18.521   4.410  17.590  0.0348  0.0708  0.2484
47679W        W56279  29.258   2.310   1.150  0.0748 -0.1392  0.0042
47680W        W56280   6.028   1.678   9.318  0.3791 -0.0287 -0.0610
47681W        W56281  30.026   6.062   4.483 -0.0704 -0.1162 -0.1031
47682W        W56282   8.974   0.039  24.530  0.1381 -0.0908 -0.1612
47683W        W56283   6.740   2.787   0.787  0.3349  0.0918  0.0773
47684W        W56284  18.612   6.924  24.462 -0.0007  0.1970  0.1014
47685W        W56285   5.969   7.685  15.906  0.2282  0.1389  0.1254
47686W        W56286  11.156   6.026  18.950 -0.0640 -0.1157 -0.0779
47687W        W56287  12.916   4.946   1.003 -0.0795 -0.1158 -0.1038
47688W        W56288  24.780   4.521   0.458  0.2845 -0.1093  0.0334
47689W        W56289   7.672   6.480   4.896  0.0558  0.1170  0.1542
47690W        W56290   2.549   0.106   3.710  0.0576 -0.0574 -0.1465
47691W        W56291   4.686   3.091   9.738 -0.0726  0.1656  0.2479
47692W        W56292  21.098   2.002   2.251 -0.2031  0.2851 -0.1505
47693W        W56293  20.897   5.231  26.077 -0.2418  0.1295 -0.2424
47694W        W56294  11.151   6.917  10.911  0.1857  0.2673 -0.0324
47695W        W56295  22.439   4.876   9.427  0.0067  0.0729 -0.1587
47696W        W56296  12.955   6.715   0.184  0.0655  0.0979  0.1163
47697W        W56297  26.606   0.777  15.350 -0.2364 -0.3812  0.3933
47698W        W56298  15.693   6.837   7.227 -0.1038  0.1238  0.1817
47699W        W56299  13.777   0.045  23.738  0.0618 -0.3097 -0.3995
47700W        W56300  30.657   0.471   8.379  0.1834  0.0388 -0.0266
47701W        W56301  24.690   6.816  16.327 -0.0441 -0.0076  0.0210
47702W        W56302  20.682   7.331  25.789  0.0292 -0.1821  0.1643
47703W        W56303  12.350   7.460   4.226 -0.0702 -0.1109 -0.1151
47704W        W56304  12.196   2.939  16.962 -0.1484  0.2447  0.2686
47705W        W56305   4.227   7.076  24.445  0.2955  0.2471  0.0852
47706W        W56306  29.692   6.391  23.432 -0.0450  0.0457 -0.2415
47707W        W56307  27.248   4.741  18.573 -0.1286 -0.2452  0.0256
47708W        W56308  13.310   0.780  25.862 -0.3269 -0.0431  0.1497
47709W        W56309  19.724   4.056   0.222 -0.2604  0.3352 -0.1895
47710W        W56310  12.916   0.653  24.183  0.0234  0.4679 -0.2522
47711W        W56311  13.859   2.716  19.101  0.1067 -0.1147  0.0920
47712W        W56312   2.454   4.327  26.327 -0.2000 -0.1818 -0.4152
47713W        W56313  11.855   0.997   4.729  0.1535  0.0315  0.0334
47714W        W56314   3.068   5.956   4.579 -0.4008 -0.1523 -0.0776
47715W        W56315  27.417   4.959   9.182  0.1653 -0.0643  0.0524
47716W        W56316   9.990   5.862   6.602  0.3182 -0.0396 -0.1189
47717W        W56317  17.218   2.071   0.467  0.2935 -0.0281  0.3195
47718W        W56318  14.427   0.001  18.105  0.1094 -0.3354 -0.1609
47719W        W56319   4.672   2.392  22.580 -0.1280  0.0355  0.1087
47720W        W56320   8.269   6.943   8.084  0.2717 -0.1184  0.1482
47721W        W56321  16.449   6.425  21.574  0.2106  0.1341 -0.1009
47722W        W56322   5.623   6.843   9.893 -0.1383  0.0373  0.1248
47723W        W56323  17.356   2.702  19.116  0.0616  0.2161  0.0789
47724W        W56324  21.549   1.528  24.878 -0.1764 -0.0124  0.1224
47725W        W56325   4.418   6.542  20.164  0.1436 -0.0932 -0.1485
47726W        W56326  26.432   2.910  23.596 -0.1301 -0.1744 -0.0094
47727W        W56327   9.082   0.604   4.904 -0.2695 -0.1259 -0.4245
47728W        W56328  25.036   2.696  26.423 -0.3766  0.2062 -0.2626
47729W        W56329  13.483   2.482   3.328  0.1872 -0.1124 -0.2737
47730W        W56330  22.170   3.569  22.799  0.1239 -0.0955 -0.0485
47731W        W56331  22.344   5.825  21.116  0.0777 -0.1230  0.1652
47732W        W56332  24.433   6.238   9.915 -0.0804  0.2031 -0.0373
47733W        W56333  26.228   0.800   6.415 -0.0143 -0.0932  0.1358
47734W        W56334  26.986   5.500  20.141 -0.0861 -0.1682  0.1649
47735W        W56335  27.006   3.491  18.322 -0.0993  0.1487  0.0079
47736W        W56336  16.008   2.177   8.915 -0.0824 -0.3638 -0.3477
47737W        W56337  26.514   6.690  21.259  0.3774 -0.1464  0.2267
47738W        W56338  14.419   1.066  18.102  0.3327  0.1786  0.2889
47739W        W56339  30.163   1.122   6.685  0.0575 -0.1535  0.0159
47740W        W56340  22.816   4.024  17.379 -0.0218 -0.1405  0.1071
47741W        W56341   9.737   4.189  19.462  0.0720  0.1010  0.3418
47742W        W56342   7.795   5.371  16.574  0.1047  0.0896 -0.1451
47743W        W56343  16.695   6.662  18.605  0.0303 -0.1907  0.0082
47744W        W56344  29.605   1.322  24.308  0.0650  0.2305  0.0766
47745W        W56345  18.179   2.514   8.049 -0.0021  0.2168 -0.1191
47746W        W56346  27.682   6.394   0.997  0.1084 -0.0060 -0.1425
47747W        W56347  20.486   7.036  11.003  0.3161 -0.0476 -0.1586
47748W        W56348  13.860   7.114   3.433 -0.0997 -0.1987  0.2969
47749W        W56349   1.359   1.801   1.357 -0.1069  0.0765 -0.0402
47750W        W56350   0.033   5.548  25.075 -0.2467  0.1005 -0.5210
47751W        W56351  19.670   0.434   0.064 -0.0829  0.1042 -0.2552
47752W        W56352  29.995   4.236  22.534 -0.0989  0.0058 -0.1325
47753W        W56353  15.258   1.435   6.074  0.1373  0.0981 -0.0824
47754W        W56354  22.296   5.295   9.939  0.0255 -0.0769 -0.0225
47755W        W56355   6.576   1.188  19.107  0.0078  0.2553  0.1702
47756W        W56356  25.847   2.106  18.090  0.4866  0.1940 -0.2267
47757W        W56357  20.226   5.894   3.205  0.1379  0.1002  0.0698
47758W        W56358  27.712   6.490  25.528  0.0145 -0.3147 -0.0213
47759W        W56359  25.731   0.372   2.071  0.2622  0.2155 -0.0966
47760W        W56360   9.694   5.612   9.727  0.0935  0.1616  0.3089
47761W        W56361  23.784   6.745  20.708 -0.0618  0.0458 -0.1700
47762W        W56362  22.762   1.611   7.140  0.0342  0.0539 -0.0839
47763W        W56363  24.507   2.544   0.947  0.1126  0.3123 -0.0105
47764W        W56364   4.872   6.990  18.878 -0.0369 -0.0080 -0.1773
47765W        W56365   7.987   1.134  11.566  0.0165  0.1951 -0.1704
47766W        W56366  11.636   4.608   2.425 -0.1064  0.1361  0.1967
47767W        W56367  24.375   5.565  16.182 -0.1600  0.1354 -0.0144
47768W        W56368   5.804   1.908  20.273 -0.2506  0.1171 -0.1613
47769W        W56369  11.964   5.511  19.542 -0.1130  0.3061 -0.2309
47770W        W56370   1.361   3.099  25.363  0.1143 -0.2154 -0.0140
47771W        W56371  10.395   6.984   1.666  0.4983 -0.0485  0.1694
47772W        W56372  11.819   0.310   0.262 -0.1643  0.2812  0.0715
47773W        W56373  18.269   2.157  25.058  0.1222 -0.1868 -0.0094
47774W        W56374  10.122   0.035  21.240 -0.1332 -0.4252  0.0406
47775W        W56375   5.317   3.165  17.563 -0.0245 -0.1145 -0.0198
47776W        W56376  12.402   1.999  21.502  0.0758  0.0051 -0.0324
47777W        W56377  24.132   6.598  10.143  0.0891  0.0114  0.0668
47778W        W56378  30.608   5.936   6.714  0.1265 -0.0560  0.2290
47779W        W56379  20.483   1.991   0.719  0.0751 -0.1521  0.1136
47780W        W56380   2.988   6.395   6.174  0.0918  0.1573 -0.0234
47781W        W56381  26.518   1.495  24.321  0.4233  0.0987 -0.1446
47782W        W56382  18.893   3.855  21.422  0.0184 -0.2092  0.4141
47783W        W56383  25.146   3.252  19.137 -0.1663 -0.0222  0.1583
47784W        W56384  12.138   4.035   6.317 -0.3649 -0.3848  0.1367
47785W        W56385  17.097   0.636   0.395 -0.2629 -0.0439  0.0423
47786W        W56386   3.938   2.780  19.144  0.0911  0.1919 -0.0525
47787W        W56387  17.117   4.600  15.020  0.1627 -0.1006 -0.2158
47788W        W56388  10.488   1.661   0.285 -0.2197  0.2356 -0.3146
47789W        W56389   6.008   1.027  23.994 -0.3419 -0.1130 -0.1629
47790W        W56390   6.626   5.554   9.717 -0.2826 -0.1120 -0.2474
47791W        W56391  12.850   3.199  16.434 -0.0183  0.0188 -0.1780
47792W        W56392   9.163   2.166   8.075 -0.1308 -0.2753  0.0676
47793W        W56393   8.154   1.424  25.134  0.4160 -0.0799 -0.3795
47794W        W56394   4.387   5.912  15.555 -0.0593  0.0178 -0.1690
47795W        W56395  15.782   0.452   8.994 -0.0765  0.1601 -0.2115
47796W        W56396  14.761   6.188  17.396  0.0914  0.0637 -0.0145
47797W        W56397  15.449   6.774   6.199 -0.0336 -0.2150 -0.0622
47798W        W56398  15.241   1.922   5.963 -0.0289  0.1528 -0.2384
47799W        W56399  30.261   3.074  17.698 -0.0015  0.0426 -0.0083
47800W        W56400  17.456   5.623  21.368 -0.1436  0.1429  0.0857
47801W        W56401   4.107   2.039  10.885  0.0896  0.1034 -0.4801
47802W        W56402   1.189   3.583   3.731 -0.2029 -0.0677 -0.1216
47803W        W56403  17.107   2.534  15.829  0.0170  0.0570 -0.1295
47804W        W56404  17.781   1.149  16.515  0.0048 -0.0406 -0.1559
47805W        W56405  17.500   5.899   7.509  0.0403  0.0954  0.1335
47806W        W56406  16.403   3.255  18.778  0.0145  0.3827  0.3925
47807W        W56407  21.897   7.427   5.448  0.0946  0.2794  0.0070
47808W        W56408   6.602   4.954   8.626  0.2031 -0.0838 -0.3472
47809W        W56409  13.566   0.393  19.620  0.1313  0.1232  0.0649
47810W        W56410  12.479   7.608  23.694 -0.3374  0.0434  0.0040
47811W        W56411  27.284   5.703   9.618  0.0936  0.2146  0.6513
47812W        W56412  28.581   3.518  23.629  0.2799 -0.2762  0.1734
47813W        W56413  15.100   5.512  19.902  0.1416  0.3644 -0.1977
47814W        W56414  15.469   0.055   8.914  0.2346 -0.0084  0.1988
47815W        W56415   4.668   4.185   8.849  0.0045  0.1122 -0.0464
47816W        W56416  23.929   0.305  16.718 -0.1682 -0.0542  0.1076
47817W        W56417  11.113   1.161  10.643  0.1747  0.1703 -0.1903
47818W        W56418  14.056   6.714   4.485 -0.0259 -0.0884 -0.0404
47819W        W56419  11.306   3.223  10.550  0.6687 -0.0443 -0.0856
47820W        W56420  13.089   2.483  19.466 -0.2265  0.2552 -0.1466
47821W        W56421  23.749   3.290   6.381 -0.2445 -0.2298  0.0429
47822W        W56422   2.731   1.305   7.647  0.1590  0.2020 -0.3381
47823W        W56423   0.190   1.299   6.513 -0.4377  0.2514  0.1189
47824W        W56424  17.198   7.774  15.334  0.3762  0.1052 -0.0360
47825W        W56425   6.845   2.331   1.681  0.0336 -0.1476 -0.1292
47826W        W56426  11.333   4.584   0.620 -0.1923  0.1108  0.2621
47827W        W56427  25.198   0.211   8.149 -0.1793 -0.0820 -0.2169
47828W        W56428   6.100   7.483  23.078  0.2166 -0.0053  0.0821
47829W        W56429  15.165   3.021  26.135 -0.0992 -0.0923 -0.0414
47830W        W56430  29.376   6.503  22.363  0.2499  0.0036  0.0763
47831W        W56431  16.989   4.425   4.812  0.1325 -0.1802  0.3252
47832W        W56432  10.420   7.502  15.746  0.1191  0.3994 -0.1601
47833W        W56433  25.689   3.757   6.914 -0.1775  0.1257  0.0523
47834W        W56434  13.233   3.684  23.033 -0.3214  0.1744  0.1692
47835W        W56435  22.549   4.238  21.286  0.1332  0.0861 -0.1898
47836W        W56436  16.327   4.675   6.515 -0.2358 -0.1319 -0.2063
47837W        W56437   1.753   3.395  23.085  0.2293 -0.3941 -0.1846
47838W        W56438   7.485   0.671   4.788  0.0464 -0.0981  0.2972
47839W        W56439   4.279   3.845  25.501  0.2362  0.0045 -0.2402
47840W        W56440   4.510   3.841   8.477  0.0686  0.1532 -0.0967
47841W        W56441  14.444   4.286   1.574 -0.2545  0.2162 -0.0913
47842W        W56442  24.454   5.544  20.244 -0.1444  0.0776 -0.1004
47843W        W56443  25.632   0.378  17.055 -0.1281  0.2201  0.0226
47844W        W56444   8.064   2.290   9.873 -0.2345 -0.2589 -0.2120
47845W        W56445  23.353   2.344  22.212 -0.1704  0.4498  0.0577
47846W        W56446  24.643   3.422  25.926 -0.0996 -0.3335 -0.0658
47847W        W56447  22.689   4.168   1.152  0.2356 -0.0456  0.1053
47848W        W56448  26.625   6.742  24.902  0.1370  0.2374  0.2184
47849W        W56449  22.217   0.392   2.188 -0.3111  0.1171 -0.1149
47850W        W56450  28.310   7.363   7.956 -0.1980 -0.1667  0.0341
47851W        W56451  15.913   7.156  25.166  0.0428 -0.3075 -0.1145
47852W        W56452   7.993   1.512   2.217  0.0869  0.0010  0.2337
47853W        W56453   9.596   2.573  21.978  0.2601 -0.0933 -0.0645
47854W        W56454  23.122   4.693  10.914 -0.1468  0.5015 -0.1184
47855W        W56455  15.206   0.595  16.287 -0.1965  0.0608 -0.0183
47856W        W56456  12.317   0.694  22.075  0.1952  0.0493 -0.1523
47857W        W56457  19.214   1.123   3.054  0.0604 -0.2209  0.2872
47858W        W56458  25.684   0.670  10.192  0.0593 -0.2086  0.2520
47859W        W56459   7.466   7.418   9.523  0.0885  0.0402 -0.1912
47860W        W56460   4.845   0.118  25.079 -0.1801  0.1378  0.0192
47861W        W56461  22.680   4.089  20.770 -0.2618  0.0955 -0.2744
47862W        W56462  20.335   3.272  22.300  0.0794  0.3477 -0.2621
47863W        W56463   8.008   3.840  11.110 -0.2815 -0.2390 -0.0263
47864W        W56464  27.978   0.592   8.119  0.1160 -0.0048 -0.0164
47865W        W56465   4.281   3.931   8.908 -0.0404  0.1925 -0.0664
47866W        W56466   0.484   1.547  23.973 -0.0052 -0.1705  0.0649
47867W        W56467  30.893   6.371  19.704  0.1066  0.3157  0.2350
47868W        W56468  10.179   2.874  17.446  0.0781  0.2576 -0.0744
47869W        W56469   5.197   2.709  24.717 -0.2054  0.0538 -0.1246
47870W        W56470  21.699   3.085  20.337 -0.1631  0.1888 -0.0647
47871W        W56471   6.974   3.983  23.825  0.0888 -0.2023  0.1488
47872W        W56472   6.217   5.016   9.437 -0.1106 -0.0742  0.1957
47873W        W56473   7.613   6.615  23.948  0.0351 -0.2419  0.1332
47874W        W56474  16.098   5.012  23.154  0.3434  0.1069 -0.2763
47875W        W56475  16.580   3.619  17.543  0.0512  0.1320 -0.1736
47876W        W56476   9.119   7.448  15.153  0.0959 -0.1271  0.0061
47877W        W56477  18.101   4.503  23.133  0.1085  0.2877  0.1132
47878W        W56478  21.711   5.559   8.332 -0.0296 -0.0530 -0.2562
47879W        W56479  13.231   6.125   7.044 -0.2760  0.1310 -0.0921
47880W        W56480   6.485   3.852  23.661 -0.4492 -0.1161  0.1964
47881W        W56481   7.041   0.393  24.880  0.3754 -0.3158 -0.1534
47882W        W56482   1.988   0.202  11.027 -0.0137  0.0907 -0.1888
47883W        W56483  22.762   5.289   5.927  0.0076 -0.0045  0.1643
47884W        W56484   6.485   5.090   7.646  0.2561  0.1401  0.1777
47885W        W56485  22.369   2.778   5.738  0.0637 -0.1561  0.1119
47886W        W56486  14.778   3.465   4.113 -0.2083  0.0946  0.0283
47887W        W56487  17.696   2.059  16.496 -0.1067 -0.2384  0.1226
47888W        W56488  17.773   2.620  24.487  0.1137 -0.0798 -0.2018
47889W        W56489  23.200   0.169  20.168 -0.0142 -0.1587 -0.1690
47890W        W56490  23.501   3.265   0.597  0.0029  0.1915  0.0192
47891W        W56491  23.681   4.612  15.629  0.0028  0.2393 -0.2619
47892W        W56492  30.935   6.867  20.993 -0.2537 -0.0461  0.0285
47893W        W56493   8.285   2.247   2.767 -0.2518  0.0085  0.0030
47894W        W56494   9.869   5.694   5.503  0.2488  0.1359 -0.4015
47895W        W56495  16.538   4.434  21.970  0.2835 -0.0313  0.2776
47896W        W56496  29.186   0.249   1.632  0.2907  0.0807  0.1008
47897W        W56497  10.764   3.955   0.567 -0.1998 -0.1984 -0.3368
47898W        W56498  25.817   7.236   1.124  0.0225  0.2463 -0.3109
47899W        W56499  30.516   3.282   0.801  0.2252  0.2012  0.1302
47900W        W56500   1.073   6.457   3.451 -0.3199  0.1502 -0.1800
47901W        W56501  13.679   4.570  19.096 -0.4301 -0.1582  0.4388
47902W        W56502  25.518   4.761  19.486  0.0428  0.0651  0.1235
47903W        W56503   6.612   0.485  25.228  0.0275  0.1304  0.0837
47904W        W56504  17.036   7.718   4.973  0.0202  0.0027 -0.3862
47905W        W56505  19.620   1.270   8.564  0.2089  0.0224 -0.2965
47906W        W56506  27.629   2.817  16.735  0.0147 -0.4056  0.0520
47907W        W56507  19.896   7.207  23.646 -0.0667  0.3511  0.0056
47908W        W56508  29.907   2.042   9.492  0.0843 -0.2768  0.0690
47909W        W56509  24.013   5.361  21.111 -0.0185  0.0841 -0.0564
47910W        W56510  22.759   2.676   6.286  0.0117  0.2776  0.0600
47911W        W56511  15.442   6.357  21.497  0.0915  0.0304 -0.1699
47912W        W56512  17.947   1.012   5.808  0.0279  0.2069  0.0158
47913W        W56513  24.251   6.376  19.116  0.1445  0.0810 -0.0765
47914W        W56514  25.970   1.271   7.508 -0.2057 -0.2234  0.3914
47915W        W56515   1.974   1.168   4.750  0.0445 -0.1745  0.2530
47916W        W56516  16.417   3.915   9.248  0.0728 -0.0735 -0.0711
47917W        W56517  24.468   2.963  16.223  0.1070 -0.1039 -0.1128
47918W        W56518   7.474   3.401   3.491  0.0095  0.1078  0.2135
47919W        W56519   2.010   5.933  18.397 -0.0271 -0.0246  0.2624
47920W        W56520  17.406   3.397  14.981  0.0754 -0.3421 -0.1658
47921W        W56521  30.700   6.190  17.747  0.3144  0.0396 -0.1273
47922W        W56522  29.859   2.592   4.428 -0.1860  0.2284  0.2473
47923W        W56523  19.732   6.365   0.659  0.0980  0.2393 -0.2085
47924W        W56524   8.957   3.827  22.225 -0.1457 -0.3101 -0.0671
47925W        W56525  21.659   2.462  24.317  0.4209  0.1004 -0.0290
47926W        W56526  19.765   5.705   3.043 -0.2324 -0.0577 -0.2553
47927W        W56527   4.621   6.548  17.116  0.2617 -0.1232  0.0638
47928W        W56528  12.604   0.082  10.853 -0.3066  0.0336  0.1793
47929W        W56529  23.833   4.369  19.811 -0.0241 -0.0930 -0.1032
47930W        W56530  30.988   6.124   6.157  0.1345 -0.1373 -0.1823
47931W        W56531   4.967   3.234  21.664  0.3694 -0.2402  0.1333
47932W        W56532  12.553   2.731  22.979 -0.3841 -0.1325  0.0565
47933W        W56533  11.542   5.103   7.319 -0.0838  0.1023 -0.1282
47934W        W56534  12.842   6.556  10.978 -0.0901 -0.1269 -0.4014
47935W        W56535   6.431   0.290  23.363  0.0752  0.4810  0.0355
47936W        W56536  26.473   2.669  16.428  0.0897  0.2823 -0.1301
47937W        W56537  27.340   2.143  24.307  0.3565 -0.2753  0.0160
47938W        W56538  29.424   6.611   3.018  0.0060  0.3036 -0.0157
47939W        W56539  17.371   5.489   5.273  0.0226  0.1675  0.0348
47940W        W56540  20.331   0.427  19.130 -0.0713  0.1002 -0.3138
47941W        W56541  17.987   4.888  18.790 -0.0595  0.0362  0.2138
47942W        W56542  17.277   2.721   2.582  0.0735  0.0814  0.1194
47943W        W56543  12.732   3.036  15.673 -0.2694 -0.1101 -0.1516
47944W        W56544   7.489   3.655   1.029  0.1663 -0.1172 -0.1528
47945W        W56545  30.723   7.544   8.426  0.0405  0.1161  0.1554
47946W        W56546  15.742   6.346   6.962  0.1530  0.2375 -0.0901
47947W        W56547  27.363   3.936  17.422  0.1155 -0.1051 -0.0921
47948W        W56548  14.428   1.399   0.013 -0.3604 -0.0541  0.4118
47949W        W56549  16.871   4.491   7.876 -0.1482 -0.2088  0.1191
47950W        W56550  16.072   7.243   0.467  0.2047  0.1817 -0.2646
47951W        W56551  11.906   1.802  19.798  0.2203  0.1810  0.0187
47952W        W56552  20.024   2.939  22.497  0.2942  0.0675  0.1646
47953W        W56553   9.793   1.808   7.258  0.0108  0.3390  0.0927
47954W        W56554   0.849   2.960   0.593  0.0611  0.4626 -0.2417
47955W        W56555   9.480   5.798  16.264 -0.1110  0.0698  0.1931
47956W        W56556  19.935   7.192  18.172 -0.2806 -0.0467  0.1149
47957W        W56557  11.753   4.260   0.692 -0.0910 -0.0813  0.2251
47958W        W56558   4.464   4.432  18.733  0.0728 -0.1042 -0.1909
47959W        W56559  13.358   2.393  22.550  0.1861  0.1574  0.3369
47960W        W56560  15.071   1.124  10.239  0.4495  0.1828  0.1481
47961W        W56561  15.725   0.934   5.213  0.0699  0.1221 -0.0033
47962W        W56562  29.663   1.192  21.690  0.0716 -0.1130  0.0788
47963W        W56563  10.806   3.600  21.844  0.0476  0.1405 -0.0854
47964W        W56564  10.632   0.616   1.366 -0.1045  0.0123 -0.3287
47965W        W56565  21.138   1.203  21.869 -0.0717 -0.1045 -0.1933
47966W        W56566  20.503   0.311  25.509  0.0538  0.1217  0.2759
47967W        W56567  16.470   5.374  17.179  0.0513 -0.2082  0.3956
47968W        W56568  22.513   1.863   6.505  0.1883 -0.0825  0.2041
47969W        W56569  12.445   3.265   4.772 -0.0325  0.1949  0.0883
47970W        W56570  17.318   0.585  10.083  0.1754  0.0761  0.3852
47971W        W56571  17.440   4.486   0.392  0.1889  0.2398  0.2524
47972W        W56572  15.548   2.915   6.854 -0.1875 -0.1263  0.1866
47973W        W56573  29.915   1.266  23.229  0.0853 -0.6244 -0.1115
47974W        W56574  23.440   4.913  16.853  0.0054  0.2591  0.3505
47975W        W56575  29.311   0.757  17.997 -0.2240  0.0710  0.1273
47976W        W56576  13.993   0.595  16.973  0.0375 -0.1527  0.0847
47977W        W56577  14.513   4.785   9.691 -0.0378 -0.2030 -0.1376
47978W        W56578  29.862   5.842  20.633  0.3060  0.1247 -0.1831
47979W        W56579  21.794   1.426   6.920 -0.2872 -0.1885 -0.0484
47980W        W56580   8.688   1.531   8.096 -0.0474  0.2383 -0.0202
47981W        W56581  14.844   2.767  25.802 -0.1283 -0.2913  0.0714
47982W        W56582  26.270   6.090  22.323 -0.0474  0.0097  0.1430
47983W        W56583  21.271   5.504   9.510  0.0882 -0.2714  0.0201
47984W        W56584   4.247   0.060  16.788  0.1003  0.2230  0.1659
47985W        W56585   0.887   7.070   1.081 -0.3960  0.2153 -0.0315
47986W        W56586  29.097   5.925   3.070 -0.0130  0.0952  0.1787
47987W        W56587  13.120   7.031  25.297 -0.0121  0.1896 -0.1655
47988W        W56588   0.039   3.783  22.746  0.0543 -0.0048  0.0143
47989ION     NA56589   2.033   2.903  17.086 -0.3302 -0.0039  0.1994
47990ION     NA56590  16.363   4.252   9.960  0.5312 -0.0082 -0.3650
47991ION     NA56591  10.569   6.606   7.112  0.0083 -0.1207 -0.2950
47992ION     NA56592  15.405   2.735   8.774  0.2994  0.5078  0.0180
47993ION     NA56593   0.554   1.388  23.337  0.0813  0.2056  0.0986
47994ION     NA56594   0.483   5.666   1.868  0.0994  0.7004 -0.0270
47995ION     NA56595  21.560   0.908  11.550  0.1588  0.5707  0.0458
47996ION     NA56596   0.446   6.706   0.364  0.0215 -0.1144 -0.3934
47997ION     NA56597   5.614   3.427  24.807  0.0485 -0.0921 -0.3253
47998ION     NA56598   0.253   1.733  19.527  0.0776 -0.3651 -0.0322
47999ION     NA56599  24.747   1.690  20.622  0.0722 -0.1353 -0.3143
48000ION     NA56600  29.848   4.836   5.788  0.0682 -0.2360  0.0716
48001ION     NA56601   5.531   1.439   4.232 -0.1134 -0.3314 -0.0121
48002ION     NA56602   7.760   6.642  21.905  0.4160  0.1927  0.1524
48003ION     NA56603  18.330   5.733   9.423 -0.1523 -0.1477 -0.1100
48004ION     NA56604  17.482   7.703  23.602 -0.0672  0.0030 -0.1395
48005ION     NA56605   6.141   3.832   6.436 -0.0459  0.3267  0.1051
48006ION     NA56606  15.951   0.632  21.770 -0.0067  0.3087  0.1124
48007ION     NA56607   3.928   6.187   6.170  0.4224 -0.4641  0.1945
48008ION     NA56608   7.812   5.924   9.045  0.2648 -0.1487  0.1504
48009ION     NA56609  24.986   5.216  17.358 -0.2293 -0.2591 -0.2027
48010ION     NA56610  18.861   5.946   5.005 -0.3026 -0.1844  0.1285
48011ION     NA56611   8.623   1.057   0.568 -0.2481 -0.0584  0.1281
48012ION     NA56612   6.428   6.125   4.396  0.4231 -0.0357  0.0141
48013ION     NA56613  23.445   1.988  22.410  0.1116  0.1243 -0.1020
48014ION     NA56614  21.937   5.412   8.011 -0.0207  0.3310  0.3539
48015ION     NA56615  12.349   3.480  20.066  0.1622 -0.6854  0.2070
48016ION     NA56616   7.930   2.106  22.945 -0.1305  0.1680  0.3111
48017ION     NA56617  20.823   2.090   3.512  0.2480  0.2889 -0.0521
48018ION     NA56618   1.460   0.310   0.220  0.2910  0.1286 -0.1166
48019ION     NA56619   2.913   3.730  23.297  0.3382  0.1330 -0.0885
48020ION     NA56620   8.781   7.266  17.277  0.6550 -0.4871  0.2099
48021ION     NA56621   2.138   7.221  15.862  0.3254  0.2628 -0.0197
48022ION     NA56622   4.947   7.088   9.682  0.3204  0.3315  0.5006
48023ION     NA56623  29.755   0.264  19.368  0.2515  0.1259 -0.2123
48024ION     NA56624   9.838   4.246   3.295 -0.1278  0.2540 -0.3163
48025ION     NA56625  20.715   4.468   6.424 -0.1326  0.2946  0.1674
48026ION     NA56626   2.000   1.728   3.857 -0.1648  0.1794 -0.0006
48027ION     NA56627   4.234   3.573  17.229 -0.4468  0.3373  0.1957
48028ION     NA56628   2.715   1.390   2.411 -0.0113 -0.3505  0.1175
48029ION     NA56629   8.862   5.067   7.369 -0.2349 -0.3543 -0.8047
48030ION     NA56630   0.206   3.615  26.333  0.0532  0.1695 -0.0094
48031ION     NA56631  21.018   1.361  18.093 -0.2390  0.2047  0.0575
48032ION     NA56632  10.198   0.615   3.898  0.1904 -0.3725 -0.0526
48033ION     NA56633  28.839   1.439   6.904  0.0725  0.1172 -0.2418
48034ION     NA56634   2.592   2.764  10.209 -0.2723  0.1502 -0.0998
48035ION     NA56635   1.824   1.883  16.597  0.0247 -0.3279 -0.1566
48036ION     NA56636  22.891   4.001  19.501 -0.1941  0.2263  0.4123
48037ION     NA56637  27.701   6.604   8.941 -0.5133  0.0379 -0.2992
48038ION     NA56638   1.836   0.352   2.488  0.0968  0.5361 -0.2715
48039ION     NA56639  15.414   6.334  23.141 -0.1051  0.1220  0.4910
48040ION     NA56640  21.370   7.783  22.048 -0.1126 -0.5034 -0.2574
48041ION     NA56641  27.109   1.630   5.535  0.3050  0.2621 -0.0769
48042ION     NA56642  30.415   1.614  10.176  0.1423 -0.0654 -0.0382
48043ION     NA56643  10.495   6.882   3.657 -0.0385  0.0009  0.1016
48044ION     NA56644  12.840   6.871  18.021  0.1877 -0.0520 -0.0187
48045ION     NA56645  26.855   4.723  22.043  0.0820 -0.1921  0.1953
48046ION     NA56646   7.092   7.330  10.699 -0.1995  0.1790 -0.0743
48047ION     NA56647  29.881   0.121  23.293 -0.1753  0.2279 -0.1234
48048ION     NA56648   6.145   5.447  10.399 -0.1933 -0.0635  0.4476
48049ION     NA56649  19.136   5.853  21.606  0.3112  0.2370 -0.3857
48050ION     NA56650  18.880   2.343   0.463 -0.0972  0.0728  0.3918
48051ION     NA56651  22.394   6.966  25.731  0.1362 -0.0302 -0.1378
48052ION     NA56652  28.330   7.103   8.377 -0.0615 -0.0618 -0.3683
48053ION     NA56653  12.171   0.718   1.651 -0.2049 -0.0855  0.1252
48054ION     NA56654  17.319   6.010   4.481 -0.6409 -0.2111  0.1663
48055ION     NA56655  22.897   5.702  23.628 -0.0580  0.1278 -0.1657
48056ION     NA56656  28.029   3.578  15.784 -0.3320  0.1982  0.7380
48057ION     NA56657  19.209   7.376   9.235 -0.3981 -0.0533  0.2937
48058ION     NA56658  20.905   7.362  17.328 -0.0579 -0.1061  0.1796
48059ION     NA56659  24.922   7.163  16.292 -0.0105  0.0030  0.1020
48060ION     NA56660  15.032   2.898   2.264 -0.0768 -0.0188  0.0130
48061ION     NA56661   8.057   3.056  10.597 -0.1918  0.0258 -0.1021
48062ION     NA56662  30.130   1.394   7.129  0.0144  0.3509 -0.4047
48063ION     NA56663  16.705   7.608  17.639 -0.4230 -0.0279 -0.1235
48064ION     NA56664   5.327   0.729  19.607  0.3570 -0.0090 -0.0006
48065ION     NA56665  23.522   0.173  19.807  0.1726  0.1877 -0.0104
48066ION     NA56666  15.716   3.312  23.923  0.1567  0.3901  0.0891
48067ION     NA56667   2.620   2.929  19.988 -0.1027 -0.1083  0.0005
48068ION     NA56668   6.451   4.001  16.486 -0.4278 -0.1172 -0.0547
48069ION     NA56669   2.289   5.897   9.015 -0.0140 -0.1939 -0.3108
48070ION     NA56670  28.586   2.183  22.320 -0.0107  0.1783 -0.2159
48071ION     NA56671   9.530   3.337  15.850  0.0003 -0.3978 -0.6949
48072ION     NA56672  11.276   2.878   7.086  0.3250  0.1457 -0.1283
48073ION     NA56673  28.592   0.691  16.497 -0.3324 -0.1693 -0.1628
48074ION     NA56674  22.388   1.830   8.026 -0.1930 -0.6887 -0.0019
48075ION     NA56675  17.134   6.264  21.586 -0.2856 -0.0436  0.0851
48076ION     NA56676  25.451   7.270   0.348  0.0984 -0.0392 -0.2444
48077ION     NA56677   6.879   6.170   7.138 -0.2451 -0.2225 -0.0990
48078ION     NA56678  26.116   1.120   1.216 -0.2320 -0.2704  0.0084
48079ION     NA56679  25.778   4.195  23.619  0.0597  0.5301  0.4586
48080ION     NA56680   5.691   5.278  17.112  0.4765 -0.2396 -0.2060
48081ION     NA56681   1.495   7.676   3.309  0.1402  0.2121 -0.2081
48082ION     NA56682  13.217   5.805   0.065 -0.1845 -0.0857  0.1431
48083ION     NA56683   1.355   4.169  24.075  0.1532 -0.6432  0.0795
48084ION     NA56684  23.352   5.288   4.392 -0.2048 -0.0569  0.1700
48085ION     NA56685   9.650   7.286  20.847  0.0467 -0.1180  0.2944
48086ION     NA56686  25.655   7.567   3.759 -0.1311 -0.1323 -0.0226
48087ION     NA56687   0.806   2.550  25.886 -0.2223  0.2745 -0.2697
48088ION     NA56688  18.695   5.886  20.894  0.1344 -0.1999  0.1177
48089ION     NA56689  10.376   2.126  17.348 -0.4402 -0.2341  0.4397
48090ION     NA56690  12.669   7.308   0.087  0.0146 -0.4566 -0.2114
48091ION     NA56691   8.819   6.808  25.398  0.0510 -0.0415 -0.0436
48092ION     NA56692  12.041   1.172  25.175 -0.4755 -0.1773  0.1332
48093ION     NA56693  20.727   7.672   3.368 -0.0971 -0.2144  0.0824
48094ION     NA56694  26.797   6.427   7.993 -0.2681  0.0145  0.0043
48095ION     NA56695   5.110   7.245   3.747  0.1822 -0.4597  0.3572
48096ION     NA56696   2.931   2.234   0.260  0.0779  0.2804  0.0760
48097ION     NA56697  11.949   7.363   5.055  0.0462  0.4286 -0.1744
48098ION     NA56698  22.472   1.943   9.025 -0.4416 -0.1946 -0.1118
48099ION     NA56699  18.824   1.589   4.146  0.3252  0.0166 -0.3598
48100ION     NA56700  25.298   7.299  25.167  0.4324  0.0104 -0.2946
48101ION     NA56701   1.245   4.514   0.491 -0.4528  0.1053  0.1962
48102ION     NA56702  29.966   4.472   1.440 -0.1426 -0.1752  0.1072
48103ION     NA56703  29.718   3.724   7.791 -0.1218  0.1484 -0.0661
48104ION     NA56704  26.285   3.393  16.224  0.0372  0.0642  0.0980
48105ION     NA56705  25.698   4.059  18.935  0.5275  0.0144 -0.0619
48106ION     NA56706   4.520   5.709   3.948  0.0766 -0.3525 -0.1273
48107ION     NA56707   7.789   1.149   7.548 -0.3531 -0.5032  0.2714
48108ION     NA56708   8.252   0.299   6.059  0.4871 -0.1646  0.0650
48109ION     NA56709  13.506   7.687  18.994  0.2628 -0.1667  0.0636
48110ION     NA56710  15.388   4.654   9.117 -0.0082 -0.1473  0.4414
48111ION     NA56711   3.837   3.466   0.448  0.0757 -0.0064 -0.2640
48112ION     NA56712  16.340   2.874   0.014 -0.0823  0.0200 -0.1452
48113ION     NA56713   4.573   2.524   3.835 -0.4801 -0.0074  0.6066
48114ION     NA56714  26.636   0.507   3.691  0.1478 -0.3064  0.1221
48115ION     NA56715  20.687   1.002  15.997  0.0866 -0.1429  0.0294
48116ION     NA56716   7.110   2.703   2.690  0.2401  0.1508  0.3176
48117ION     NA56717  29.864   6.414   6.647  0.4724 -0.5153 -0.3438
48118ION     NA56718   9.731   7.439  17.709 -0.1332 -0.0186 -0.0279
48119ION     NA56719   4.162   2.091   8.341  0.3861 -0.1944  0.3139
48120ION     NA56720  23.310   1.797   4.435 -0.1197  0.2059 -0.0580
48121ION     NA56721   2.812   0.429   9.109 -0.0086  0.1482 -0.1654
48122ION     NA56722  30.538   2.741   3.859  0.0531 -0.0824  0.0296
48123ION     NA56723  16.496   3.395  25.351  0.0952 -0.3230 -0.1454
48124ION     NA56724  23.459   2.099   9.056 -0.3559 -0.1219  0.1652
48125ION     NA56725  15.381   4.921  15.959  0.2308 -0.0717 -0.0248
48126ION     NA56726  22.805   0.291  25.288 -0.3405  0.3379  0.0218
48127ION     NA56727  15.056   6.206   3.588 -0.3012 -0.0188  0.0799
48128ION     NA56728  13.397   6.297  15.650 -0.0195  0.1677  0.7266
48129ION     NA56729  10.894   4.416   3.428  0.1435  0.5405 -0.1955
48130ION     NA56730  21.938   1.918   1.393  0.0482 -0.0498  0.4344
48131ION     NA56731  25.830   0.726   9.757 -0.0377  0.4936  0.2290
48132ION     NA56732  10.704   3.437   3.588  0.0964 -0.4584 -0.0386
48133ION     NA56733  21.445   4.513  21.308  0.0441 -0.1783  0.1568
48134ION     NA56734  11.211   0.392   8.374 -0.3046 -0.1153  0.1612
48135ION     NA56735  25.583   3.211  20.991 -0.4512 -0.0934  0.1726
48136ION     NA56736  29.386   5.485   8.379  0.1295 -0.2491  0.3907
48137ION     NA56737  15.986   1.403   1.880  0.3560  0.0273  0.1119
48138ION     NA56738  20.214   0.057   8.606  0.0953  0.1908  0.1676
48139ION     NA56739  22.400   2.365  18.207 -0.0434 -0.1010 -0.2694
48140ION     NA56740   7.363   0.443   5.134 -0.1164  0.3645 -0.0816
48141ION     NA56741  21.092   6.383   0.624 -0.2376 -0.0328 -0.0856
48142ION     NA56742   0.308   3.263   2.920 -0.1799 -0.3100  0.1121
48143ION     NA56743  27.147   3.031   4.966  0.4542 -0.4103  0.3487
48144ION     NA56744   2.051   0.659  18.716 -0.3678 -0.1171  0.2796
48145ION     NA56745  24.723   7.743  21.762  0.0813  0.1457 -0.0780
48146ION     NA56746  11.171   5.851  19.317 -0.1877  0.0959 -0.2799
48147ION     NA56747   2.551   2.722   8.776  0.0892  0.4306  0.2624
48148ION     NA56748  10.567   0.402   0.958 -0.2096 -0.3520 -0.0091
48149ION     NA56749  20.571   3.062  10.353  0.3794  0.1876 -0.6547
48150ION     NA56750  29.657   6.547   1.477 -0.2233 -0.1356  0.4362
48151ION     NA56751  21.411   0.463   8.588  0.0474  0.0814 -0.0073
48152ION     NA56752   2.209   5.211   8.286  0.3894 -0.1084 -0.1973
48153ION     NA56753  27.632   3.323   9.689  0.0993  0.1230 -0.2591
48154ION     NA56754  16.054   5.637  24.319  0.0186 -0.1464 -0.2118
48155ION     NA56755  15.945   1.361  24.218  0.0032 -0.1431  0.3480
48156ION     NA56756   3.525   3.722   7.579  0.5777 -0.5465 -0.2607
48157ION     NA56757  23.045   4.285   1.965  0.0902 -0.0866  0.0119
48158ION     NA56758  23.662   0.994  23.750  0.0230 -0.0698  0.1417
48159ION     NA56759  20.761   0.641   6.887 -0.2794 -0.0940 -0.0380
48160ION     NA56760   6.803   3.425   4.453 -0.0414 -0.1223 -0.1346
48161ION     NA56761  28.862   7.168  18.844 -0.2646 -0.3447 -0.4966
48162ION     NA56762  23.518   5.405  15.399 -0.2434 -0.0312  0.3522
48163ION     NA56763  25.893   3.083  17.444 -0.1009  0.2183  0.1440
48164ION     NA56764  22.647   4.724   4.652  0.3776  0.2777 -0.1677
48165ION     NA56765  27.583   4.678  15.931 -0.0413 -0.0407  0.1914
48166ION     NA56766  28.781   1.230   2.016  0.0359 -0.1811  0.3710
48167ION     NA56767  20.217   5.592  22.282 -0.4678 -0.0473  0.3660
48168ION     NA56768  19.750   4.366   9.750 -0.3200 -0.1150 -0.2925
48169ION     NA56769  27.718   7.133   0.880 -0.6967  0.1188 -0.2947
48170ION     NA56770  26.884   6.050  16.902 -0.0172 -0.1806  0.1399
48171ION     NA56771  12.186   6.295  23.926  0.3188  0.2444 -0.2927
48172ION     NA56772  29.988   3.532   6.469  0.2308 -0.3494 -0.0762
48173ION     NA56773   8.426   6.119  25.268 -0.1180 -0.2462 -0.0022
48174ION     NA56774  14.737   4.013   7.748 -0.0184  0.3826  0.0466
48175ION     NA56775  30.254   1.186   3.441 -0.3642 -0.2013  0.4625
48176ION     NA56776  12.296   4.489  21.994 -0.1133 -0.2782  0.0128
48177ION     NA56777   2.850   7.792  15.564 -0.1511 -0.2680 -0.5095
48178ION     NA56778  23.466   3.719   8.587  0.3458  0.0340 -0.0367
48179ION     NA56779  21.777   3.481   1.722  0.1504 -0.3687  0.3331
48180ION     NA56780  18.842   1.730  26.335 -0.4399 -0.1889 -0.0566
48181ION     NA56781  21.094   6.277   9.248  0.0226 -0.3449 -0.2163
48182ION     NA56782  29.145   2.181  23.481 -0.6158  0.2673  0.1658
48183ION     NA56783   4.435   7.010  17.245  0.0271  0.1574  0.1379
48184ION     CL56784   7.929   1.650  25.813 -0.0137  0.3460 -0.2209
48185ION     CL56785  29.743   4.150   5.562 -0.0099 -0.0081 -0.0608
48186ION     CL56786  23.115   4.634  18.938 -0.1757  0.1609 -0.3034
48187ION     CL56787  27.562   0.806  25.705 -0.0403 -0.5337 -0.1001
48188ION     CL56788  18.278   7.155   8.521 -0.3857 -0.4635  0.0495
48189ION     CL56789   1.125   1.084  18.704 -0.0777  0.0534  0.4439
48190ION     CL56790  10.703   4.801  18.280 -0.3489 -0.1307  0.2670
48191ION     CL56791  13.637   6.222   6.890  0.2710 -0.3392  0.0011
48192ION     CL56792  29.931   0.505  19.825  0.2154  0.2881  0.1176
48193ION     CL56793  11.167   6.242   9.237 -0.4309 -0.1245 -0.5479
48194ION     CL56794   8.411   1.048  16.954  0.0354 -0.1591  0.0674
48195ION     CL56795  14.151   2.255   3.796  0.1011 -0.0680  0.1423
48196ION     CL56796   2.876   0.776  17.703 -0.0626 -0.2062 -0.0898
48197ION     CL56797  16.633   0.616  15.719 -0.4301 -0.3520 -0.1179
48198ION     CL56798  26.992   4.390  22.133  0.1201  0.4349 -0.0750
48199ION     CL56799  15.651   0.906  21.716 -0.6160  0.1921 -0.2598
48200ION     CL56800  13.946   5.062   7.667  0.2912 -0.2523 -0.3507
48201ION     CL56801  11.655   7.012  24.835 -0.2002 -0.2587 -0.2868
48202ION     CL56802  28.285   0.161   0.469  0.1702  0.2536  0.0324
48203ION     CL56803  18.435   5.360  20.597 -0.1742 -0.3126  0.4460
48204ION     CL56804   5.641   6.876   3.235  0.0293 -0.1913 -0.1730
48205ION     CL56805   7.666   0.495   4.356 -0.2184  0.2554  0.1226
48206ION     CL56806  26.942   4.644  16.170 -0.3166 -0.0469 -0.7031
48207ION     CL56807  28.755   6.367  15.854  0.0443  0.0065  0.0679
48208ION     CL56808  27.071   6.216   8.412  0.0719 -0.1297  0.1342
48209ION     CL56809  28.487   4.496  21.055  0.2884  0.0856  0.2030
48210ION     CL56810  20.528   3.033  23.539  0.0363 -0.0390  0.4897
48211ION     CL56811  18.285   3.571  17.406  0.0500 -0.2690 -0.2204
48212ION     CL56812  30.811   1.126   9.855 -0.1495  0.2442  0.1921
48213ION     CL56813   2.492   7.219  15.779 -0.1873 -0.2553  0.0082
48214ION     CL56814   5.748   5.248  17.466  0.1512  0.0204  0.0227
48215ION     CL56815  10.477   6.378  22.283  0.2176  0.1278  0.3067
48216ION     CL56816   5.264   4.741  22.226  0.0356 -0.1143  0.2309
48217ION     CL56817  25.224   0.268  25.140 -0.0026 -0.0238 -0.2191
48218ION     CL56818  27.900   4.848   6.260  0.0476  0.3773 -0.3031
48219ION     CL56819  28.659   0.573  22.109  0.0506 -0.1529  0.2034
48220ION     CL56820  30.894   3.646  23.900 -0.2268  0.0016 -0.5694
48221ION     CL56821  22.686   2.220   4.960  0.3149 -0.1603  0.0613
48222ION     CL56822   7.301   4.087   8.896  0.1483 -0.3871  0.0523
48223ION     CL56823  22.430   1.833   0.145  0.5053 -0.1534  0.3461
48224ION     CL56824  20.683   4.729   6.652 -0.0031  0.1154 -0.0971
48225ION     CL56825  27.677   3.855  16.121  0.3021 -0.1447  0.0375
48226ION     CL56826  26.263   2.146   2.540 -0.2924 -0.3624 -0.0858
48227ION     CL56827   7.761   6.277  15.907  0.0613 -0.0625  0.0387
48228ION     CL56828  17.858   7.013  22.109  0.0955  0.0868  0.0631
48229ION     CL56829  10.997   4.626  25.933 -0.1925  0.1815 -0.2181
48230ION     CL56830  25.214   3.237   2.176  0.3057 -0.5504  0.0516
48231ION     CL56831   9.349   4.325   3.411 -0.4736  0.0310 -0.1462
48232ION     CL56832   4.013   5.381  23.017 -0.0070 -0.1509 -0.0054
48233ION     CL56833  10.458   6.391  16.635  0.1392  0.0741  0.3589
48234ION     CL56834  30.284   1.955   7.502 -0.0853 -0.1797  0.1067
48235ION     CL56835  22.715   7.680  26.288  0.0095 -0.1134 -0.0625
48236ION     CL56836   7.270   1.985   2.926  0.1057  0.2299 -0.0649
48237ION     CL56837   4.903   2.805  16.915  0.3564 -0.0910  0.1018
48238ION     CL56838  26.410   0.181  16.533 -0.2889  0.1415 -0.7840
48239ION     CL56839   6.589   2.252   2.475  0.1084  0.2913  0.1616
48240ION     CL56840  15.054   5.930  22.035  0.4287  0.0310 -0.0185
48241ION     CL56841  22.439   7.281   6.184  0.1971  0.2524  0.0831
48242ION     CL56842  14.080   0.932   9.012  0.2648 -0.1428  0.0689
48243ION     CL56843  31.124   5.818   5.254 -0.1821  0.1474 -0.1971
48244ION     CL56844   4.735   7.668   3.628 -0.3544 -0.0081  0.0306
48245ION     CL56845  30.767   7.767  20.795 -0.4285  0.0980 -0.0844
48246ION     CL56846  10.290   1.069  17.023  0.1993 -0.0498 -0.2177
48247ION     CL56847  11.306   2.168  22.365  0.1563  0.0555 -0.0942
48248ION     CL56848  28.722   1.173  21.421 -0.0758 -0.1809 -0.1129
48249ION     CL56849   5.446   3.908  25.250  0.0169 -0.0748  0.1851
48250ION     CL56850  11.479   0.439  25.127 -0.4553 -0.1308  0.1459
48251ION     CL56851  30.072   2.302   8.509  0.2589  0.3259  0.2361
48252ION     CL56852   2.792   3.142  23.589 -0.3179 -0.0494  0.0933
48253ION     CL56853  19.512   2.404  17.938 -0.4355  0.5466 -0.0546
48254ION     CL56854  20.669   7.593  17.114  0.5722 -0.0683 -0.7287
48255ION     CL56855  23.645   3.959  19.805 -0.0522  0.0817 -0.3720
48256ION     CL56856  20.581   4.591   8.783 -0.3351  0.0527 -0.1293
48257ION     CL56857   1.963   1.915   5.272 -0.3050 -0.0272  0.0546
48258ION     CL56858  13.196   0.121   8.073  0.0867  0.7078 -0.0539
48259ION     CL56859  10.707   0.381   8.753  0.2146  0.3420  0.0664
48260ION     CL56860   4.693   7.016   0.147  0.4024  0.1029  0.3412
48261ION     CL56861  15.378   3.462  23.724 -0.0715  0.3066  0.0255
48262ION     CL56862  16.825   0.306   8.275 -0.0511 -0.2791  0.0513
48263ION     CL56863   4.624   2.777   4.066  0.2223 -0.4482  0.3747
48264ION     CL56864  31.124   0.183  19.651 -0.1785  0.3261  0.3000
48265ION     CL56865  28.663   0.309   7.365  0.4285 -0.1756 -0.0720
48266ION     CL56866  21.018   6.531  10.477  0.5205 -0.3125 -0.3153
48267ION     CL56867  19.367   0.215   4.938  0.1286  0.2131  0.0605
48268ION     CL56868  17.502   0.062   5.915  0.3028 -0.3254 -0.5455
48269ION     CL56869  25.866   5.613  24.345  0.0423 -0.2993  0.0854
48270ION     CL56870  23.634   0.393   9.885  0.3215 -0.1193  0.0878
48271ION     CL56871  14.513   3.129  20.092 -0.0104  0.2806  0.0317
48272ION     CL56872  28.018   6.219   9.182  0.5376  0.2109  0.2225
48273ION     CL56873  28.553   1.469  23.487  0.0124 -0.6146  0.0990
48274ION     CL56874   9.044   7.458   8.875 -0.2329  0.0967  0.3951
48275ION     CL56875  18.605   2.762  16.265  0.2641  0.0723 -0.0754
48276ION     CL56876  22.484   5.323   5.641 -0.2131 -0.3025  0.3521
48277ION     CL56877  14.903   5.541  22.544  0.0299  0.5328  0.0991
48278ION     CL56878  20.324   3.012  16.453  0.1350 -0.0183  0.3305
48279ION     CL56879   0.283   7.000   5.792 -0.2607  0.0888  0.0620
48280ION     CL56880  17.944   0.126  20.858  0.4098 -0.1352  0.0442
48281ION     CL56881  16.146   1.748   6.200 -0.0046 -0.0458  0.0701
48282ION     CL56882  12.274   6.833   8.273  0.2760  0.1179 -0.6015
48283ION     CL56883  18.736   6.584   3.689 -0.2741 -0.6507  0.1811
48284ION     CL56884  20.298   1.423  21.684  0.1399 -0.7301  0.2610
48285ION     CL56885  21.844   6.908  25.782 -0.3247  0.2865  0.0869
48286ION     CL56886  27.701   0.918   7.465 -0.0619  0.2860 -0.4689
48287ION     CL56887   6.207   5.920  17.585 -0.2310 -0.2746 -0.2726
48288ION     CL56888  17.923   3.039   4.867  0.0464  0.0155 -0.0096
48289ION     CL56889  23.308   3.153   2.753  0.1251  0.3287  0.2350
48290ION     CL56890  19.440   7.715  10.647  0.0097  0.0873 -0.1131
48291ION     CL56891  28.418   0.100   3.752  0.0218 -0.2762 -0.0918
48292ION     CL56892  26.826   5.870  18.295  0.2247  0.4121  0.1260
48293ION     CL56893  12.512   7.234  25.719  0.2198 -0.5041 -0.1514
48294ION     CL56894  24.311   1.440  23.404  0.2338  0.1120 -0.5465
48295ION     CL56895   7.456   7.137  16.979 -0.1257  0.1890  0.4117
48296ION     CL56896   4.387   5.803   3.323 -0.1124  0.2727  0.0911
48297ION     CL56897   2.419   0.155   2.289  0.2088 -0.1023 -0.1720
48298ION     CL56898   0.266   0.509  10.191 -0.1367 -0.1262 -0.3551
48299ION     CL56899   6.532   3.259   4.662 -0.0141  0.0206  0.2889
48300ION     CL56900   8.040   1.861   9.971 -0.0372  0.0701 -0.0128
48301ION     CL56901   8.423   1.451  17.804  0.3473 -0.0742 -0.0902
48302ION     CL56902  24.554   1.791  20.130 -0.4776 -0.1417  0.0978
48303ION     CL56903  25.988   2.638  17.092 -0.1120  0.1435 -0.1249
48304ION     CL56904  22.832   5.251   4.839 -0.3969  0.0660 -0.3411
48305ION     CL56905   8.782   4.091  17.346  0.1686  0.0353  0.0646
48306ION     CL56906  11.613   7.482   6.028  0.1328 -0.5570 -0.3775
48307ION     CL56907  28.777   5.348   7.485  0.2083  0.2046  0.3964
48308ION     CL56908   6.149   6.438  16.030  0.1561  0.0611 -0.1301
48309ION     CL56909  19.643   7.191  20.831  0.3627  0.0764 -0.3806
48310ION     CL56910   1.181   5.391  24.321  0.1546 -0.2273 -0.0895
48311ION     CL56911  29.555   7.067   1.708 -0.0618  0.5739 -0.0863
48312ION     CL56912  23.685   5.795  19.834 -0.1537 -0.1308 -0.2558
48313ION     CL56913  27.331   3.105   9.684 -0.1643 -0.2418 -0.0604
48314ION     CL56914   4.007   3.740   0.687 -0.5179  0.1555 -0.1338
48315ION     CL56915   2.317   0.647  16.286 -0.2518  0.0430  0.0246
48316ION     CL56916  21.564   0.230  17.965  0.0052  0.2601 -0.3306
48317ION     CL56917  15.734   2.857   2.084 -0.4325 -0.1337 -0.5867
48318ION     CL56918  14.228   1.765   6.595  0.4265 -0.3033 -0.1352
48319ION     CL56919   5.628   5.260   7.902 -0.1236  0.2465  0.2727
48320ION     CL56920   5.994   2.950  10.123 -0.2527 -0.2421 -0.3317
48321ION     CL56921  20.642   3.411  17.301 -0.1796 -0.5018  0.5931
48322ION     CL56922   8.651   2.051  16.165  0.9292 -0.3535 -0.1695
48323ION     CL56923  16.907   3.271   9.630  0.1052  0.1297 -0.4969
48324ION     CL56924   1.936   0.213  26.212 -0.5463  0.0166  0.0976
48325ION     CL56925  20.377   2.792   0.749 -0.5279  0.5627  0.0865
48326ION     CL56926   5.144   5.475   3.532  0.0326 -0.2625  0.2054
48327ION     CL56927  18.922   4.648  24.729 -0.4833 -0.0334  0.5511
48328ION     CL56928  22.773   2.164  18.587  0.1561 -0.3828 -0.6335
  31.20497   7.80124  26.42611
