INSANE! Membrane UpperLeaflet>DPPC=100.0 LowerLeaflet>DPPC=100.0
56792
    1DPPC   NC3    1  14.918   2.614  20.907  0.1724  0.2374 -0.4203
    1DPPC   PO4    2  14.972   2.740  20.540 -0.0356 -0.2628  0.0918
    1DPPC   GL1    3  14.714   2.787  20.237 -0.1719 -0.2376 -0.1166
    1DPPC   GL2    4  14.816   2.533  20.090  0.3127  0.2463  0.0914
    1DPPC   C1A    5  14.691   3.124  20.056  0.2653 -0.0431  0.1107
    1DPPC   C2A    6  14.646   3.144  19.630  0.0816 -0.1032 -0.0458
    1DPPC   C3A    7  14.673   3.080  19.148 -0.0825  0.3005  0.0243
    1DPPC   C4A    8  14.668   3.141  18.595  0.1056  0.0092 -0.0159
    1DPPC   C1B    9  14.853   2.675  19.753  0.3348  0.2095  0.0816
    1DPPC   C2B   10  14.772   2.673  19.338  0.0139 -0.0379 -0.2737
    1DPPC   C3B   11  14.776   2.724  18.858  0.1076  0.0270  0.0182
    1DPPC   C4B   12  14.899   2.795  18.381  0.0561  0.0245  0.2708
    2DPPC   NC3   13  14.141   3.108  20.716  0.1423 -0.0193  0.0401
    2DPPC   PO4   14  14.023   3.447  20.609 -0.0333  0.1930  0.1555
    2DPPC   GL1   15  14.123   3.199  20.214  0.2806 -0.0521  0.1867
    2DPPC   GL2   16  14.371   3.373  20.243 -0.2162 -0.2152  0.1443
    2DPPC   C1A   17  14.023   3.217  19.841  0.0727  0.0576 -0.2196
    2DPPC   C2A   18  14.113   3.229  19.465  0.0338  0.0017  0.2098
    2DPPC   C3A   19  14.241   3.189  18.939  0.0713  0.2725  0.2314
    2DPPC   C4A   20  14.261   3.143  18.364  0.3300  0.0550 -0.0418
    2DPPC   C1B   21  14.491   3.528  19.915  0.3735  0.2556  0.2785
    2DPPC   C2B   22  14.477   3.588  19.476 -0.1288  0.1777 -0.1779
    2DPPC   C3B   23  14.526   3.556  19.009 -0.0431 -0.2644 -0.2612
    2DPPC   C4B   24  14.480   3.580  18.520  0.1039 -0.0414 -0.0876
    3DPPC   NC3   25  18.202   6.364  20.214 -0.0099  0.1937  0.2300
    3DPPC   PO4   26  18.501   6.188  20.080 -0.0172  0.1836 -0.1255
    3DPPC   GL1   27  18.763   6.194  19.757 -0.1394  0.0846  0.2085
    3DPPC   GL2   28  18.737   6.453  19.657  0.1040 -0.0905 -0.3051
    3DPPC   C1A   29  18.764   6.027  19.442 -0.1873 -0.4140 -0.3100
    3DPPC   C2A   30  18.660   5.945  19.046  0.1338  0.1360  0.1205
    3DPPC   C3A   31  18.716   5.793  18.577  0.1373 -0.0576 -0.0255
    3DPPC   C4A   32  18.710   5.845  18.112 -0.1195 -0.2372 -0.0297
    3DPPC   C1B   33  18.597   6.383  19.297 -0.1260 -0.3762  0.0660
    3DPPC   C2B   34  18.540   6.369  18.844 -0.1480 -0.0057  0.0210
    3DPPC   C3B   35  18.541   6.303  18.413 -0.1718  0.4360  0.2374
    3DPPC   C4B   36  18.550   6.367  17.902 -0.0660  0.1191 -0.2123
    4DPPC   NC3   37  19.225   2.126  20.268  0.0520  0.3775 -0.3033
    4DPPC   PO4   38  19.291   1.764  20.253  0.1624  0.2152  0.3193
    4DPPC   GL1   39  19.314   1.702  19.926 -0.1576 -0.2273 -0.4042
    4DPPC   GL2   40  19.304   1.947  19.817  0.2317 -0.0001 -0.2677
    4DPPC   C1A   41  19.387   1.477  19.667  0.3874  0.6624  0.0196
    4DPPC   C2A   42  19.413   1.322  19.318  0.0400 -0.2364 -0.3106
    4DPPC   C3A   43  19.450   1.331  18.851 -0.1630 -0.0451  0.0381
    4DPPC   C4A   44  19.387   1.336  18.343 -0.0264 -0.1050 -0.2567
    4DPPC   C1B   45  19.378   1.877  19.459 -0.0475 -0.1264  0.1508
    4DPPC   C2B   46  19.284   1.769  19.091 -0.0952  0.1461  0.3489
    4DPPC   C3B   47  19.357   1.782  18.614  0.2248  0.0897 -0.0675
    4DPPC   C4B   48  19.305   1.788  18.140 -0.0706 -0.2990 -0.1160
    5DPPC   NC3   49  13.743   3.796  20.731 -0.1308  0.2348  0.0973
    5DPPC   PO4   50  13.665   4.095  20.528  0.1191 -0.1400 -0.0243
    5DPPC   GL1   51  13.621   4.052  20.148  0.0597 -0.0071 -0.1389
    5DPPC   GL2   52  13.815   4.113  20.026  0.0476 -0.4615  0.0883
    5DPPC   C1A   53  13.331   4.180  19.894  0.1544  0.2259  0.0305
    5DPPC   C2A   54  13.222   4.318  19.559 -0.1101  0.0587  0.2173
    5DPPC   C3A   55  13.254   4.259  19.069 -0.0381 -0.2147  0.0379
    5DPPC   C4A   56  13.325   4.315  18.595 -0.2055  0.0007  0.0986
    5DPPC   C1B   57  13.747   4.072  19.703 -0.1762 -0.0085  0.3540
    5DPPC   C2B   58  13.793   4.195  19.317 -0.2047  0.0253  0.0169
    5DPPC   C3B   59  13.834   4.157  18.900 -0.0614 -0.0291  0.0267
    5DPPC   C4B   60  13.840   4.145  18.401  0.3338 -0.2516  0.1580
    6DPPC   NC3   61  16.871   0.470  20.880  0.0981  0.0533  0.1863
    6DPPC   PO4   62  17.070   0.596  20.587 -0.0926  0.0360 -0.0634
    6DPPC   GL1   63  16.948   0.521  20.176  0.0093  0.3953 -0.2548
    6DPPC   GL2   64  17.172   0.587  20.146 -0.1567  0.1180 -0.0265
    6DPPC   C1A   65  16.681   0.725  19.993 -0.0046 -0.0228  0.0824
    6DPPC   C2A   66  16.635   0.870  19.589  0.1101 -0.0828 -0.2936
    6DPPC   C3A   67  16.762   0.885  19.125 -0.2825  0.2046  0.2120
    6DPPC   C4A   68  16.752   0.943  18.606  0.2719  0.2520 -0.3212
    6DPPC   C1B   69  17.160   0.716  19.808  0.1112  0.1359  0.1334
    6DPPC   C2B   70  17.227   0.836  19.415  0.0253 -0.0660  0.2011
    6DPPC   C3B   71  17.277   0.874  18.919  0.2604 -0.2170  0.0903
    6DPPC   C4B   72  17.248   0.888  18.477  0.2187  0.0921  0.1023
    7DPPC   NC3   73  19.841   5.454  20.262  0.0712 -0.2171 -0.0512
    7DPPC   PO4   74  19.831   5.822  20.142  0.1531 -0.0743  0.0504
    7DPPC   GL1   75  19.958   5.969  19.726  0.1516  0.0886 -0.2461
    7DPPC   GL2   76  19.962   5.716  19.727  0.0853  0.0682 -0.1681
    7DPPC   C1A   77  20.018   6.001  19.372 -0.3104 -0.4994  0.0529
    7DPPC   C2A   78  19.971   6.080  18.978 -0.0468 -0.1563 -0.1167
    7DPPC   C3A   79  20.015   6.086  18.502  0.0256  0.1218 -0.0300
    7DPPC   C4A   80  20.035   6.059  18.033 -0.1573  0.4148  0.2045
    7DPPC   C1B   81  20.031   5.572  19.410 -0.1514  0.0691 -0.0243
    7DPPC   C2B   82  20.190   5.651  19.026  0.1995 -0.1700  0.0807
    7DPPC   C3B   83  20.180   5.547  18.510 -0.2543 -0.2014  0.1637
    7DPPC   C4B   84  20.212   5.579  18.062  0.1269 -0.0931 -0.0429
    8DPPC   NC3   85  18.084   1.129  20.123 -0.0584 -0.3904  0.0007
    8DPPC   PO4   86  17.728   1.227  20.141  0.1027 -0.2600  0.1817
    8DPPC   GL1   87  17.356   1.142  19.885  0.0253  0.1623  0.3129
    8DPPC   GL2   88  17.504   0.884  19.931 -0.1407 -0.0129  0.0503
    8DPPC   C1A   89  17.467   1.246  19.549 -0.1715 -0.2082 -0.0827
    8DPPC   C2A   90  17.522   1.239  19.148 -0.5099 -0.1822 -0.0612
    8DPPC   C3A   91  17.561   1.270  18.651 -0.0765  0.0625 -0.0453
    8DPPC   C4A   92  17.567   1.203  18.171 -0.2384 -0.0696 -0.4790
    8DPPC   C1B   93  17.657   0.763  19.586 -0.2156  0.1637  0.0947
    8DPPC   C2B   94  17.688   0.737  19.173 -0.1223  0.0092  0.3966
    8DPPC   C3B   95  17.709   0.756  18.733 -0.2765  0.0516 -0.1125
    8DPPC   C4B   96  17.743   0.707  18.247 -0.0844  0.0186  0.1412
    9DPPC   NC3   97  17.415   6.353  20.574 -0.1638 -0.2446 -0.0685
    9DPPC   PO4   98  17.265   6.664  20.351 -0.1012  0.0330  0.2306
    9DPPC   GL1   99  17.331   6.630  19.888  0.0361  0.0249  0.3418
    9DPPC   GL2  100  17.257   6.859  19.771  0.0226  0.2995  0.4361
    9DPPC   C1A  101  17.386   6.482  19.508 -0.1962 -0.1283  0.1033
    9DPPC   C2A  102  17.472   6.553  19.140 -0.0844  0.1979 -0.1401
    9DPPC   C3A  103  17.530   6.434  18.682 -0.2172  0.0014  0.1155
    9DPPC   C4A  104  17.643   6.482  18.210  0.0192  0.1562 -0.0119
    9DPPC   C1B  105  17.324   7.012  19.415  0.0733  0.2980 -0.0110
    9DPPC   C2B  106  17.349   7.012  18.998  0.0667  0.1402 -0.0128
    9DPPC   C3B  107  17.398   6.911  18.609 -0.0975  0.3626 -0.0384
    9DPPC   C4B  108  17.420   6.927  18.098  0.2392  0.4371  0.2228
   10DPPC   NC3  109  16.536   3.116  20.793 -0.1206  0.0122 -0.2166
   10DPPC   PO4  110  16.318   3.335  20.610  0.1602  0.3744  0.0943
   10DPPC   GL1  111  16.305   3.138  20.221 -0.4444 -0.1755  0.1393
   10DPPC   GL2  112  16.309   3.454  20.138  0.0437 -0.3849 -0.0801
   10DPPC   C1A  113  16.323   3.033  19.890  0.1862  0.1019 -0.0262
   10DPPC   C2A  114  16.506   3.153  19.545 -0.0980 -0.2395  0.1604
   10DPPC   C3A  115  16.488   3.203  19.086  0.0358  0.1558  0.0805
   10DPPC   C4A  116  16.487   3.253  18.615 -0.2523 -0.1878 -0.0590
   10DPPC   C1B  117  16.248   3.599  19.769  0.2193 -0.1463 -0.4353
   10DPPC   C2B  118  16.339   3.667  19.354  0.0373 -0.0396 -0.2268
   10DPPC   C3B  119  16.329   3.713  18.861 -0.1461  0.0105  0.0538
   10DPPC   C4B  120  16.312   3.660  18.360 -0.1380  0.3144 -0.3264
   11DPPC   NC3  121  15.280   3.849  20.889  0.0403  0.0993  0.3532
   11DPPC   PO4  122  15.336   4.083  20.561  0.2601  0.2095 -0.2227
   11DPPC   GL1  123  14.954   4.003  20.293 -0.3240  0.2182 -0.2173
   11DPPC   GL2  124  15.058   4.313  20.208 -0.0130  0.0360  0.0259
   11DPPC   C1A  125  14.712   4.045  20.012  0.1808 -0.0816  0.1847
   11DPPC   C2A  126  14.798   3.985  19.644  0.2051 -0.2312 -0.0377
   11DPPC   C3A  127  14.803   3.928  19.163  0.1540 -0.3335 -0.1183
   11DPPC   C4A  128  14.801   4.017  18.673  0.2963 -0.1296 -0.0039
   11DPPC   C1B  129  15.086   4.340  19.840 -0.1812 -0.0186  0.2238
   11DPPC   C2B  130  15.123   4.287  19.461  0.1385 -0.3798  0.0748
   11DPPC   C3B  131  15.198   4.364  18.973 -0.0385 -0.4224  0.2696
   11DPPC   C4B  132  15.194   4.366  18.497  0.1767 -0.3802  0.0676
   12DPPC   NC3  133  14.698   6.284  20.662 -0.0316  0.2063  0.0289
   12DPPC   PO4  134  14.958   6.449  20.379 -0.0253  0.0428  0.0718
   12DPPC   GL1  135  14.853   6.458  19.962 -0.0878  0.0249 -0.2653
   12DPPC   GL2  136  15.120   6.505  19.850  0.0255 -0.3630  0.3695
   12DPPC   C1A  137  14.695   6.503  19.641  0.6454 -0.1512  0.1811
   12DPPC   C2A  138  14.723   6.578  19.223  0.0483 -0.0188  0.3805
   12DPPC   C3A  139  14.740   6.602  18.804 -0.0102 -0.3781  0.4259
   12DPPC   C4A  140  14.772   6.519  18.363  0.1688 -0.0395  0.1728
   12DPPC   C1B  141  15.278   6.564  19.493  0.0826 -0.1429 -0.1349
   12DPPC   C2B  142  15.301   6.532  19.072  0.1184 -0.0997 -0.0688
   12DPPC   C3B  143  15.285   6.503  18.611 -0.0069  0.0071 -0.2382
   12DPPC   C4B  144  15.215   6.491  18.147 -0.0134  0.0895 -0.1947
   13DPPC   NC3  145  14.683   2.333  20.521 -0.1350  0.2982  0.0367
   13DPPC   PO4  146  14.506   2.673  20.685  0.4916  0.1617  0.0906
   13DPPC   GL1  147  14.241   2.776  20.383 -0.1192 -0.0538 -0.2165
   13DPPC   GL2  148  13.952   2.657  20.465  0.1119 -0.2658  0.0889
   13DPPC   C1A  149  14.283   2.780  19.985 -0.2859  0.3650 -0.4111
   13DPPC   C2A  150  14.277   2.762  19.551 -0.5602  0.1006 -0.2353
   13DPPC   C3A  151  14.273   2.712  19.046 -0.0518  0.0962  0.1497
   13DPPC   C4A  152  14.339   2.716  18.576  0.0080  0.2795 -0.0897
   13DPPC   C1B  153  13.858   2.514  20.142 -0.0513  0.1164 -0.2332
   13DPPC   C2B  154  13.965   2.456  19.770  0.1620 -0.1204 -0.3205
   13DPPC   C3B  155  13.989   2.429  19.269  0.3762  0.2207  0.0895
   13DPPC   C4B  156  13.921   2.385  18.823  0.2404 -0.2796 -0.0024
   14DPPC   NC3  157  18.973   6.319  20.153  0.0404 -0.2743 -0.0504
   14DPPC   PO4  158  18.915   6.706  20.016 -0.0328  0.1570 -0.1019
   14DPPC   GL1  159  19.027   6.836  19.664  0.2464  0.1974 -0.2067
   14DPPC   GL2  160  19.346   6.891  19.666 -0.0444 -0.1238  0.3495
   14DPPC   C1A  161  19.076   6.579  19.419  0.2443  0.0857 -0.2443
   14DPPC   C2A  162  18.976   6.304  19.145 -0.0535  0.0007 -0.0635
   14DPPC   C3A  163  18.986   6.227  18.695 -0.0777  0.1204  0.0993
   14DPPC   C4A  164  19.028   6.310  18.235 -0.2202 -0.0996 -0.0411
   14DPPC   C1B  165  19.438   6.741  19.314  0.1702  0.1307 -0.1866
   14DPPC   C2B  166  19.353   6.596  18.936  0.1428  0.3988  0.0682
   14DPPC   C3B  167  19.407   6.566  18.453  0.0525  0.1917 -0.0544
   14DPPC   C4B  168  19.404   6.603  17.952  0.1560 -0.0419 -0.1026
   15DPPC   NC3  169  15.841   2.202  21.094 -0.1337 -0.0134  0.4788
   15DPPC   PO4  170  15.944   2.286  20.717  0.1853  0.0474 -0.2577
   15DPPC   GL1  171  15.881   2.099  20.436  0.0301  0.1424  0.2982
   15DPPC   GL2  172  15.708   2.329  20.422 -0.4086  0.0907  0.3981
   15DPPC   C1A  173  15.876   2.051  20.086 -0.1736  0.1810  0.3071
   15DPPC   C2A  174  15.981   1.972  19.681  0.1012 -0.1131 -0.0456
   15DPPC   C3A  175  15.927   1.923  19.266  0.1130 -0.2567  0.0871
   15DPPC   C4A  176  15.924   1.864  18.815  0.0204  0.2149  0.0088
   15DPPC   C1B  177  15.737   2.449  20.005  0.1861 -0.0515 -0.1504
   15DPPC   C2B  178  15.751   2.449  19.589 -0.0891  0.1453  0.0357
   15DPPC   C3B  179  15.865   2.425  19.142  0.1361  0.4102  0.1915
   15DPPC   C4B  180  15.852   2.430  18.646  0.0084  0.1617 -0.2460
   16DPPC   NC3  181  17.513   3.863  20.252 -0.0143 -0.0982 -0.0461
   16DPPC   PO4  182  17.685   3.600  20.367  0.0284 -0.0734 -0.2834
   16DPPC   GL1  183  17.649   3.293  20.131  0.1209 -0.1268 -0.2057
   16DPPC   GL2  184  17.735   2.985  20.125 -0.0430 -0.1416  0.1688
   16DPPC   C1A  185  17.777   3.318  19.773 -0.2638  0.0771 -0.0664
   16DPPC   C2A  186  17.721   3.379  19.366  0.0805 -0.0514 -0.1140
   16DPPC   C3A  187  17.792   3.286  18.854  0.1644 -0.3296 -0.0509
   16DPPC   C4A  188  17.774   3.361  18.418 -0.2246 -0.0651  0.0771
   16DPPC   C1B  189  17.798   2.872  19.776  0.1735 -0.3117  0.1226
   16DPPC   C2B  190  17.927   2.865  19.373  0.0765  0.0602  0.0519
   16DPPC   C3B  191  17.966   2.871  18.872  0.0172 -0.0011  0.1194
   16DPPC   C4B  192  18.025   2.896  18.382  0.0956 -0.2570 -0.1244
   17DPPC   NC3  193  18.231   4.509  20.092 -0.1215  0.0484 -0.0467
   17DPPC   PO4  194  18.012   4.802  20.284  0.0514 -0.2780 -0.1120
   17DPPC   GL1  195  17.885   5.110  20.021 -0.0944 -0.4194  0.2621
   17DPPC   GL2  196  17.606   5.159  20.056 -0.3398 -0.1958  0.1727
   17DPPC   C1A  197  18.040   5.202  19.676  0.2347 -0.5618  0.1958
   17DPPC   C2A  198  18.143   5.123  19.290  0.0485  0.0138 -0.4643
   17DPPC   C3A  199  18.141   5.069  18.805 -0.1987  0.0067  0.1909
   17DPPC   C4A  200  18.064   5.125  18.272  0.2081 -0.4447 -0.3779
   17DPPC   C1B  201  17.564   5.102  19.712  0.1635  0.1086 -0.1138
   17DPPC   C2B  202  17.642   5.198  19.309 -0.0283 -0.3626  0.1978
   17DPPC   C3B  203  17.612   5.233  18.800  0.0293  0.2178  0.0459
   17DPPC   C4B  204  17.566   5.220  18.296 -0.0358  0.5058  0.0335
   18DPPC   NC3  205  14.535   5.567  20.409  0.1116 -0.0057  0.1179
   18DPPC   PO4  206  14.397   5.210  20.341  0.0684  0.0863 -0.1106
   18DPPC   GL1  207  14.327   5.011  19.947  0.0325 -0.1842 -0.0694
   18DPPC   GL2  208  14.462   4.787  20.060  0.0924  0.0723 -0.0416
   18DPPC   C1A  209  14.441   4.854  19.641  0.0199 -0.4670 -0.0188
   18DPPC   C2A  210  14.529   4.929  19.202 -0.0777  0.3639  0.2458
   18DPPC   C3A  211  14.416   4.900  18.751 -0.1820  0.2129  0.1207
   18DPPC   C4A  212  14.520   4.956  18.302  0.1761  0.3883  0.2836
   18DPPC   C1B  213  14.516   4.504  19.869 -0.4414 -0.2180  0.1903
   18DPPC   C2B  214  14.615   4.380  19.448 -0.0757 -0.3456 -0.0488
   18DPPC   C3B  215  14.678   4.399  18.987  0.3033 -0.1972 -0.0578
   18DPPC   C4B  216  14.654   4.523  18.487  0.1021  0.1605 -0.1812
   19DPPC   NC3  217  18.140   5.332  20.328  0.0299 -0.0683  0.3558
   19DPPC   PO4  218  17.773   5.544  20.355 -0.5444 -0.1384  0.2293
   19DPPC   GL1  219  17.627   5.607  19.932  0.0968  0.0808 -0.0864
   19DPPC   GL2  220  17.855   5.613  19.809  0.0414  0.1085  0.2101
   19DPPC   C1A  221  17.500   5.565  19.573 -0.1154  0.0823 -0.2418
   19DPPC   C2A  222  17.384   5.641  19.166  0.1886 -0.2651  0.4151
   19DPPC   C3A  223  17.434   5.643  18.695  0.0910  0.1866 -0.3778
   19DPPC   C4A  224  17.406   5.715  18.223 -0.0679 -0.0483 -0.1546
   19DPPC   C1B  225  17.892   5.548  19.436  0.1743 -0.3900 -0.0839
   19DPPC   C2B  226  17.917   5.591  18.998  0.0267  0.2442  0.0149
   19DPPC   C3B  227  17.911   5.594  18.476 -0.0301  0.0279 -0.0105
   19DPPC   C4B  228  17.890   5.535  17.993  0.2632  0.0269  0.1454
   20DPPC   NC3  229  21.354   4.398  20.525  0.1376 -0.0337  0.2847
   20DPPC   PO4  230  21.048   4.563  20.294  0.2826  0.0923 -0.0578
   20DPPC   GL1  231  21.091   4.667  19.888  0.0598  0.2623 -0.1581
   20DPPC   GL2  232  20.974   4.883  19.869 -0.1090 -0.1716 -0.0402
   20DPPC   C1A  233  21.032   4.473  19.562 -0.4339 -0.3904 -0.0899
   20DPPC   C2A  234  21.051   4.500  19.182 -0.0398  0.0724  0.1314
   20DPPC   C3A  235  21.040   4.527  18.660 -0.0623  0.3139  0.1126
   20DPPC   C4A  236  21.089   4.505  18.136  0.0618  0.3222  0.3512
   20DPPC   C1B  237  20.793   4.973  19.536 -0.1009 -0.1712 -0.1833
   20DPPC   C2B  238  20.799   5.010  19.138  0.1538  0.2026 -0.1442
   20DPPC   C3B  239  20.893   5.001  18.748  0.1379 -0.3896 -0.0664
   20DPPC   C4B  240  20.891   5.111  18.216  0.4249 -0.3316 -0.0638
   21DPPC   NC3  241  20.148   6.202  20.232 -0.0107 -0.1771 -0.2500
   21DPPC   PO4  242  20.392   6.055  19.937  0.0275  0.3464 -0.0850
   21DPPC   GL1  243  20.750   6.063  19.755  0.1210  0.1342 -0.0771
   21DPPC   GL2  244  20.610   6.360  19.624 -0.1916  0.2386  0.1610
   21DPPC   C1A  245  21.054   5.866  19.570  0.0452 -0.2469 -0.3581
   21DPPC   C2A  246  21.111   5.795  19.178 -0.1728 -0.1817  0.3321
   21DPPC   C3A  247  21.084   5.831  18.699  0.2159 -0.0404  0.1284
   21DPPC   C4A  248  20.984   5.894  18.257 -0.5362 -0.1261  0.1898
   21DPPC   C1B  249  20.479   6.359  19.283 -0.1048  0.0316  0.0400
   21DPPC   C2B  250  20.405   6.419  18.861  0.2314 -0.3080 -0.0939
   21DPPC   C3B  251  20.368   6.449  18.302  0.3120 -0.0714  0.1241
   21DPPC   C4B  252  20.381   6.472  17.823  0.2183  0.0464 -0.0843
   22DPPC   NC3  253  17.954   5.948  20.085 -0.1265  0.0652  0.0263
   22DPPC   PO4  254  18.267   5.713  20.053  0.0496 -0.1024  0.0142
   22DPPC   GL1  255  18.435   5.758  19.670 -0.0805  0.1249 -0.3707
   22DPPC   GL2  256  18.273   5.986  19.569 -0.0468 -0.0784 -0.2058
   22DPPC   C1A  257  18.422   5.574  19.354 -0.0378 -0.1691 -0.2610
   22DPPC   C2A  258  18.381   5.509  18.983  0.3391 -0.1054  0.0629
   22DPPC   C3A  259  18.360   5.453  18.523  0.0385  0.1396  0.1915
   22DPPC   C4A  260  18.378   5.461  18.054  0.1869 -0.1718 -0.3160
   22DPPC   C1B  261  18.273   5.960  19.201  0.1435 -0.0734 -0.1191
   22DPPC   C2B  262  18.218   5.990  18.799 -0.5188  0.0685 -0.1575
   22DPPC   C3B  263  18.248   5.968  18.307  0.0985  0.3397 -0.1273
   22DPPC   C4B  264  18.258   5.944  17.844 -0.0507 -0.1453  0.1954
   23DPPC   NC3  265  18.101   3.260  20.475 -0.0343 -0.2018  0.3634
   23DPPC   PO4  266  18.174   2.918  20.352 -0.0644 -0.0499  0.1327
   23DPPC   GL1  267  18.306   3.106  19.898 -0.1312  0.3305  0.3623
   23DPPC   GL2  268  18.152   3.344  20.013 -0.0872 -0.1913 -0.3901
   23DPPC   C1A  269  18.240   3.231  19.540 -0.4548  0.4808  0.3429
   23DPPC   C2A  270  18.221   3.228  19.127 -0.0648 -0.0546  0.1802
   23DPPC   C3A  271  18.221   3.284  18.641 -0.2115  0.2507 -0.0046
   23DPPC   C4A  272  18.343   3.340  18.162 -0.0470  0.1713  0.1041
   23DPPC   C1B  273  18.069   3.560  19.770  0.3756  0.0568 -0.0342
   23DPPC   C2B  274  18.137   3.673  19.354 -0.0213 -0.1827 -0.2669
   23DPPC   C3B  275  18.089   3.756  18.848  0.0239 -0.1929  0.0773
   23DPPC   C4B  276  18.090   3.779  18.270  0.0871  0.1279  0.0571
   24DPPC   NC3  277  17.880   1.970  20.300  0.0128  0.2171  0.0718
   24DPPC   PO4  278  18.285   1.949  20.271 -0.1456  0.1014  0.1346
   24DPPC   GL1  279  18.199   1.966  19.759  0.1185 -0.3299 -0.2041
   24DPPC   GL2  280  18.141   2.263  19.891 -0.2032  0.1709  0.2412
   24DPPC   C1A  281  18.265   1.986  19.417 -0.0071  0.0390  0.1425
   24DPPC   C2A  282  18.267   2.002  18.950  0.2256 -0.0427  0.2721
   24DPPC   C3A  283  18.304   1.980  18.484 -0.2908 -0.0400 -0.1600
   24DPPC   C4A  284  18.258   1.946  17.990 -0.0593  0.0679 -0.1219
   24DPPC   C1B  285  18.012   2.378  19.522 -0.3844  0.2831 -0.4043
   24DPPC   C2B  286  18.084   2.428  19.104 -0.1990 -0.0386 -0.0125
   24DPPC   C3B  287  18.050   2.411  18.647 -0.0766 -0.1565  0.0189
   24DPPC   C4B  288  18.187   2.415  18.147  0.2145 -0.1910  0.1209
   25DPPC   NC3  289  16.492   6.474  20.133  0.1868  0.2915 -0.1518
   25DPPC   PO4  290  16.848   6.567  19.960  0.1869 -0.0599 -0.0926
   25DPPC   GL1  291  17.006   6.422  19.668  0.3829  0.0373 -0.2947
   25DPPC   GL2  292  16.958   6.178  19.579 -0.1395  0.1754  0.2449
   25DPPC   C1A  293  16.996   6.527  19.302 -0.2143 -0.0794 -0.4963
   25DPPC   C2A  294  17.040   6.611  18.871 -0.0276  0.1747  0.3631
   25DPPC   C3A  295  17.098   6.582  18.415 -0.0582  0.1511  0.2054
   25DPPC   C4A  296  17.143   6.551  17.896 -0.0717  0.1734 -0.1317
   25DPPC   C1B  297  17.229   6.070  19.325  0.1075  0.1973 -0.0497
   25DPPC   C2B  298  17.230   6.062  18.907  0.1214 -0.0620 -0.0227
   25DPPC   C3B  299  17.213   6.082  18.431 -0.2418  0.0999  0.2585
   25DPPC   C4B  300  17.245   6.094  17.988 -0.1432  0.3810 -0.3462
   26DPPC   NC3  301  14.269   0.754  20.415 -0.1580  0.0730  0.1008
   26DPPC   PO4  302  14.671   0.878  20.356  0.1454 -0.0649  0.0614
   26DPPC   GL1  303  14.701   0.761  19.937 -0.1813  0.1842 -0.0007
   26DPPC   GL2  304  14.400   0.868  19.869  0.1432  0.1954 -0.0569
   26DPPC   C1A  305  14.886   0.730  19.640 -0.0336  0.1119  0.0151
   26DPPC   C2A  306  14.872   0.723  19.270 -0.2809  0.2577  0.3091
   26DPPC   C3A  307  14.910   0.795  18.751  0.0039  0.0090 -0.1941
   26DPPC   C4A  308  14.944   0.825  18.270 -0.1445 -0.0924 -0.0852
   26DPPC   C1B  309  14.520   0.985  19.543 -0.2592  0.0273 -0.0484
   26DPPC   C2B  310  14.544   1.069  19.117  0.1256  0.0189  0.0512
   26DPPC   C3B  311  14.691   1.371  18.694  0.2096 -0.2187  0.1409
   26DPPC   C4B  312  14.649   1.801  18.420 -0.2209 -0.0080 -0.0038
   27DPPC   NC3  313  15.907   3.565  20.493 -0.0469 -0.2387  0.1372
   27DPPC   PO4  314  15.537   3.509  20.691 -0.2980  0.0784  0.0548
   27DPPC   GL1  315  15.386   3.656  20.385 -0.0420 -0.0351  0.0550
   27DPPC   GL2  316  15.653   3.842  20.298  0.0386  0.0755 -0.1563
   27DPPC   C1A  317  15.285   3.715  20.010 -0.3270 -0.1406 -0.0916
   27DPPC   C2A  318  15.298   3.854  19.619  0.2525 -0.2449  0.0886
   27DPPC   C3A  319  15.316   3.817  19.128  0.0263 -0.3025 -0.0749
   27DPPC   C4A  320  15.258   3.855  18.638 -0.2564  0.1636  0.3449
   27DPPC   C1B  321  15.730   3.731  19.923 -0.1403 -0.0439  0.1320
   27DPPC   C2B  322  15.844   3.739  19.490 -0.0379  0.2986 -0.0315
   27DPPC   C3B  323  15.800   3.821  19.009  0.1879  0.2584  0.0053
   27DPPC   C4B  324  15.816   3.790  18.500 -0.1276  0.1384 -0.2348
   28DPPC   NC3  325  15.272   0.164  20.234  0.0025  0.1040 -0.0239
   28DPPC   PO4  326  15.562  -0.046  20.072  0.1847 -0.1860  0.0832
   28DPPC   GL1  327  15.659  -0.208  19.664  0.1931 -0.1109 -0.1782
   28DPPC   GL2  328  15.415  -0.397  19.728 -0.1034 -0.1912  0.2268
   28DPPC   C1A  329  15.727  -0.104  19.300  0.0018  0.0250  0.2791
   28DPPC   C2A  330  15.787  -0.212  18.915 -0.5177  0.0777  0.0668
   28DPPC   C3A  331  15.783  -0.185  18.485 -0.0060 -0.0215  0.0307
   28DPPC   C4A  332  15.707  -0.115  17.965  0.1588 -0.2897 -0.2829
   28DPPC   C1B  333  15.422  -0.524  19.384 -0.2637 -0.0793 -0.0899
   28DPPC   C2B  334  15.428  -0.560  18.997  0.1025  0.2092  0.2612
   28DPPC   C3B  335  15.423  -0.549  18.536  0.2108 -0.0644 -0.2332
   28DPPC   C4B  336  15.463  -0.564  18.059  0.0222 -0.0347 -0.1208
   29DPPC   NC3  337  19.465   4.156  20.604  0.1201 -0.0786  0.1937
   29DPPC   PO4  338  19.371   3.848  20.416  0.0552  0.2366  0.0002
   29DPPC   GL1  339  19.343   3.782  19.992 -0.3845  0.1617 -0.0361
   29DPPC   GL2  340  19.153   3.541  20.031  0.0429 -0.3252 -0.0721
   29DPPC   C1A  341  19.513   3.727  19.647 -0.2058 -0.0899 -0.0678
   29DPPC   C2A  342  19.483   3.508  19.319 -0.0808  0.4619 -0.1598
   29DPPC   C3A  343  19.578   3.476  18.833 -0.1157  0.2161 -0.3090
   29DPPC   C4A  344  19.562   3.404  18.360 -0.1522  0.2079 -0.2817
   29DPPC   C1B  345  19.074   3.547  19.670  0.2673  0.0980  0.1381
   29DPPC   C2B  346  19.067   3.651  19.262 -0.1677 -0.0748  0.1266
   29DPPC   C3B  347  19.083   3.634  18.795  0.0639 -0.1594 -0.0347
   29DPPC   C4B  348  19.073   3.531  18.309  0.1080 -0.1315 -0.0982
   30DPPC   NC3  349  19.502   4.943  20.564 -0.2212 -0.5304  0.1134
   30DPPC   PO4  350  19.520   5.092  20.174  0.1551 -0.0447 -0.1204
   30DPPC   GL1  351  19.436   4.975  19.740 -0.0828  0.1648 -0.0891
   30DPPC   GL2  352  19.200   4.809  19.848  0.1943  0.1288  0.0871
   30DPPC   C1A  353  19.491   4.898  19.372 -0.0098  0.1204 -0.1750
   30DPPC   C2A  354  19.589   4.873  18.950  0.1717  0.4190  0.2454
   30DPPC   C3A  355  19.601   4.820  18.569 -0.0785 -0.1348 -0.2387
   30DPPC   C4A  356  19.625   4.791  18.096 -0.2009  0.0645  0.5000
   30DPPC   C1B  357  19.115   4.640  19.528  0.1342  0.0035 -0.1481
   30DPPC   C2B  358  19.297   4.527  19.171  0.0263 -0.1311 -0.1012
   30DPPC   C3B  359  19.281   4.358  18.753 -0.1921  0.1067  0.0454
   30DPPC   C4B  360  19.244   4.404  18.306  0.0393  0.1793 -0.0072
   31DPPC   NC3  361  16.443   2.047  20.207  0.0236 -0.2807 -0.1220
   31DPPC   PO4  362  16.439   2.215  20.564  0.1582 -0.0130  0.1548
   31DPPC   GL1  363  16.344   2.604  20.337  0.2308 -0.1126  0.0828
   31DPPC   GL2  364  16.142   2.436  20.212 -0.2170  0.0448  0.0036
   31DPPC   C1A  365  16.551   2.589  20.053  0.0735 -0.1339  0.1258
   31DPPC   C2A  366  16.560   2.650  19.639  0.1157  0.0132  0.0364
   31DPPC   C3A  367  16.568   2.670  19.185  0.1185  0.2001  0.2435
   31DPPC   C4A  368  16.626   2.806  18.734  0.0238  0.5353  0.0428
   31DPPC   C1B  369  16.207   2.364  19.828  0.0231  0.1032  0.0677
   31DPPC   C2B  370  16.298   2.295  19.444  0.0776 -0.0026  0.3521
   31DPPC   C3B  371  16.300   2.325  18.927 -0.3372  0.2768 -0.0698
   31DPPC   C4B  372  16.377   2.406  18.486 -0.3813  0.0094 -0.1263
   32DPPC   NC3  373  19.571   0.422  20.133 -0.0690  0.0332  0.1617
   32DPPC   PO4  374  19.210   0.511  20.023 -0.0163  0.1840  0.1669
   32DPPC   GL1  375  19.113   0.855  19.878  0.1856 -0.1392 -0.1644
   32DPPC   GL2  376  18.906   0.688  19.798 -0.1953  0.3074  0.1199
   32DPPC   C1A  377  19.176   1.009  19.566  0.0351 -0.1058 -0.3152
   32DPPC   C2A  378  19.034   0.956  19.213 -0.2777  0.2209  0.0803
   32DPPC   C3A  379  19.073   0.923  18.734 -0.2439 -0.1656 -0.1143
   32DPPC   C4A  380  19.143   0.924  18.215  0.1868 -0.0733  0.0934
   32DPPC   C1B  381  18.973   0.593  19.428  0.3918  0.0302 -0.3370
   32DPPC   C2B  382  19.112   0.469  19.088 -0.1544 -0.2158  0.1789
   32DPPC   C3B  383  19.246   0.433  18.624  0.0911  0.0756 -0.1416
   32DPPC   C4B  384  19.210   0.450  18.140 -0.1620 -0.0853  0.2605
   33DPPC   NC3  385  14.139   3.846  21.029 -0.0938  0.2454 -0.2148
   33DPPC   PO4  386  14.180   3.959  20.656 -0.0786 -0.1841 -0.0114
   33DPPC   GL1  387  14.032   3.862  20.339  0.1114 -0.1089 -0.0345
   33DPPC   GL2  388  13.850   3.666  20.250  0.1768  0.1306 -0.0031
   33DPPC   C1A  389  14.178   3.855  20.071 -0.0025 -0.1305  0.2132
   33DPPC   C2A  390  14.283   4.086  19.709 -0.0597 -0.0733 -0.1104
   33DPPC   C3A  391  14.312   4.057  19.310  0.2485  0.0610 -0.1556
   33DPPC   C4A  392  14.321   4.032  18.806 -0.0309  0.1687  0.0428
   33DPPC   C1B  393  13.790   3.676  19.901 -0.2514  0.2512 -0.3212
   33DPPC   C2B  394  13.864   3.670  19.507  0.0759 -0.0778 -0.1028
   33DPPC   C3B  395  13.981   3.600  19.046  0.0148  0.0724 -0.1203
   33DPPC   C4B  396  13.985   3.512  18.602 -0.3376 -0.2002  0.1455
   34DPPC   NC3  397  19.677   1.480  20.065 -0.2061 -0.1062 -0.0664
   34DPPC   PO4  398  19.822   1.851  20.117 -0.0575 -0.0093 -0.1009
   34DPPC   GL1  399  19.734   1.962  19.755  0.2635  0.0056  0.1011
   34DPPC   GL2  400  19.756   1.716  19.701 -0.3115 -0.1695 -0.0580
   34DPPC   C1A  401  19.900   2.124  19.443  0.0067 -0.0185  0.0645
   34DPPC   C2A  402  19.999   2.127  19.046  0.1853  0.1752  0.1241
   34DPPC   C3A  403  20.098   2.018  18.612 -0.1207 -0.0367  0.0089
   34DPPC   C4A  404  20.109   2.006  18.140 -0.3984  0.0043  0.3096
   34DPPC   C1B  405  19.773   1.748  19.332  0.1077  0.3223  0.0668
   34DPPC   C2B  406  19.773   1.690  18.912  0.2042  0.0865 -0.1141
   34DPPC   C3B  407  19.812   1.685  18.389  0.0988 -0.0208 -0.2785
   34DPPC   C4B  408  19.786   1.565  17.945  0.0985 -0.0281 -0.0771
   35DPPC   NC3  409  18.918   4.970  20.167  0.1028 -0.0794  0.0349
   35DPPC   PO4  410  19.061   5.277  19.962  0.3325  0.2436  0.2760
   35DPPC   GL1  411  19.005   5.139  19.618 -0.0747 -0.1631  0.0404
   35DPPC   GL2  412  18.803   4.963  19.658  0.0622  0.5375 -0.0344
   35DPPC   C1A  413  19.063   5.047  19.246 -0.0398 -0.3497  0.2232
   35DPPC   C2A  414  19.088   4.941  18.820  0.0958 -0.1993  0.1881
   35DPPC   C3A  415  19.086   4.938  18.340  0.0121  0.2659  0.1287
   35DPPC   C4A  416  19.117   4.893  17.858 -0.0771  0.1448  0.1023
   35DPPC   C1B  417  18.567   4.971  19.376  0.1569  0.0693  0.0315
   35DPPC   C2B  418  18.608   5.069  18.988 -0.1430  0.0669  0.1257
   35DPPC   C3B  419  18.596   4.993  18.545  0.1585 -0.0153  0.0124
   35DPPC   C4B  420  18.601   5.026  18.054  0.2399 -0.0869 -0.0441
   36DPPC   NC3  421  15.824   0.359  20.154 -0.1324 -0.2145  0.1745
   36DPPC   PO4  422  15.531   0.543  20.347 -0.1155 -0.1193  0.1040
   36DPPC   GL1  423  15.360   0.558  19.978 -0.1027 -0.0414  0.0882
   36DPPC   GL2  424  15.367   0.850  19.901  0.2613  0.1031  0.1652
   36DPPC   C1A  425  15.383   0.386  19.649 -0.3482 -0.3252 -0.1442
   36DPPC   C2A  426  15.542   0.308  19.322 -0.0072  0.0486  0.5321
   36DPPC   C3A  427  15.561   0.304  18.797 -0.1261 -0.1952  0.0578
   36DPPC   C4A  428  15.594   0.253  18.284  0.0255 -0.0654 -0.1214
   36DPPC   C1B  429  15.348   0.838  19.499  0.0692 -0.0122  0.1127
   36DPPC   C2B  430  15.366   0.725  19.092  0.2203 -0.0127  0.0319
   36DPPC   C3B  431  15.394   0.741  18.604  0.0923 -0.1568  0.1725
   36DPPC   C4B  432  15.422   0.703  18.146 -0.2871  0.2390  0.4344
   37DPPC   NC3  433  14.134   2.137  21.153  0.1338  0.1351  0.4175
   37DPPC   PO4  434  14.312   2.153  20.807  0.0858 -0.3251  0.2652
   37DPPC   GL1  435  14.253   2.263  20.430 -0.0685 -0.1769 -0.0305
   37DPPC   GL2  436  14.049   2.131  20.354 -0.2094 -0.1848 -0.0142
   37DPPC   C1A  437  14.392   2.364  20.147  0.1875 -0.4999 -0.2339
   37DPPC   C2A  438  14.479   2.332  19.762 -0.0117  0.3866 -0.2500
   37DPPC   C3A  439  14.512   2.203  19.277  0.0687  0.2746  0.3449
   37DPPC   C4A  440  14.460   2.278  18.794 -0.2423  0.0535  0.0389
   37DPPC   C1B  441  14.048   2.071  20.007  0.2832 -0.1638 -0.0032
   37DPPC   C2B  442  14.138   2.001  19.593 -0.2766  0.1742  0.2447
   37DPPC   C3B  443  14.168   1.928  19.085 -0.2310  0.0177 -0.3097
   37DPPC   C4B  444  14.039   1.940  18.579 -0.0927 -0.1123  0.0312
   38DPPC   NC3  445  17.309   5.331  20.362 -0.1203 -0.2420  0.1682
   38DPPC   PO4  446  17.039   5.634  20.276 -0.0482 -0.1664 -0.0636
   38DPPC   GL1  447  17.141   5.757  19.831  0.2589  0.3327 -0.0044
   38DPPC   GL2  448  17.245   5.352  19.886 -0.1804 -0.2080  0.2110
   38DPPC   C1A  449  17.053   5.727  19.459  0.1410  0.0603 -0.1055
   38DPPC   C2A  450  16.893   5.717  19.058  0.0086 -0.1381 -0.1181
   38DPPC   C3A  451  16.914   5.714  18.621 -0.0501 -0.0590  0.1357
   38DPPC   C4A  452  16.886   5.762  18.155 -0.0231 -0.0422 -0.0353
   38DPPC   C1B  453  17.155   5.286  19.527  0.0835 -0.0281 -0.2612
   38DPPC   C2B  454  17.083   5.248  19.108 -0.0273 -0.1637  0.0779
   38DPPC   C3B  455  17.139   5.222  18.604  0.2329  0.1726 -0.1062
   38DPPC   C4B  456  17.129   5.349  18.105 -0.1094  0.0420 -0.0437
   39DPPC   NC3  457  20.662   2.020  20.557 -0.4103 -0.1409 -0.0038
   39DPPC   PO4  458  21.022   2.065  20.427  0.2316  0.2071 -0.2027
   39DPPC   GL1  459  21.166   2.039  20.000 -0.2174  0.0805 -0.3298
   39DPPC   GL2  460  21.216   2.326  19.979 -0.0099  0.0924  0.0703
   39DPPC   C1A  461  21.099   1.974  19.665 -0.1236  0.1560 -0.0534
   39DPPC   C2A  462  20.981   1.875  19.244 -0.0118  0.0600 -0.3656
   39DPPC   C3A  463  21.053   1.816  18.788  0.0169 -0.0024  0.0575
   39DPPC   C4A  464  21.065   1.814  18.307 -0.0474  0.0894  0.2723
   39DPPC   C1B  465  21.104   2.404  19.653 -0.2006  0.0489 -0.0932
   39DPPC   C2B  466  20.951   2.442  19.262 -0.0412  0.2702  0.1971
   39DPPC   C3B  467  20.884   2.400  18.737 -0.0455  0.0508 -0.0480
   39DPPC   C4B  468  20.892   2.278  18.233  0.1993  0.0472 -0.0511
   40DPPC   NC3  469  17.735   4.409  20.305  0.5042  0.1893 -0.0731
   40DPPC   PO4  470  17.945   4.096  20.156  0.4326  0.2298  0.0468
   40DPPC   GL1  471  17.905   3.964  19.716 -0.5585 -0.3662 -0.0382
   40DPPC   GL2  472  17.632   3.798  19.824 -0.0444 -0.0833  0.4549
   40DPPC   C1A  473  17.935   4.142  19.390 -0.3982 -0.0875 -0.2908
   40DPPC   C2A  474  17.989   4.267  18.998 -0.1004  0.3694 -0.0364
   40DPPC   C3A  475  17.984   4.193  18.600 -0.2252 -0.0056  0.0972
   40DPPC   C4A  476  18.003   4.302  18.115  0.1474  0.2906  0.2795
   40DPPC   C1B  477  17.567   3.879  19.465  0.1657 -0.1249 -0.2289
   40DPPC   C2B  478  17.651   3.913  19.033  0.1973  0.3663 -0.1086
   40DPPC   C3B  479  17.630   3.895  18.514 -0.0660  0.2407 -0.1964
   40DPPC   C4B  480  17.631   3.945  17.994  0.3013 -0.0146 -0.1477
   41DPPC   NC3  481  17.691   2.676  20.553  0.3028  0.0517 -0.0043
   41DPPC   PO4  482  17.288   2.656  20.615  0.2600 -0.0448  0.0616
   41DPPC   GL1  483  17.112   2.680  20.252  0.3183  0.2195  0.1854
   41DPPC   GL2  484  17.398   2.676  20.145  0.3239 -0.0616 -0.0249
   41DPPC   C1A  485  16.979   2.620  19.931  0.2235 -0.2523  0.1257
   41DPPC   C2A  486  17.034   2.626  19.527  0.2222 -0.5857 -0.2215
   41DPPC   C3A  487  17.041   2.646  19.087 -0.4177 -0.0683  0.0893
   41DPPC   C4A  488  17.119   2.609  18.559  0.2961  0.0014 -0.1055
   41DPPC   C1B  489  17.449   2.557  19.788  0.0145 -0.2235  0.0833
   41DPPC   C2B  490  17.564   2.515  19.374  0.2033  0.0739 -0.1332
   41DPPC   C3B  491  17.606   2.459  18.874  0.0695  0.0015  0.4622
   41DPPC   C4B  492  17.559   2.525  18.387 -0.1356 -0.0604  0.1617
   42DPPC   NC3  493  19.517   3.331  20.301 -0.0969  0.0629  0.0701
   42DPPC   PO4  494  19.486   2.936  20.237 -0.0372  0.0862  0.0602
   42DPPC   GL1  495  19.451   2.869  19.918  0.2767  0.0905 -0.0881
   42DPPC   GL2  496  19.288   2.753  19.822  0.1256 -0.2212  0.1182
   42DPPC   C1A  497  19.610   2.958  19.656  0.0724 -0.0722 -0.2206
   42DPPC   C2A  498  19.703   3.094  19.267  0.0702  0.0142 -0.0909
   42DPPC   C3A  499  19.706   2.996  18.771  0.2433 -0.0771  0.1592
   42DPPC   C4A  500  19.789   2.976  18.268  0.2112 -0.1141  0.0252
   42DPPC   C1B  501  19.332   2.685  19.459  0.0770  0.0614 -0.0316
   42DPPC   C2B  502  19.423   2.683  19.034  0.1407  0.3174  0.1543
   42DPPC   C3B  503  19.436   2.657  18.549  0.3243  0.4302  0.1671
   42DPPC   C4B  504  19.416   2.571  18.034 -0.4311 -0.2002  0.1017
   43DPPC   NC3  505  16.952   4.535  20.175 -0.1740  0.0981  0.3177
   43DPPC   PO4  506  16.716   4.223  20.286 -0.0633 -0.0989 -0.1667
   43DPPC   GL1  507  16.469   4.193  20.025  0.2350  0.1684 -0.2466
   43DPPC   GL2  508  16.543   3.900  19.914  0.0121  0.4256  0.1208
   43DPPC   C1A  509  16.318   4.452  19.813 -0.1086 -0.0593  0.3243
   43DPPC   C2A  510  16.447   4.498  19.385 -0.2306 -0.0895  0.1690
   43DPPC   C3A  511  16.465   4.523  18.907  0.0520  0.0127  0.2724
   43DPPC   C4A  512  16.487   4.518  18.384 -0.1644  0.1469  0.2899
   43DPPC   C1B  513  16.574   4.069  19.585 -0.0448 -0.1084  0.0994
   43DPPC   C2B  514  16.617   4.087  19.157 -0.2319 -0.0652 -0.0337
   43DPPC   C3B  515  16.660   4.094  18.681  0.1654 -0.0511  0.1126
   43DPPC   C4B  516  16.623   4.028  18.183 -0.0309 -0.0218 -0.1279
   44DPPC   NC3  517  15.198   3.191  20.544 -0.0466 -0.0415 -0.0286
   44DPPC   PO4  518  14.951   3.546  20.606 -0.1240  0.0727  0.3323
   44DPPC   GL1  519  14.865   3.546  20.155 -0.0167 -0.2682 -0.1019
   44DPPC   GL2  520  15.108   3.329  20.138  0.2782  0.5032  0.0711
   44DPPC   C1A  521  14.938   3.520  19.758  0.3319  0.0151 -0.1865
   44DPPC   C2A  522  14.950   3.460  19.356  0.1208  0.0680 -0.0131
   44DPPC   C3A  523  14.958   3.533  18.833  0.2021 -0.0672  0.0248
   44DPPC   C4A  524  14.915   3.469  18.313  0.0416  0.2389 -0.0665
   44DPPC   C1B  525  15.106   3.085  19.877 -0.0106  0.1072  0.1605
   44DPPC   C2B  526  15.107   3.023  19.480  0.0457 -0.0729 -0.0087
   44DPPC   C3B  527  15.170   3.047  19.076  0.1867  0.1268 -0.0034
   44DPPC   C4B  528  15.212   3.107  18.637 -0.1650 -0.0529  0.0072
   45DPPC   NC3  529  17.273   5.042  20.772 -0.0035 -0.0997  0.3427
   45DPPC   PO4  530  17.027   4.921  20.450  0.2378 -0.0836 -0.0754
   45DPPC   GL1  531  17.032   5.005  20.061 -0.2515  0.0227 -0.0333
   45DPPC   GL2  532  16.868   5.263  20.058 -0.3667  0.0549 -0.4170
   45DPPC   C1A  533  17.114   4.782  19.774 -0.0990  0.2877  0.1716
   45DPPC   C2A  534  17.266   4.784  19.403 -0.1317 -0.2584  0.0737
   45DPPC   C3A  535  17.291   4.830  18.912  0.0295 -0.3066  0.3028
   45DPPC   C4A  536  17.359   4.780  18.416 -0.2897 -0.0527  0.1789
   45DPPC   C1B  537  16.764   5.380  19.730 -0.1580 -0.1913 -0.1520
   45DPPC   C2B  538  16.628   5.456  19.353  0.0198  0.1790  0.0700
   45DPPC   C3B  539  16.585   5.415  18.871  0.0215  0.0600  0.3500
   45DPPC   C4B  540  16.649   5.363  18.352 -0.2810 -0.3077  0.0646
   46DPPC   NC3  541  17.691   0.351  19.904 -0.0652  0.1955  0.0056
   46DPPC   PO4  542  17.930   0.083  19.872  0.1184  0.0254 -0.3414
   46DPPC   GL1  543  17.984   0.131  19.482  0.1015 -0.0480 -0.2957
   46DPPC   GL2  544  18.297   0.244  19.417 -0.2135 -0.1820  0.0830
   46DPPC   C1A  545  17.832   0.206  19.181  0.0280  0.0075  0.0352
   46DPPC   C2A  546  17.874   0.273  18.769  0.1493  0.2359 -0.1331
   46DPPC   C3A  547  17.963   0.261  18.310 -0.1042  0.0362 -0.0106
   46DPPC   C4A  548  17.946   0.201  17.847  0.1516 -0.1558  0.0675
   46DPPC   C1B  549  18.300   0.207  19.026 -0.0641  0.0502  0.2976
   46DPPC   C2B  550  18.347   0.185  18.603 -0.0600 -0.0432 -0.1649
   46DPPC   C3B  551  18.454   0.144  18.197 -0.1766  0.0350 -0.2113
   46DPPC   C4B  552  18.438   0.169  17.714  0.1255  0.0813  0.1938
   47DPPC   NC3  553  14.166   4.846  20.677 -0.1984 -0.0738  0.1245
   47DPPC   PO4  554  14.029   4.850  20.306 -0.0827  0.0140  0.1730
   47DPPC   GL1  555  14.004   4.570  19.897  0.0120  0.0079 -0.0628
   47DPPC   GL2  556  13.832   4.846  19.882  0.3299  0.1109 -0.2359
   47DPPC   C1A  557  14.111   4.526  19.522 -0.1587  0.1110  0.3294
   47DPPC   C2A  558  14.201   4.500  19.112  0.0970  0.0688  0.0681
   47DPPC   C3A  559  14.172   4.488  18.674 -0.1612  0.4261  0.1588
   47DPPC   C4A  560  14.192   4.553  18.178  0.0660 -0.0594  0.4090
   47DPPC   C1B  561  13.814   5.075  19.632 -0.1190  0.0631  0.3077
   47DPPC   C2B  562  13.818   5.005  19.207  0.3160  0.0451 -0.1000
   47DPPC   C3B  563  13.907   4.978  18.691  0.2405 -0.2035 -0.2619
   47DPPC   C4B  564  13.918   5.052  18.213  0.1882  0.0609  0.0095
   48DPPC   NC3  565  16.512   1.346  20.733 -0.0640  0.1038 -0.0104
   48DPPC   PO4  566  16.647   1.477  20.389  0.0701 -0.0154  0.1029
   48DPPC   GL1  567  16.748   1.347  20.002  0.1119 -0.1990  0.0666
   48DPPC   GL2  568  16.927   1.176  20.006  0.0652  0.2577 -0.4591
   48DPPC   C1A  569  16.555   1.317  19.714 -0.2231 -0.0487 -0.3319
   48DPPC   C2A  570  16.565   1.349  19.309  0.1468  0.2297 -0.3567
   48DPPC   C3A  571  16.580   1.447  18.859 -0.0615 -0.0221  0.0295
   48DPPC   C4A  572  16.610   1.322  18.350  0.1064  0.0750 -0.2064
   48DPPC   C1B  573  17.003   1.245  19.668 -0.3726  0.3453 -0.0693
   48DPPC   C2B  574  17.068   1.316  19.277  0.0653 -0.0382  0.2571
   48DPPC   C3B  575  17.130   1.331  18.801  0.1550 -0.3110 -0.0507
   48DPPC   C4B  576  17.080   1.295  18.275 -0.0749  0.0762 -0.1613
   49DPPC   NC3  577  20.716   2.463  20.054 -0.0266 -0.0177 -0.0524
   49DPPC   PO4  578  20.510   2.116  20.073 -0.1942 -0.1173  0.0992
   49DPPC   GL1  579  20.588   2.120  19.634 -0.0361 -0.1786  0.2039
   49DPPC   GL2  580  20.460   2.361  19.673  0.0744 -0.0951  0.2750
   49DPPC   C1A  581  20.545   1.961  19.293  0.0887 -0.1601 -0.2214
   49DPPC   C2A  582  20.554   1.968  18.889 -0.0741 -0.0033  0.1007
   49DPPC   C3A  583  20.506   1.888  18.419 -0.1937  0.0638 -0.0601
   49DPPC   C4A  584  20.618   1.823  17.962 -0.1002 -0.0459 -0.2081
   49DPPC   C1B  585  20.308   2.438  19.363  0.1239 -0.0010  0.2160
   49DPPC   C2B  586  20.360   2.433  18.944 -0.1368  0.0995  0.1015
   49DPPC   C3B  587  20.421   2.380  18.448  0.2910  0.1309  0.1285
   49DPPC   C4B  588  20.474   2.389  17.942  0.1145  0.0538 -0.4560
   50DPPC   NC3  589  15.956   1.303  20.369  0.1452  0.0737 -0.2750
   50DPPC   PO4  590  16.283   1.088  20.378  0.0243  0.3016 -0.0567
   50DPPC   GL1  591  16.233   0.754  20.078  0.0597 -0.1627 -0.1973
   50DPPC   GL2  592  16.206   1.077  19.922  0.1629 -0.1493  0.1907
   50DPPC   C1A  593  16.223   0.643  19.716 -0.2155 -0.4965  0.0522
   50DPPC   C2A  594  16.392   0.546  19.350 -0.1103  0.0056 -0.0078
   50DPPC   C3A  595  16.428   0.586  18.864  0.2359  0.1892  0.0279
   50DPPC   C4A  596  16.368   0.599  18.366  0.1279 -0.0587 -0.0985
   50DPPC   C1B  597  16.136   1.052  19.575 -0.2144  0.4754  0.1137
   50DPPC   C2B  598  16.225   1.011  19.154  0.2629  0.1114 -0.1406
   50DPPC   C3B  599  16.191   1.062  18.645  0.0029  0.0620  0.1131
   50DPPC   C4B  600  16.296   1.024  18.141 -0.1385  0.2238  0.1125
   51DPPC   NC3  601  18.599   1.718  20.626 -0.2834  0.0367 -0.1831
   51DPPC   PO4  602  18.811   2.017  20.497  0.1901  0.0834 -0.1091
   51DPPC   GL1  603  18.818   1.891  20.044  0.4129  0.0060  0.1308
   51DPPC   GL2  604  18.688   2.132  20.040  0.0607  0.2052  0.1101
   51DPPC   C1A  605  18.916   1.801  19.659  0.1876 -0.2387  0.0022
   51DPPC   C2A  606  18.847   1.884  19.265  0.0004 -0.1682  0.0264
   51DPPC   C3A  607  18.824   1.891  18.812 -0.2982 -0.1155 -0.1391
   51DPPC   C4A  608  18.843   1.864  18.281 -0.0607 -0.0083 -0.0071
   51DPPC   C1B  609  18.586   2.228  19.685  0.0133 -0.0350  0.2466
   51DPPC   C2B  610  18.504   2.354  19.333  0.2390 -0.1709  0.1139
   51DPPC   C3B  611  18.553   2.400  18.854 -0.1461  0.2874  0.5065
   51DPPC   C4B  612  18.605   2.338  18.411 -0.0214  0.0416  0.2112
   52DPPC   NC3  613  17.784   3.368  20.905 -0.2311  0.0916  0.4433
   52DPPC   PO4  614  17.580   3.175  20.630 -0.0652  0.0891 -0.0670
   52DPPC   GL1  615  17.266   3.077  20.229  0.2270  0.2216 -0.1312
   52DPPC   GL2  616  17.234   3.424  20.313 -0.2342 -0.1173 -0.0695
   52DPPC   C1A  617  17.398   2.999  19.882  0.0339  0.3431  0.4154
   52DPPC   C2A  618  17.424   2.978  19.461  0.0055 -0.1601 -0.1240
   52DPPC   C3A  619  17.509   2.913  19.068  0.0732  0.0209 -0.0378
   52DPPC   C4A  620  17.445   2.976  18.659  0.0686  0.0712 -0.4293
   52DPPC   C1B  621  17.228   3.543  19.998  0.2027 -0.2603  0.1777
   52DPPC   C2B  622  17.296   3.470  19.615 -0.0547  0.0375  0.0783
   52DPPC   C3B  623  17.277   3.480  19.110  0.1208  0.3793 -0.1496
   52DPPC   C4B  624  17.336   3.499  18.618  0.0884  0.1762 -0.4380
   53DPPC   NC3  625  16.837   2.380  20.887  0.1334  0.1876 -0.2898
   53DPPC   PO4  626  16.967   2.261  20.517  0.0930 -0.4185  0.2609
   53DPPC   GL1  627  16.903   1.922  20.261  0.1081 -0.2162 -0.1123
   53DPPC   GL2  628  16.920   2.212  20.089  0.2324 -0.1530 -0.0360
   53DPPC   C1A  629  16.923   1.748  19.945  0.1792 -0.2885  0.2786
   53DPPC   C2A  630  16.829   1.703  19.536  0.0264  0.0862  0.0688
   53DPPC   C3A  631  16.958   1.781  19.080  0.0228 -0.1173  0.2076
   53DPPC   C4A  632  16.914   1.795  18.599  0.1448  0.0435  0.0343
   53DPPC   C1B  633  16.833   2.250  19.748  0.0711  0.0044 -0.2078
   53DPPC   C2B  634  16.766   2.261  19.319  0.0340  0.1458 -0.0933
   53DPPC   C3B  635  16.805   2.274  18.793 -0.0771 -0.2269  0.2063
   53DPPC   C4B  636  16.844   2.176  18.352  0.2252  0.0288  0.3687
   54DPPC   NC3  637  18.809   3.746  20.204 -0.4358  0.0598 -0.0991
   54DPPC   PO4  638  18.971   4.106  20.231 -0.1661  0.0146 -0.0850
   54DPPC   GL1  639  19.084   4.213  19.765  0.0423 -0.1327  0.4201
   54DPPC   GL2  640  18.854   4.010  19.709 -0.1474  0.2154  0.0609
   54DPPC   C1A  641  19.341   4.153  19.487 -0.1111  0.2007 -0.1214
   54DPPC   C2A  642  19.432   4.011  19.128  0.1881  0.0385 -0.0844
   54DPPC   C3A  643  19.417   3.898  18.591  0.0789 -0.0725  0.0476
   54DPPC   C4A  644  19.352   3.954  18.100  0.0379  0.1087 -0.0267
   54DPPC   C1B  645  18.858   4.118  19.360 -0.1285 -0.2602 -0.3229
   54DPPC   C2B  646  18.911   4.013  18.995 -0.0251 -0.2770  0.1976
   54DPPC   C3B  647  18.902   4.055  18.506  0.1289 -0.1612  0.0179
   54DPPC   C4B  648  18.892   4.122  17.994 -0.0701 -0.1969 -0.1559
   55DPPC   NC3  649  21.139   0.781  20.213 -0.0175  0.1049  0.1024
   55DPPC   PO4  650  20.898   0.525  20.085 -0.0420 -0.1866 -0.0949
   55DPPC   GL1  651  20.873   0.343  19.718  0.1888 -0.4696  0.0091
   55DPPC   GL2  652  20.988   0.613  19.617  0.0265 -0.3061  0.2750
   55DPPC   C1A  653  20.767   0.238  19.379 -0.0815  0.0095 -0.1175
   55DPPC   C2A  654  20.665   0.186  19.035 -0.2022  0.2078  0.1889
   55DPPC   C3A  655  20.627   0.246  18.570 -0.0160  0.2445 -0.1499
   55DPPC   C4A  656  20.736   0.163  18.057 -0.1316 -0.0609 -0.1203
   55DPPC   C1B  657  21.055   0.533  19.248  0.0608  0.2467 -0.0349
   55DPPC   C2B  658  21.050   0.553  18.840  0.1450  0.0570  0.0685
   55DPPC   C3B  659  21.023   0.460  18.417  0.1503 -0.1222 -0.0962
   55DPPC   C4B  660  21.061   0.506  17.921 -0.1070 -0.2641 -0.1528
   56DPPC   NC3  661  21.296   1.635  20.294  0.2639 -0.0628  0.0541
   56DPPC   PO4  662  21.090   1.301  20.213 -0.3915  0.4252 -0.4476
   56DPPC   GL1  663  21.034   1.544  19.817  0.0468 -0.0018  0.1291
   56DPPC   GL2  664  20.698   1.539  19.795  0.0853 -0.0645  0.0660
   56DPPC   C1A  665  21.155   1.485  19.480 -0.1201 -0.2130 -0.0116
   56DPPC   C2A  666  21.240   1.393  19.064  0.2539 -0.3313  0.1532
   56DPPC   C3A  667  21.234   1.373  18.592 -0.0535  0.2522 -0.0699
   56DPPC   C4A  668  21.245   1.367  18.070 -0.2385 -0.2500  0.2162
   56DPPC   C1B  669  20.636   1.464  19.448  0.4968 -0.3521  0.0137
   56DPPC   C2B  670  20.704   1.473  19.008 -0.0708  0.1951 -0.0873
   56DPPC   C3B  671  20.727   1.462  18.600  0.1378 -0.0621 -0.0493
   56DPPC   C4B  672  20.784   1.382  18.087  0.2869 -0.3586 -0.2344
   57DPPC   NC3  673  18.288   6.468  19.677 -0.2605  0.1486  0.1005
   57DPPC   PO4  674  18.441   6.741  19.887  0.0224 -0.2433 -0.1099
   57DPPC   GL1  675  18.644   6.986  19.646  0.1863 -0.2165 -0.1285
   57DPPC   GL2  676  18.474   7.267  19.557 -0.1684 -0.0990  0.0189
   57DPPC   C1A  677  18.725   6.842  19.324 -0.0550 -0.2765 -0.3703
   57DPPC   C2A  678  18.828   6.729  18.934 -0.0107  0.2364 -0.0023
   57DPPC   C3A  679  18.871   6.725  18.451 -0.1568  0.1637  0.1909
   57DPPC   C4A  680  18.918   6.752  17.959 -0.0700  0.2592 -0.0017
   57DPPC   C1B  681  18.606   7.259  19.266  0.3912  0.3813 -0.3830
   57DPPC   C2B  682  18.642   7.171  18.827 -0.3247  0.2146  0.0630
   57DPPC   C3B  683  18.739   7.220  18.398  0.1237  0.0972  0.0837
   57DPPC   C4B  684  18.720   7.238  17.909 -0.0774 -0.1012 -0.2609
   58DPPC   NC3  685  15.289   1.530  20.916  0.2524 -0.0134 -0.2493
   58DPPC   PO4  686  15.640   1.462  20.749 -0.2286 -0.2253  0.4418
   58DPPC   GL1  687  15.735   1.665  20.293  0.0017  0.1478 -0.2470
   58DPPC   GL2  688  15.488   1.528  20.332 -0.1313  0.0212 -0.2140
   58DPPC   C1A  689  15.714   1.677  19.947  0.1919 -0.1835 -0.0284
   58DPPC   C2A  690  15.629   1.624  19.552 -0.0145 -0.0097  0.1654
   58DPPC   C3A  691  15.642   1.545  19.032 -0.2234 -0.1106 -0.2133
   58DPPC   C4A  692  15.582   1.611  18.550 -0.2582 -0.1356  0.0285
   58DPPC   C1B  693  15.364   1.426  19.967 -0.1323 -0.1070 -0.3892
   58DPPC   C2B  694  15.155   1.662  19.729  0.3225  0.2958 -0.0212
   58DPPC   C3B  695  15.147   1.730  19.246  0.0356 -0.0409  0.2831
   58DPPC   C4B  696  14.984   1.891  18.813 -0.1408  0.0416  0.0113
   59DPPC   NC3  697  20.664   5.066  20.800 -0.1666  0.1529 -0.0925
   59DPPC   PO4  698  20.634   4.871  20.436  0.0838  0.0204 -0.0881
   59DPPC   GL1  699  20.376   5.001  20.125 -0.1585 -0.0968 -0.1012
   59DPPC   GL2  700  20.368   4.836  19.960 -0.1316  0.0471 -0.3745
   59DPPC   C1A  701  20.432   5.185  19.768 -0.2963 -0.1209 -0.1433
   59DPPC   C2A  702  20.393   5.251  19.334  0.0225 -0.1194  0.2020
   59DPPC   C3A  703  20.373   5.126  18.874 -0.1777  0.0488  0.1049
   59DPPC   C4A  704  20.438   5.125  18.414 -0.0229 -0.0042  0.0427
   59DPPC   C1B  705  20.204   4.820  19.597 -0.0330 -0.0590  0.0759
   59DPPC   C2B  706  20.124   4.785  19.168  0.0085 -0.1217  0.2282
   59DPPC   C3B  707  20.098   4.719  18.666  0.1867  0.1971 -0.5793
   59DPPC   C4B  708  20.102   4.632  18.203 -0.2943 -0.0109  0.1544
   60DPPC   NC3  709  20.587   4.081  20.871 -0.2340 -0.0718  0.2884
   60DPPC   PO4  710  20.461   4.262  20.526  0.0605  0.1118 -0.1928
   60DPPC   GL1  711  20.434   4.185  20.152 -0.0244 -0.0781 -0.0101
   60DPPC   GL2  712  20.616   4.419  20.106 -0.1858  0.0741  0.4568
   60DPPC   C1A  713  20.416   4.053  19.808 -0.0262 -0.0792 -0.1589
   60DPPC   C2A  714  20.351   3.752  19.526  0.4753  0.2399 -0.0217
   60DPPC   C3A  715  20.337   3.733  19.040 -0.2812 -0.0025 -0.2206
   60DPPC   C4A  716  20.406   3.695  18.579 -0.1248 -0.0102 -0.0812
   60DPPC   C1B  717  20.653   4.463  19.776 -0.1616 -0.1217  0.4460
   60DPPC   C2B  718  20.544   4.644  19.378  0.1747 -0.2304  0.3423
   60DPPC   C3B  719  20.606   4.621  18.891 -0.1568 -0.1057  0.1591
   60DPPC   C4B  720  20.593   4.580  18.401 -0.1052 -0.0233  0.1718
   61DPPC   NC3  721  15.995   3.479  21.011 -0.0529 -0.1587  0.0158
   61DPPC   PO4  722  15.904   3.158  20.832 -0.0194  0.1160 -0.0970
   61DPPC   GL1  723  15.685   3.152  20.460 -0.2663 -0.1259 -0.0131
   61DPPC   GL2  724  15.943   3.162  20.399 -0.3158 -0.1686 -0.2283
   61DPPC   C1A  725  15.509   3.263  20.117  0.1919 -0.0221  0.4031
   61DPPC   C2A  726  15.461   3.416  19.745  0.4006 -0.2951  0.2245
   61DPPC   C3A  727  15.499   3.404  19.312  0.0047  0.1070  0.2205
   61DPPC   C4A  728  15.547   3.469  18.777  0.1345 -0.0906 -0.1851
   61DPPC   C1B  729  15.923   3.263  19.992 -0.2252  0.2480  0.0254
   61DPPC   C2B  730  15.983   3.279  19.583 -0.2147  0.0436 -0.1723
   61DPPC   C3B  731  15.972   3.301  19.088  0.0723 -0.0319 -0.1314
   61DPPC   C4B  732  15.984   3.345  18.657 -0.0802  0.2347  0.1099
   62DPPC   NC3  733  18.559   5.345  19.812  0.1330  0.1429  0.1778
   62DPPC   PO4  734  18.427   5.018  20.014 -0.1225  0.0537  0.1122
   62DPPC   GL1  735  18.145   4.798  19.734 -0.2847  0.2586  0.0564
   62DPPC   GL2  736  18.459   4.689  19.744  0.0955  0.1221 -0.0303
   62DPPC   C1A  737  17.907   4.689  19.448 -0.5969  0.1151  0.1798
   62DPPC   C2A  738  17.845   4.736  19.032 -0.1444 -0.1292  0.0037
   62DPPC   C3A  739  17.847   4.691  18.553 -0.0328  0.0871  0.0990
   62DPPC   C4A  740  17.825   4.768  18.077  0.1131  0.0514  0.2039
   62DPPC   C1B  741  18.669   4.552  19.478  0.1206  0.0927  0.1199
   62DPPC   C2B  742  18.783   4.562  19.072  0.0677  0.3305 -0.1707
   62DPPC   C3B  743  18.802   4.492  18.627 -0.4040 -0.1502  0.1276
   62DPPC   C4B  744  18.764   4.607  18.114  0.0807 -0.0588 -0.0536
   63DPPC   NC3  745  17.545   0.480  20.386 -0.1328 -0.3325 -0.0536
   63DPPC   PO4  746  17.827   0.732  20.218 -0.1033  0.3672  0.0303
   63DPPC   GL1  747  18.049   0.784  19.881 -0.0248  0.4162  0.0474
   63DPPC   GL2  748  18.089   0.582  19.771 -0.2017  0.1873  0.1407
   63DPPC   C1A  749  18.117   1.047  19.623  0.3458 -0.2870  0.6418
   63DPPC   C2A  750  18.041   1.118  19.246  0.3468  0.2540  0.0511
   63DPPC   C3A  751  18.083   1.107  18.722  0.1270 -0.0886 -0.0357
   63DPPC   C4A  752  18.150   1.079  18.267 -0.0053  0.0809 -0.0194
   63DPPC   C1B  753  18.109   0.589  19.429 -0.1060 -0.1080  0.0898
   63DPPC   C2B  754  18.148   0.664  18.984  0.2000  0.2069 -0.1834
   63DPPC   C3B  755  18.250   0.654  18.548  0.2257  0.0916 -0.1122
   63DPPC   C4B  756  18.267   0.672  18.041 -0.0264  0.0102 -0.0364
   64DPPC   NC3  757  18.625   2.872  20.180  0.1504  0.0448 -0.2077
   64DPPC   PO4  758  18.562   3.267  20.256  0.0270  0.1237 -0.2605
   64DPPC   GL1  759  18.749   3.389  19.897  0.0131  0.0786 -0.0776
   64DPPC   GL2  760  18.536   3.563  19.722  0.0307 -0.0881 -0.2153
   64DPPC   C1A  761  18.738   3.103  19.760 -0.0371  0.1311 -0.2384
   64DPPC   C2A  762  18.738   3.184  19.393  0.0108 -0.2244  0.0011
   64DPPC   C3A  763  18.811   3.264  18.949  0.1327  0.1800  0.0083
   64DPPC   C4A  764  18.788   3.133  18.498 -0.2407  0.0578  0.0029
   64DPPC   C1B  765  18.567   3.703  19.406 -0.1765  0.1357  0.0436
   64DPPC   C2B  766  18.571   3.657  19.004  0.0841 -0.0607  0.0281
   64DPPC   C3B  767  18.603   3.667  18.504  0.0828  0.4303  0.1281
   64DPPC   C4B  768  18.569   3.729  18.010  0.0218  0.0892 -0.3143
   65DPPC   NC3  769  19.300   6.138  20.672 -0.0651 -0.0003 -0.1578
   65DPPC   PO4  770  19.421   6.134  20.284  0.2099  0.1768 -0.1848
   65DPPC   GL1  771  19.440   6.037  19.867  0.0966  0.4110  0.1655
   65DPPC   GL2  772  19.239   6.153  19.786  0.0328  0.2679  0.2312
   65DPPC   C1A  773  19.606   5.877  19.535  0.5267 -0.1950 -0.0185
   65DPPC   C2A  774  19.628   5.719  19.187  0.1119  0.0122  0.1541
   65DPPC   C3A  775  19.650   5.692  18.722 -0.3283  0.1916  0.2868
   65DPPC   C4A  776  19.745   5.679  18.194 -0.0313  0.1194 -0.0113
   65DPPC   C1B  777  19.235   6.007  19.410  0.1248 -0.0894 -0.2186
   65DPPC   C2B  778  19.189   5.866  19.012 -0.2987 -0.0248  0.1026
   65DPPC   C3B  779  19.212   5.773  18.514  0.2327  0.3268 -0.0398
   65DPPC   C4B  780  19.165   5.787  18.012 -0.1179  0.0681  0.1290
   66DPPC   NC3  781  18.569   0.559  20.093  0.1690  0.1008 -0.4086
   66DPPC   PO4  782  18.738   0.929  20.126 -0.3143 -0.0272 -0.0276
   66DPPC   GL1  783  18.541   1.111  19.847 -0.1863  0.1640  0.3092
   66DPPC   GL2  784  18.713   1.358  19.797 -0.2089  0.1760  0.3426
   66DPPC   C1A  785  18.525   1.124  19.469  0.2340 -0.1896  0.2651
   66DPPC   C2A  786  18.546   1.061  19.090 -0.1106  0.1048 -0.2030
   66DPPC   C3A  787  18.613   1.016  18.621 -0.0957  0.1781 -0.1275
   66DPPC   C4A  788  18.620   1.034  18.104  0.0656 -0.3160 -0.1798
   66DPPC   C1B  789  18.854   1.404  19.437 -0.3513 -0.2880  0.1448
   66DPPC   C2B  790  18.892   1.450  19.008  0.0710  0.0701  0.1882
   66DPPC   C3B  791  18.918   1.450  18.495 -0.0416  0.1211 -0.0333
   66DPPC   C4B  792  18.958   1.418  18.006 -0.1081 -0.0484 -0.1089
   67DPPC   NC3  793  15.600   5.391  20.029  0.0532 -0.2970 -0.1614
   67DPPC   PO4  794  15.885   5.619  20.155  0.3273 -0.0698  0.4310
   67DPPC   GL1  795  16.088   5.435  19.821  0.0676 -0.1702 -0.0335
   67DPPC   GL2  796  16.261   5.297  19.773  0.0492  0.0587  0.1457
   67DPPC   C1A  797  15.988   5.532  19.504  0.1465 -0.0815 -0.0518
   67DPPC   C2A  798  16.053   5.475  19.111  0.2859 -0.0285 -0.0679
   67DPPC   C3A  799  16.147   5.491  18.661  0.0293  0.1487 -0.1421
   67DPPC   C4A  800  16.127   5.491  18.191  0.0491 -0.2035  0.0853
   67DPPC   C1B  801  16.262   5.182  19.453 -0.1235  0.4252  0.0867
   67DPPC   C2B  802  16.270   4.990  19.078  0.1581 -0.1656  0.2721
   67DPPC   C3B  803  16.289   5.024  18.613  0.1693  0.2289  0.1106
   67DPPC   C4B  804  16.315   5.021  18.120 -0.1656  0.0068  0.1508
   68DPPC   NC3  805  15.470   4.999  20.800  0.2175 -0.1337  0.4086
   68DPPC   PO4  806  15.429   5.127  20.399  0.3706  0.0269  0.3363
   68DPPC   GL1  807  15.239   5.177  20.094  0.0232  0.0147 -0.1474
   68DPPC   GL2  808  14.914   5.149  20.238  0.3421  0.2219 -0.1753
   68DPPC   C1A  809  15.271   5.287  19.755  0.0409 -0.0162 -0.3470
   68DPPC   C2A  810  15.286   5.193  19.365  0.0933 -0.2749 -0.1104
   68DPPC   C3A  811  15.256   5.143  18.906 -0.0892 -0.1082  0.1770
   68DPPC   C4A  812  15.310   5.149  18.372 -0.1035  0.0095  0.1794
   68DPPC   C1B  813  14.760   5.149  19.888 -0.0984 -0.0587  0.0119
   68DPPC   C2B  814  14.796   5.227  19.506 -0.3295 -0.1189 -0.1013
   68DPPC   C3B  815  14.774   5.323  19.004 -0.3051 -0.0878 -0.0011
   68DPPC   C4B  816  14.860   5.261  18.519 -0.0852  0.2382 -0.1342
   69DPPC   NC3  817  15.972   2.724  20.538 -0.1464 -0.3090  0.1916
   69DPPC   PO4  818  15.560   2.765  20.588 -0.3536  0.1222 -0.0371
   69DPPC   GL1  819  15.454   2.810  20.122  0.0778 -0.1831 -0.2708
   69DPPC   GL2  820  15.773   2.881  20.118 -0.3517 -0.0567 -0.3365
   69DPPC   C1A  821  15.481   2.918  19.747  0.0338 -0.0219 -0.1022
   69DPPC   C2A  822  15.619   2.932  19.387 -0.1650 -0.0570  0.2746
   69DPPC   C3A  823  15.641   2.945  18.903  0.0917 -0.3396 -0.0964
   69DPPC   C4A  824  15.609   2.912  18.445 -0.0104  0.5263  0.0547
   69DPPC   C1B  825  15.956   2.849  19.806  0.2609  0.0616 -0.4443
   69DPPC   C2B  826  16.150   2.814  19.459  0.0567  0.2118  0.0485
   69DPPC   C3B  827  16.157   2.827  19.034  0.1008  0.2606  0.5512
   69DPPC   C4B  828  16.149   2.839  18.525  0.0365  0.2220  0.2523
   70DPPC   NC3  829  17.379   1.309  20.702 -0.1031 -0.1085  0.0106
   70DPPC   PO4  830  17.602   1.572  20.541 -0.0309  0.0432  0.2100
   70DPPC   GL1  831  17.572   1.663  20.121  0.2167  0.0161  0.1741
   70DPPC   GL2  832  17.405   1.838  20.205 -0.0580 -0.0773  0.3257
   70DPPC   C1A  833  17.359   1.588  19.797 -0.2692  0.0392  0.1525
   70DPPC   C2A  834  17.405   1.657  19.384 -0.3330  0.2129  0.0766
   70DPPC   C3A  835  17.463   1.693  18.911 -0.2424  0.0373  0.0138
   70DPPC   C4A  836  17.415   1.664  18.377  0.2320 -0.4194 -0.0822
   70DPPC   C1B  837  17.322   2.062  19.920 -0.0566 -0.1838  0.2598
   70DPPC   C2B  838  17.255   2.126  19.525 -0.1989  0.2560  0.3201
   70DPPC   C3B  839  17.244   2.187  19.060  0.0309 -0.7825  0.0467
   70DPPC   C4B  840  17.308   2.125  18.520  0.0196 -0.3801 -0.1063
   71DPPC   NC3  841  19.944   2.872  19.978  0.0620 -0.1398 -0.0208
   71DPPC   PO4  842  20.341   2.779  19.852 -0.0423 -0.1358  0.3057
   71DPPC   GL1  843  20.470   3.090  19.586  0.3182  0.4346 -0.2443
   71DPPC   GL2  844  20.138   3.098  19.620 -0.0391 -0.0852  0.2426
   71DPPC   C1A  845  20.519   3.310  19.275  0.2373 -0.2011 -0.1490
   71DPPC   C2A  846  20.594   3.270  18.839  0.1222 -0.1023 -0.1322
   71DPPC   C3A  847  20.511   3.296  18.368 -0.0263  0.2640  0.0811
   71DPPC   C4A  848  20.664   3.270  17.916 -0.2213 -0.0663  0.1123
   71DPPC   C1B  849  20.254   2.973  19.262 -0.0893  0.0382 -0.1509
   71DPPC   C2B  850  20.257   2.892  18.854 -0.1923 -0.2321 -0.0495
   71DPPC   C3B  851  20.272   2.880  18.384  0.0735 -0.1137 -0.0583
   71DPPC   C4B  852  20.225   2.925  17.922 -0.1437 -0.0273 -0.0587
   72DPPC   NC3  853  18.298   3.752  20.200  0.2086 -0.1420  0.2181
   72DPPC   PO4  854  18.442   4.068  19.975  0.1205  0.1077 -0.0347
   72DPPC   GL1  855  18.337   4.043  19.556  0.2981 -0.1346  0.2174
   72DPPC   GL2  856  18.224   4.368  19.553  0.0083  0.2474  0.5485
   72DPPC   C1A  857  18.433   4.089  19.183 -0.0443  0.2727 -0.0246
   72DPPC   C2A  858  18.459   4.102  18.766 -0.1310 -0.0963  0.0893
   72DPPC   C3A  859  18.456   4.156  18.256  0.2412 -0.2966  0.0195
   72DPPC   C4A  860  18.483   4.201  17.786  0.2371  0.1477  0.1115
   72DPPC   C1B  861  18.278   4.557  19.223 -0.2626  0.5101 -0.1363
   72DPPC   C2B  862  18.344   4.570  18.826  0.2057  0.0013 -0.1794
   72DPPC   C3B  863  18.277   4.650  18.371  0.1178 -0.3538  0.1086
   72DPPC   C4B  864  18.255   4.632  17.869  0.2139  0.0006 -0.0347
   73DPPC   NC3  865  19.324   5.668  20.073  0.2094 -0.0970  0.0943
   73DPPC   PO4  866  18.930   5.818  19.956  0.0139  0.0942 -0.1371
   73DPPC   GL1  867  18.923   5.606  19.575  0.0530 -0.4194 -0.3667
   73DPPC   GL2  868  19.192   5.548  19.624 -0.0029 -0.1737 -0.0585
   73DPPC   C1A  869  18.920   5.500  19.241 -0.0105 -0.3180  0.0045
   73DPPC   C2A  870  18.902   5.414  18.814  0.0115 -0.0444  0.1260
   73DPPC   C3A  871  18.921   5.432  18.290  0.1766  0.1107 -0.0392
   73DPPC   C4A  872  18.882   5.383  17.775 -0.1171 -0.0196 -0.0890
   73DPPC   C1B  873  19.376   5.268  19.429  0.0555 -0.3087 -0.2389
   73DPPC   C2B  874  19.369   5.334  19.038  0.1699  0.1385  0.0726
   73DPPC   C3B  875  19.393   5.292  18.519 -0.2422  0.2041  0.0733
   73DPPC   C4B  876  19.451   5.285  18.051  0.1647  0.0340 -0.0307
   74DPPC   NC3  877  20.761   0.119  20.377 -0.2800 -0.0957  0.3152
   74DPPC   PO4  878  20.732   0.016  19.987  0.1591  0.2017 -0.2400
   74DPPC   GL1  879  20.372   0.155  19.737  0.0006 -0.0740  0.0240
   74DPPC   GL2  880  20.243  -0.087  19.793  0.3214 -0.0094  0.0058
   74DPPC   C1A  881  20.344   0.178  19.393 -0.2306 -0.0334 -0.0369
   74DPPC   C2A  882  20.204   0.328  19.000 -0.2885  0.0916 -0.0359
   74DPPC   C3A  883  20.160   0.295  18.544 -0.0388 -0.1787 -0.1148
   74DPPC   C4A  884  20.123   0.237  18.017 -0.0559  0.0447 -0.2234
   74DPPC   C1B  885  20.043  -0.189  19.507 -0.2677  0.3260 -0.3557
   74DPPC   C2B  886  19.958  -0.079  19.171  0.0174  0.0683  0.0174
   74DPPC   C3B  887  19.874  -0.081  18.701  0.1040 -0.1314 -0.1311
   74DPPC   C4B  888  19.868  -0.091  18.221  0.0947  0.0698  0.1060
   75DPPC   NC3  889  17.296   4.099  20.800  0.0635  0.2550 -0.1794
   75DPPC   PO4  890  17.271   4.261  20.399 -0.4120 -0.0627 -0.1607
   75DPPC   GL1  891  17.187   4.050  20.031  0.1472 -0.0030 -0.0652
   75DPPC   GL2  892  17.382   4.300  19.951  0.0720 -0.1006 -0.1629
   75DPPC   C1A  893  17.097   3.969  19.664 -0.1968  0.1654  0.0469
   75DPPC   C2A  894  17.160   3.967  19.224 -0.3204 -0.2580 -0.3311
   75DPPC   C3A  895  17.165   3.958  18.756 -0.1154 -0.1019 -0.2199
   75DPPC   C4A  896  17.173   3.944  18.285 -0.1592  0.2248 -0.1340
   75DPPC   C1B  897  17.413   4.228  19.622  0.2886  0.1693 -0.0024
   75DPPC   C2B  898  17.538   4.376  19.235 -0.0752  0.2725  0.0403
   75DPPC   C3B  899  17.484   4.368  18.708 -0.2286  0.2769  0.0055
   75DPPC   C4B  900  17.454   4.344  18.170  0.0164 -0.0966 -0.0312
   76DPPC   NC3  901  19.252   0.874  20.349  0.0324 -0.1594 -0.2149
   76DPPC   PO4  902  19.588   0.902  20.141  0.1152  0.4315 -0.1802
   76DPPC   GL1  903  19.564   1.026  19.734 -0.3741  0.1931  0.0557
   76DPPC   GL2  904  19.507   0.751  19.700 -0.0057 -0.3452  0.0694
   76DPPC   C1A  905  19.806   1.078  19.462  0.1118 -0.0085 -0.1222
   76DPPC   C2A  906  19.908   1.235  19.138 -0.0427  0.3196  0.1252
   76DPPC   C3A  907  19.879   1.242  18.643 -0.4518 -0.2406 -0.1411
   76DPPC   C4A  908  19.894   1.166  18.174 -0.0431  0.2408  0.1602
   76DPPC   C1B  909  19.414   0.653  19.352  0.2666  0.0916  0.0855
   76DPPC   C2B  910  19.540   0.848  19.008  0.2478 -0.0370  0.0874
   76DPPC   C3B  911  19.555   0.829  18.497 -0.1623  0.0800  0.0820
   76DPPC   C4B  912  19.597   0.794  17.990 -0.1574  0.0718 -0.1093
   77DPPC   NC3  913  16.403   4.248  20.657 -0.0075 -0.0145 -0.0507
   77DPPC   PO4  914  16.054   4.377  20.731 -0.0827 -0.1505  0.0377
   77DPPC   GL1  915  15.761   4.223  20.474 -0.1635 -0.0725  0.0266
   77DPPC   GL2  916  16.025   4.068  20.408 -0.3198 -0.1281 -0.0855
   77DPPC   C1A  917  15.637   4.275  20.136 -0.2442  0.1289 -0.2689
   77DPPC   C2A  918  15.627   4.188  19.737 -0.1759  0.2419 -0.0971
   77DPPC   C3A  919  15.547   4.254  19.298 -0.0694  0.1159 -0.0137
   77DPPC   C4A  920  15.648   4.257  18.824  0.0191  0.2137 -0.0735
   77DPPC   C1B  921  16.049   4.004  20.041  0.3471 -0.4417 -0.4521
   77DPPC   C2B  922  16.121   4.081  19.677 -0.2159  0.0778 -0.2169
   77DPPC   C3B  923  16.096   4.102  19.179 -0.1828 -0.1011 -0.0608
   77DPPC   C4B  924  16.175   4.155  18.653  0.1053  0.0931 -0.1570
   78DPPC   NC3  925  20.204   1.893  19.771 -0.1481 -0.0511 -0.0972
   78DPPC   PO4  926  20.295   1.602  20.062 -0.5349  0.1013 -0.0237
   78DPPC   GL1  927  20.129   1.282  19.827 -0.0975  0.1027 -0.1527
   78DPPC   GL2  928  20.358   1.202  19.732 -0.3601  0.4494  0.3571
   78DPPC   C1A  929  20.088   1.509  19.528 -0.5327  0.1834  0.2178
   78DPPC   C2A  930  20.239   1.574  19.159 -0.2627  0.1997  0.0758
   78DPPC   C3A  931  20.282   1.564  18.693  0.2256 -0.0157  0.2068
   78DPPC   C4A  932  20.272   1.495  18.216 -0.0320 -0.0909 -0.0512
   78DPPC   C1B  933  20.318   1.168  19.333  0.2251 -0.1743 -0.2957
   78DPPC   C2B  934  20.385   1.084  18.933 -0.0657 -0.2712 -0.1594
   78DPPC   C3B  935  20.388   1.040  18.455 -0.2294  0.1243 -0.2033
   78DPPC   C4B  936  20.437   1.041  17.949 -0.0966  0.0490 -0.1227
   79DPPC   NC3  937  16.587   5.676  20.055  0.0274  0.2008 -0.1445
   79DPPC   PO4  938  16.747   6.060  20.038 -0.1780  0.0911 -0.0684
   79DPPC   GL1  939  16.528   6.129  19.814 -0.4340  0.1115  0.2646
   79DPPC   GL2  940  16.300   5.883  19.780 -0.2010  0.2366 -0.1120
   79DPPC   C1A  941  16.547   6.263  19.481  0.2038  0.0649 -0.2235
   79DPPC   C2A  942  16.731   6.176  19.168  0.1076  0.1367  0.1349
   79DPPC   C3A  943  16.770   6.212  18.720  0.1424 -0.1046  0.0924
   79DPPC   C4A  944  16.764   6.255  18.193  0.3112  0.3054 -0.0566
   79DPPC   C1B  945  16.297   5.863  19.368  0.1603 -0.3066  0.1624
   79DPPC   C2B  946  16.371   5.879  18.954  0.0487  0.0879 -0.0242
   79DPPC   C3B  947  16.457   5.829  18.508 -0.4167  0.0120  0.2153
   79DPPC   C4B  948  16.415   5.942  17.985  0.3602  0.0486 -0.0953
   80DPPC   NC3  949  15.537   4.500  20.768  0.0116 -0.1350  0.1060
   80DPPC   PO4  950  15.767   4.718  20.476  0.0382 -0.1147  0.1959
   80DPPC   GL1  951  15.725   4.734  20.166  0.0123  0.1531 -0.0253
   80DPPC   GL2  952  15.640   4.961  20.057  0.1864  0.1289 -0.1413
   80DPPC   C1A  953  15.845   4.554  19.899 -0.1082 -0.0495 -0.2481
   80DPPC   C2A  954  15.924   4.636  19.498 -0.0272  0.0347  0.2875
   80DPPC   C3A  955  15.980   4.564  19.030 -0.2624  0.0591 -0.2821
   80DPPC   C4A  956  15.920   4.603  18.604 -0.1066  0.3016 -0.0126
   80DPPC   C1B  957  15.747   5.062  19.735  0.2724  0.0650 -0.2241
   80DPPC   C2B  958  15.781   5.116  19.347 -0.0632  0.0066 -0.0409
   80DPPC   C3B  959  15.801   5.104  18.864  0.1181  0.0698  0.0813
   80DPPC   C4B  960  15.817   5.088  18.353 -0.4231  0.0412  0.1773
   81DPPC   NC3  961  19.987   0.033  20.704  0.3350  0.1973  0.0527
   81DPPC   PO4  962  19.690   0.041  20.415  0.1584  0.1267 -0.0559
   81DPPC   GL1  963  19.838   0.001  20.032 -0.2582  0.2918  0.1317
   81DPPC   GL2  964  19.767  -0.314  19.995  0.0550 -0.1321 -0.0371
   81DPPC   C1A  965  19.707   0.152  19.738 -0.1453  0.1302 -0.0186
   81DPPC   C2A  966  19.772   0.372  19.411 -0.0154  0.1995 -0.1821
   81DPPC   C3A  967  19.710   0.375  18.931  0.3370  0.1837  0.2851
   81DPPC   C4A  968  19.686   0.335  18.449 -0.1273 -0.0491  0.0644
   81DPPC   C1B  969  19.660  -0.288  19.633  0.3668  0.1238 -0.1041
   81DPPC   C2B  970  19.569  -0.356  19.236 -0.0444  0.0826 -0.1451
   81DPPC   C3B  971  19.488  -0.435  18.769  0.0448  0.0545 -0.1322
   81DPPC   C4B  972  19.514  -0.487  18.322  0.1923  0.0149  0.1938
   82DPPC   NC3  973  20.201   2.967  20.377  0.0818  0.0093 -0.3239
   82DPPC   PO4  974  20.063   3.348  20.382  0.0562  0.1410  0.0969
   82DPPC   GL1  975  19.785   3.265  19.956 -0.0009  0.1371  0.1573
   82DPPC   GL2  976  19.947   3.453  19.771 -0.0548 -0.4244  0.2119
   82DPPC   C1A  977  19.450   3.322  19.843  0.0088 -0.1859  0.0219
   82DPPC   C2A  978  19.229   3.139  19.520  0.0762 -0.0431 -0.2696
   82DPPC   C3A  979  19.246   3.144  19.075  0.3442  0.1136  0.3011
   82DPPC   C4A  980  19.250   3.106  18.570  0.2526 -0.0699  0.1072
   82DPPC   C1B  981  20.028   3.457  19.418 -0.0459 -0.2531  0.2319
   82DPPC   C2B  982  20.078   3.329  19.026  0.0306 -0.0064 -0.0678
   82DPPC   C3B  983  20.029   3.312  18.582 -0.1445  0.0368 -0.2374
   82DPPC   C4B  984  19.992   3.359  18.094  0.1382  0.2770 -0.1660
   83DPPC   NC3  985  19.109   2.890  20.538 -0.0635 -0.0002  0.1839
   83DPPC   PO4  986  19.052   2.596  20.275  0.2513 -0.2302 -0.4135
   83DPPC   GL1  987  18.779   2.554  19.924  0.1832 -0.0085 -0.1151
   83DPPC   GL2  988  19.008   2.321  19.886 -0.2286  0.1026  0.3769
   83DPPC   C1A  989  18.840   2.670  19.580 -0.1933  0.0802 -0.1162
   83DPPC   C2A  990  18.921   2.752  19.215  0.0496 -0.0027 -0.2120
   83DPPC   C3A  991  18.970   2.720  18.775  0.2500  0.2897 -0.0113
   83DPPC   C4A  992  18.931   2.716  18.244 -0.2568 -0.0414 -0.0171
   83DPPC   C1B  993  19.132   2.284  19.515 -0.0495  0.1249 -0.1627
   83DPPC   C2B  994  19.130   2.338  19.139  0.0977  0.1575 -0.0377
   83DPPC   C3B  995  19.125   2.253  18.633 -0.1822  0.1058  0.0254
   83DPPC   C4B  996  19.092   2.236  18.103  0.1559 -0.0632 -0.0144
   84DPPC   NC3  997  15.068   1.660  20.464  0.0989 -0.2152 -0.0509
   84DPPC   PO4  998  15.070   1.977  20.718 -0.3276  0.1020 -0.4268
   84DPPC   GL1  999  15.218   2.263  20.428  0.0229  0.4088 -0.2861
   84DPPC   GL2 1000  15.316   1.976  20.306 -0.6018  0.1399 -0.2260
   84DPPC   C1A 1001  15.211   2.388  20.077  0.2789  0.0382  0.1994
   84DPPC   C2A 1002  15.273   2.544  19.726 -0.0212 -0.4028 -0.0064
   84DPPC   C3A 1003  15.314   2.539  19.282  0.2487  0.2213  0.1042
   84DPPC   C4A 1004  15.326   2.584  18.753 -0.0213 -0.0673 -0.1479
   84DPPC   C1B 1005  15.419   1.994  19.927  0.0885 -0.3549  0.1269
   84DPPC   C2B 1006  15.475   2.057  19.487 -0.0333  0.4272 -0.0646
   84DPPC   C3B 1007  15.465   2.052  19.023 -0.1059 -0.2558 -0.1758
   84DPPC   C4B 1008  15.507   2.122  18.496 -0.0881 -0.0084  0.0575
   85DPPC   NC3 1009  19.818   3.733  20.213  0.0610 -0.0665  0.1393
   85DPPC   PO4 1010  19.983   4.095  20.276  0.1243  0.0036 -0.2046
   85DPPC   GL1 1011  19.979   4.259  19.976  0.0861  0.0873  0.0228
   85DPPC   GL2 1012  20.186   4.421  19.869 -0.3283  0.0415  0.2053
   85DPPC   C1A 1013  19.913   4.021  19.675 -0.1649  0.0227 -0.0355
   85DPPC   C2A 1014  19.878   3.950  19.235  0.2904  0.0835 -0.1492
   85DPPC   C3A 1015  19.917   3.799  18.745 -0.0690  0.0376 -0.1533
   85DPPC   C4A 1016  19.950   3.844  18.298  0.3078  0.0977 -0.0574
   85DPPC   C1B 1017  20.199   4.380  19.500  0.2041 -0.1163 -0.1329
   85DPPC   C2B 1018  20.285   4.323  19.108 -0.0828  0.0361 -0.1383
   85DPPC   C3B 1019  20.264   4.230  18.610  0.0944  0.0501 -0.0215
   85DPPC   C4B 1020  20.340   4.108  18.143 -0.0752 -0.1538  0.0167
   86DPPC   NC3 1021  15.985   0.167  20.601  0.2114 -0.1104 -0.0075
   86DPPC   PO4 1022  16.024  -0.123  20.326  0.0551  0.0506  0.1961
   86DPPC   GL1 1023  16.005  -0.002  19.904 -0.1385 -0.2743 -0.0572
   86DPPC   GL2 1024  16.103  -0.271  19.865 -0.0740  0.1701  0.0511
   86DPPC   C1A 1025  15.970   0.179  19.594  0.2158 -0.4547 -0.3641
   86DPPC   C2A 1026  16.047   0.223  19.216 -0.0387 -0.1911 -0.3217
   86DPPC   C3A 1027  16.118   0.168  18.720  0.1606 -0.3203 -0.0980
   86DPPC   C4A 1028  16.068   0.184  18.255 -0.0209 -0.3471  0.0431
   86DPPC   C1B 1029  16.130  -0.241  19.487 -0.1978 -0.0794  0.2280
   86DPPC   C2B 1030  16.247  -0.302  19.115 -0.0850  0.0512  0.1551
   86DPPC   C3B 1031  16.263  -0.315  18.642 -0.0283  0.0014  0.1415
   86DPPC   C4B 1032  16.168  -0.280  18.165 -0.1096  0.0462 -0.0059
   87DPPC   NC3 1033  13.610   6.503  20.576 -0.0145 -0.2088 -0.0836
   87DPPC   PO4 1034  13.734   6.869  20.672  0.0014 -0.0027 -0.2616
   87DPPC   GL1 1035  13.726   7.024  20.306 -0.0734 -0.2086 -0.0987
   87DPPC   GL2 1036  13.863   7.279  20.297  0.2718 -0.1138  0.2369
   87DPPC   C1A 1037  13.866   6.985  19.985 -0.2218 -0.0391  0.1071
   87DPPC   C2A 1038  13.780   6.829  19.613  0.2966 -0.1295  0.1034
   87DPPC   C3A 1039  13.761   6.971  19.152 -0.1116 -0.0445  0.0708
   87DPPC   C4A 1040  13.778   6.849  18.659 -0.0516 -0.1526  0.4406
   87DPPC   C1B 1041  13.924   7.454  20.033 -0.2114  0.0636  0.0567
   87DPPC   C2B 1042  14.030   7.418  19.636  0.2950 -0.1871 -0.3435
   87DPPC   C3B 1043  14.128   7.360  19.194  0.0517  0.2992  0.0417
   87DPPC   C4B 1044  14.126   7.278  18.713 -0.3482  0.2904 -0.1375
   88DPPC   NC3 1045  18.880   1.494  20.309  0.0242 -0.0219  0.2485
   88DPPC   PO4 1046  18.508   1.356  20.258 -0.0118 -0.3197  0.1837
   88DPPC   GL1 1047  18.319   1.585  19.957 -0.2679 -0.3250  0.0219
   88DPPC   GL2 1048  18.070   1.577  20.033 -0.0941  0.0077  0.3392
   88DPPC   C1A 1049  18.374   1.507  19.573 -0.0008  0.0158 -0.1474
   88DPPC   C2A 1050  18.429   1.550  19.170 -0.1740  0.0140  0.1787
   88DPPC   C3A 1051  18.449   1.536  18.698 -0.0049 -0.1147 -0.0294
   88DPPC   C4A 1052  18.449   1.524  18.157  0.2537  0.0950 -0.2221
   88DPPC   C1B 1053  17.867   1.700  19.784 -0.2636  0.0283  0.2909
   88DPPC   C2B 1054  17.913   1.570  19.384 -0.1883 -0.1736  0.0680
   88DPPC   C3B 1055  17.962   1.546  18.934 -0.0146 -0.1519 -0.5385
   88DPPC   C4B 1056  17.993   1.563  18.479 -0.0462 -0.1762 -0.1788
   89DPPC   NC3 1057  15.726   6.046  20.423 -0.0279 -0.1215  0.0061
   89DPPC   PO4 1058  15.772   6.110  20.050  0.1225  0.4125  0.2337
   89DPPC   GL1 1059  15.844   5.891  19.631 -0.1129 -0.2290  0.1951
   89DPPC   GL2 1060  15.549   5.816  19.713 -0.1125  0.2109 -0.0334
   89DPPC   C1A 1061  15.818   5.876  19.239  0.0666 -0.1776 -0.2082
   89DPPC   C2A 1062  15.864   5.877  18.860  0.2273  0.2475  0.2051
   89DPPC   C3A 1063  15.873   5.935  18.378  0.1541  0.1292  0.1059
   89DPPC   C4A 1064  15.940   5.900  17.896  0.4451  0.5137  0.0351
   89DPPC   C1B 1065  15.457   5.653  19.396  0.4565  0.0197 -0.1016
   89DPPC   C2B 1066  15.527   5.501  19.022  0.1443 -0.0377  0.2806
   89DPPC   C3B 1067  15.568   5.531  18.586  0.3547  0.0501  0.2202
   89DPPC   C4B 1068  15.608   5.538  18.084  0.3190 -0.0611  0.2738
   90DPPC   NC3 1069  21.425   5.570  19.898  0.2970  0.0535  0.0054
   90DPPC   PO4 1070  21.063   5.665  20.043  0.0349  0.2088 -0.2599
   90DPPC   GL1 1071  20.750   5.481  19.773  0.2947  0.3060 -0.1532
   90DPPC   GL2 1072  20.971   5.344  19.671 -0.1226  0.2868 -0.3385
   90DPPC   C1A 1073  20.513   5.681  19.536 -0.0246 -0.1512  0.2683
   90DPPC   C2A 1074  20.565   5.925  19.233  0.0163  0.3036 -0.0064
   90DPPC   C3A 1075  20.530   5.915  18.730 -0.2035 -0.1105 -0.1620
   90DPPC   C4A 1076  20.469   5.930  18.270 -0.0603 -0.0288 -0.4419
   90DPPC   C1B 1077  20.856   5.428  19.355  0.0328 -0.0579  0.1055
   90DPPC   C2B 1078  20.726   5.536  18.955  0.3013 -0.0325  0.0354
   90DPPC   C3B 1079  20.732   5.557  18.470  0.0457  0.0337 -0.1693
   90DPPC   C4B 1080  20.702   5.580  17.986 -0.1429  0.2018 -0.0448
   91DPPC   NC3 1081  16.510   0.581  20.440 -0.0606 -0.0820 -0.1922
   91DPPC   PO4 1082  16.338   0.318  20.192 -0.0835 -0.2697 -0.2393
   91DPPC   GL1 1083  16.467   0.311  19.830 -0.0690  0.0602 -0.3416
   91DPPC   GL2 1084  16.420   0.005  19.742 -0.0624  0.4462  0.0644
   91DPPC   C1A 1085  16.739   0.410  19.640 -0.4938 -0.0531  0.0303
   91DPPC   C2A 1086  16.922   0.418  19.205  0.2179  0.1344  0.0482
   91DPPC   C3A 1087  16.959   0.477  18.743  0.1015  0.0061 -0.2809
   91DPPC   C4A 1088  16.970   0.400  18.255  0.0264 -0.0071 -0.1084
   91DPPC   C1B 1089  16.465   0.075  19.403  0.0653  0.3782 -0.2835
   91DPPC   C2B 1090  16.554   0.079  18.991  0.0514  0.2202 -0.0315
   91DPPC   C3B 1091  16.535   0.062  18.464 -0.1163 -0.0981 -0.0132
   91DPPC   C4B 1092  16.577   0.022  17.942  0.1452 -0.0113 -0.1596
   92DPPC   NC3 1093  20.167   4.572  20.355  0.1254  0.1598  0.2397
   92DPPC   PO4 1094  19.994   4.941  20.454 -0.1314  0.0382 -0.0077
   92DPPC   GL1 1095  19.872   4.830  20.075  0.0839  0.0490 -0.0243
   92DPPC   GL2 1096  19.988   5.097  19.983  0.0035 -0.4391 -0.1753
   92DPPC   C1A 1097  19.747   4.611  19.815 -0.0272  0.2866 -0.1366
   92DPPC   C2A 1098  19.752   4.520  19.394 -0.3722 -0.2531  0.0171
   92DPPC   C3A 1099  19.789   4.376  18.940  0.2941 -0.1053  0.0566
   92DPPC   C4A 1100  19.727   4.286  18.461 -0.2061 -0.0723 -0.1063
   92DPPC   C1B 1101  19.968   5.225  19.614 -0.0351 -0.1495 -0.0924
   92DPPC   C2B 1102  19.834   5.244  19.232  0.1463  0.0460  0.2438
   92DPPC   C3B 1103  19.902   5.238  18.770  0.0464  0.3129  0.2552
   92DPPC   C4B 1104  19.932   5.175  18.295 -0.0951  0.0963 -0.1545
   93DPPC   NC3 1105  16.090   1.834  20.831 -0.0037  0.2449  0.1977
   93DPPC   PO4 1106  16.181   1.733  20.460  0.0465  0.3418  0.2934
   93DPPC   GL1 1107  16.110   1.665  20.072  0.1600 -0.3427  0.1455
   93DPPC   GL2 1108  16.446   1.639  19.980 -0.0922  0.0311  0.2581
   93DPPC   C1A 1109  16.072   1.458  19.792 -0.2569 -0.1108 -0.3273
   93DPPC   C2A 1110  16.042   1.444  19.371  0.0620  0.2478  0.2027
   93DPPC   C3A 1111  16.115   1.432  18.942 -0.2048  0.4521  0.0918
   93DPPC   C4A 1112  16.038   1.512  18.449 -0.0778 -0.0689  0.0550
   93DPPC   C1B 1113  16.390   1.730  19.618  0.0923  0.0430  0.0405
   93DPPC   C2B 1114  16.373   1.833  19.203  0.1384 -0.0499  0.0579
   93DPPC   C3B 1115  16.402   1.895  18.714  0.1768  0.0861  0.2597
   93DPPC   C4B 1116  16.503   1.797  18.225 -0.1159 -0.2476  0.1515
   94DPPC   NC3 1117  15.091   1.109  20.190  0.0869 -0.2847 -0.0352
   94DPPC   PO4 1118  15.462   1.040  20.292  0.2595 -0.0075  0.3299
   94DPPC   GL1 1119  15.787   0.877  20.072  0.0083 -0.1177 -0.2183
   94DPPC   GL2 1120  15.726   1.124  20.042 -0.0563  0.0983 -0.1428
   94DPPC   C1A 1121  15.776   0.672  19.762  0.0408  0.1629 -0.0647
   94DPPC   C2A 1122  15.851   0.685  19.408 -0.0972 -0.0676 -0.2952
   94DPPC   C3A 1123  15.872   0.633  18.940  0.0121 -0.0250  0.2859
   94DPPC   C4A 1124  15.904   0.633  18.478 -0.1435  0.1359 -0.0312
   94DPPC   C1B 1125  15.739   1.174  19.674  0.4180 -0.0508  0.1001
   94DPPC   C2B 1126  15.634   1.120  19.265  0.0986  0.0647  0.0663
   94DPPC   C3B 1127  15.678   1.113  18.812  0.2139 -0.1483  0.1878
   94DPPC   C4B 1128  15.795   1.108  18.344  0.0235 -0.1820 -0.2489
   95DPPC   NC3 1129  16.101   4.948  20.004 -0.0204 -0.0671 -0.0992
   95DPPC   PO4 1130  16.344   5.183  20.203  0.1656 -0.0768 -0.1927
   95DPPC   GL1 1131  16.538   5.003  19.908  0.2756  0.0818  0.2976
   95DPPC   GL2 1132  16.571   4.748  20.048  0.1070  0.3120  0.0883
   95DPPC   C1A 1133  16.716   4.979  19.590 -0.0295  0.0413  0.2126
   95DPPC   C2A 1134  16.781   4.867  19.174  0.2352 -0.0824 -0.2269
   95DPPC   C3A 1135  16.797   4.873  18.683 -0.2713 -0.0936  0.1512
   95DPPC   C4A 1136  16.897   4.895  18.171 -0.0321 -0.3949 -0.1776
   95DPPC   C1B 1137  16.725   4.570  19.802 -0.1287  0.0068 -0.1786
   95DPPC   C2B 1138  16.974   4.405  19.530  0.0478  0.1122 -0.0735
   95DPPC   C3B 1139  17.005   4.409  19.004 -0.1984 -0.2515 -0.0294
   95DPPC   C4B 1140  17.019   4.449  18.497  0.1571 -0.0155 -0.0248
   96DPPC   NC3 1141  15.130   0.873  20.669  0.4002 -0.1173 -0.1843
   96DPPC   PO4 1142  14.862   1.228  20.663  0.0373  0.0946 -0.3212
   96DPPC   GL1 1143  14.658   1.386  20.331  0.0103  0.1326 -0.1954
   96DPPC   GL2 1144  14.783   1.453  20.182  0.3851 -0.0984  0.0745
   96DPPC   C1A 1145  14.387   1.385  20.088  0.0833 -0.3714 -0.2681
   96DPPC   C2A 1146  14.337   1.379  19.708  0.1187  0.1466  0.0215
   96DPPC   C3A 1147  14.101   1.305  19.286  0.0971  0.2918 -0.1287
   96DPPC   C4A 1148  13.927   1.098  18.901 -0.1327 -0.0495 -0.0975
   96DPPC   C1B 1149  14.732   1.224  19.869 -0.0249 -0.4155  0.2037
   96DPPC   C2B 1150  14.864   1.315  19.465 -0.1254 -0.0002  0.3286
   96DPPC   C3B 1151  15.080   1.264  19.029 -0.2144 -0.1161 -0.1038
   96DPPC   C4B 1152  15.203   1.180  18.578 -0.2087 -0.1569  0.0558
   97DPPC   NC3 1153  18.457   2.405  20.305  0.3457  0.0553 -0.3032
   97DPPC   PO4 1154  18.045   2.411  20.370 -0.1363 -0.0542  0.0382
   97DPPC   GL1 1155  17.879   2.572  20.057 -0.2040 -0.3386  0.2121
   97DPPC   GL2 1156  17.686   2.254  19.960  0.0088  0.1437  0.1637
   97DPPC   C1A 1157  18.135   2.705  19.847  0.1839  0.0580  0.1777
   97DPPC   C2A 1158  18.370   2.782  19.541 -0.2338 -0.0929 -0.1477
   97DPPC   C3A 1159  18.468   2.814  19.103  0.0801 -0.1151 -0.1857
   97DPPC   C4A 1160  18.408   2.783  18.582 -0.3390 -0.1863 -0.1808
   97DPPC   C1B 1161  17.764   2.075  19.634 -0.1378 -0.0074 -0.2455
   97DPPC   C2B 1162  17.769   2.026  19.224  0.0662 -0.1732 -0.2357
   97DPPC   C3B 1163  17.786   2.015  18.738 -0.0895  0.2272  0.3225
   97DPPC   C4B 1164  17.786   2.109  18.284 -0.1512  0.0143  0.1141
   98DPPC   NC3 1165  19.478   2.512  20.495  0.0089  0.2603 -0.0586
   98DPPC   PO4 1166  19.615   2.476  20.149 -0.0196 -0.0139 -0.3792
   98DPPC   GL1 1167  19.521   2.359  19.664  0.2326 -0.1505 -0.0688
   98DPPC   GL2 1168  19.712   2.549  19.759  0.1592  0.2078  0.0173
   98DPPC   C1A 1169  19.543   2.340  19.268  0.2484 -0.0835 -0.0665
   98DPPC   C2A 1170  19.589   2.196  18.848  0.0407 -0.0671  0.1582
   98DPPC   C3A 1171  19.615   2.165  18.380  0.0663  0.1979  0.2881
   98DPPC   C4A 1172  19.569   2.121  17.887  0.1875 -0.4243 -0.1455
   98DPPC   C1B 1173  19.895   2.642  19.472  0.0932 -0.0864 -0.2460
   98DPPC   C2B 1174  19.928   2.634  19.135  0.0831 -0.3159 -0.0770
   98DPPC   C3B 1175  19.937   2.507  18.644 -0.0556  0.1699 -0.0515
   98DPPC   C4B 1176  19.975   2.493  18.166  0.0615  0.3208 -0.1653
   99DPPC   NC3 1177  17.069   3.104  20.648 -0.0674  0.2521 -0.1177
   99DPPC   PO4 1178  16.848   3.424  20.612 -0.1280 -0.0211  0.2211
   99DPPC   GL1 1179  16.731   3.319  20.280 -0.3360  0.0169 -0.0436
   99DPPC   GL2 1180  16.839   3.048  20.166 -0.3099 -0.0774 -0.0857
   99DPPC   C1A 1181  16.776   3.532  19.912  0.0687 -0.2129  0.0443
   99DPPC   C2A 1182  16.852   3.602  19.480 -0.5915  0.2022 -0.0860
   99DPPC   C3A 1183  16.810   3.640  18.970  0.0669 -0.1735  0.1745
   99DPPC   C4A 1184  16.854   3.674  18.470 -0.1264 -0.1819  0.3929
   99DPPC   C1B 1185  16.874   3.067  19.805  0.0649 -0.1202  0.3365
   99DPPC   C2B 1186  16.953   3.114  19.348  0.0203  0.0921  0.0627
   99DPPC   C3B 1187  17.009   3.129  18.881 -0.1413  0.0973 -0.1125
   99DPPC   C4B 1188  16.988   3.162  18.425 -0.1515  0.4187 -0.1889
  100DPPC   NC3 1189  17.213   6.170  20.049 -0.1139  0.1727  0.2086
  100DPPC   PO4 1190  17.603   6.349  20.101  0.3020  0.1286  0.1671
  100DPPC   GL1 1191  17.762   6.249  19.778 -0.1024 -0.1946 -0.1203
  100DPPC   GL2 1192  17.615   6.007  19.710  0.4533  0.0942 -0.3372
  100DPPC   C1A 1193  17.891   6.310  19.412 -0.2680  0.2460 -0.3026
  100DPPC   C2A 1194  18.027   6.405  19.037  0.2886  0.0132 -0.0994
  100DPPC   C3A 1195  18.052   6.427  18.586  0.0151 -0.0147 -0.1322
  100DPPC   C4A 1196  18.104   6.388  18.127 -0.3855 -0.0491 -0.3380
  100DPPC   C1B 1197  17.703   5.925  19.336  0.0258  0.1665  0.0147
  100DPPC   C2B 1198  17.684   6.019  18.914 -0.3022  0.2921  0.1299
  100DPPC   C3B 1199  17.736   6.051  18.438  0.0575  0.2822  0.2092
  100DPPC   C4B 1200  17.819   5.999  17.965  0.4717  0.0313 -0.0691
  101DPPC   NC3 1201  18.222   1.505  15.552  0.0416  0.3782  0.1015
  101DPPC   PO4 1202  18.604   1.439  15.494  0.2292  0.0520 -0.0348
  101DPPC   GL1 1203  18.800   1.534  15.826  0.0291  0.1953 -0.3539
  101DPPC   GL2 1204  18.759   1.244  15.910  0.2221  0.3063 -0.1755
  101DPPC   C1A 1205  18.828   1.628  16.149  0.1215 -0.1713  0.0238
  101DPPC   C2A 1206  18.923   1.486  16.514 -0.3200 -0.1518 -0.1120
  101DPPC   C3A 1207  18.966   1.412  16.950  0.1635  0.0965  0.0277
  101DPPC   C4A 1208  18.923   1.395  17.462  0.2944  0.4430  0.0675
  101DPPC   C1B 1209  18.760   1.088  16.292 -0.0565  0.1309  0.2978
  101DPPC   C2B 1210  18.654   1.074  16.684 -0.0700  0.0182  0.0575
  101DPPC   C3B 1211  18.552   1.009  17.137  0.0628 -0.2192 -0.3651
  101DPPC   C4B 1212  18.543   1.025  17.615  0.0636 -0.0495  0.0331
  102DPPC   NC3 1213  13.654   5.465  16.115  0.1017  0.1217 -0.0058
  102DPPC   PO4 1214  13.744   5.249  15.815  0.3507  0.2928  0.2249
  102DPPC   GL1 1215  13.837   4.895  16.168  0.0537  0.0032  0.0691
  102DPPC   GL2 1216  13.625   5.019  16.280 -0.0781  0.1236 -0.2682
  102DPPC   C1A 1217  14.099   4.884  16.446 -0.0681  0.0348  0.0802
  102DPPC   C2A 1218  14.077   4.519  16.699  0.0226 -0.0552 -0.0883
  102DPPC   C3A 1219  14.093   4.481  17.172 -0.0574  0.2146 -0.2248
  102DPPC   C4A 1220  14.014   4.540  17.670  0.1046  0.3793  0.0683
  102DPPC   C1B 1221  13.541   5.158  16.626  0.0057 -0.0485 -0.2145
  102DPPC   C2B 1222  13.492   5.160  17.040 -0.1989 -0.0135 -0.0140
  102DPPC   C3B 1223  13.524   5.182  17.517  0.2267 -0.0586 -0.1052
  102DPPC   C4B 1224  13.459   5.180  18.017  0.0892 -0.1279 -0.0931
  103DPPC   NC3 1225  16.229   0.263  15.679 -0.1545 -0.0805  0.0080
  103DPPC   PO4 1226  16.483  -0.001  15.755 -0.1855 -0.0616  0.1723
  103DPPC   GL1 1227  16.408  -0.230  16.027  0.4462 -0.2937 -0.1368
  103DPPC   GL2 1228  16.569  -0.455  15.970  0.0633  0.0297 -0.5877
  103DPPC   C1A 1229  16.390  -0.215  16.366 -0.0590 -0.2865  0.1210
  103DPPC   C2A 1230  16.270  -0.208  16.764  0.0927 -0.1112  0.2908
  103DPPC   C3A 1231  16.279  -0.277  17.191 -0.0834  0.0159 -0.1189
  103DPPC   C4A 1232  16.201  -0.346  17.666 -0.1157  0.1818 -0.1142
  103DPPC   C1B 1233  16.767  -0.508  16.302  0.1040  0.3159 -0.1024
  103DPPC   C2B 1234  16.801  -0.411  16.729  0.1084  0.1058 -0.1184
  103DPPC   C3B 1235  16.826  -0.352  17.222 -0.0827  0.0987  0.1269
  103DPPC   C4B 1236  16.767  -0.385  17.681 -0.0366 -0.1610  0.1028
  104DPPC   NC3 1237  15.204   4.530  16.010 -0.1055 -0.3231 -0.2349
  104DPPC   PO4 1238  15.445   4.238  16.113  0.1966 -0.1728  0.1148
  104DPPC   GL1 1239  15.569   3.969  16.427 -0.0350 -0.2878  0.1674
  104DPPC   GL2 1240  15.634   4.254  16.564 -0.1955 -0.1226  0.1081
  104DPPC   C1A 1241  15.726   3.826  16.691 -0.0942  0.1955  0.0061
  104DPPC   C2A 1242  15.803   3.797  17.094 -0.2593 -0.0991 -0.1227
  104DPPC   C3A 1243  15.897   3.749  17.556 -0.3640  0.2881 -0.1431
  104DPPC   C4A 1244  15.823   3.730  18.006 -0.1820 -0.0536 -0.1355
  104DPPC   C1B 1245  15.561   4.249  16.911 -0.1107  0.3596 -0.1421
  104DPPC   C2B 1246  15.609   4.249  17.314  0.2413  0.0090 -0.3774
  104DPPC   C3B 1247  15.650   4.260  17.842 -0.0540 -0.0998  0.0576
  104DPPC   C4B 1248  15.725   4.240  18.338  0.2425  0.0919  0.1755
  105DPPC   NC3 1249  13.332   3.350  16.039  0.2467  0.0717 -0.1075
  105DPPC   PO4 1250  13.695   3.377  15.990  0.2563  0.0900  0.0507
  105DPPC   GL1 1251  13.889   3.365  16.304  0.1199  0.0889 -0.2158
  105DPPC   GL2 1252  13.629   3.302  16.486 -0.5164  0.0914  0.1059
  105DPPC   C1A 1253  13.958   3.593  16.635 -0.3224  0.2916  0.3965
  105DPPC   C2A 1254  13.953   3.637  17.049  0.2163 -0.3154 -0.0001
  105DPPC   C3A 1255  13.952   3.660  17.542  0.2253  0.0524  0.0648
  105DPPC   C4A 1256  13.970   3.716  18.084  0.0857 -0.1768  0.4027
  105DPPC   C1B 1257  13.663   3.325  16.883  0.3777 -0.0486 -0.3642
  105DPPC   C2B 1258  13.634   3.326  17.337  0.1581  0.0814 -0.0060
  105DPPC   C3B 1259  13.583   3.293  17.803 -0.3305  0.0634 -0.1408
  105DPPC   C4B 1260  13.737   3.236  18.278 -0.1667  0.0016  0.3122
  106DPPC   NC3 1261  17.824   6.490  15.545 -0.1327 -0.1051 -0.2292
  106DPPC   PO4 1262  18.112   6.193  15.567  0.2030  0.0902  0.1834
  106DPPC   GL1 1263  18.119   6.079  16.010 -0.0540  0.2135  0.0833
  106DPPC   GL2 1264  18.337   5.900  16.048 -0.1502 -0.0821  0.0511
  106DPPC   C1A 1265  18.189   6.299  16.280  0.0292 -0.0203  0.1411
  106DPPC   C2A 1266  18.118   6.457  16.690  0.2600  0.0615  0.1602
  106DPPC   C3A 1267  18.075   6.441  17.116 -0.0679  0.0403  0.1514
  106DPPC   C4A 1268  18.102   6.400  17.604  0.1281 -0.0134  0.0096
  106DPPC   C1B 1269  18.348   5.923  16.408 -0.4185 -0.0014 -0.3474
  106DPPC   C2B 1270  18.209   5.925  16.819 -0.2358 -0.0632  0.1014
  106DPPC   C3B 1271  18.267   5.931  17.306 -0.0599  0.0574 -0.3930
  106DPPC   C4B 1272  18.394   5.529  17.573 -0.2467 -0.2596 -0.0748
  107DPPC   NC3 1273  18.628   0.992  15.502 -0.0095  0.0418 -0.0189
  107DPPC   PO4 1274  18.254   1.019  15.627 -0.1521  0.0974  0.3553
  107DPPC   GL1 1275  18.190   1.208  16.011  0.0995  0.1745 -0.2792
  107DPPC   GL2 1276  18.313   1.436  15.991  0.3203 -0.0882 -0.0002
  107DPPC   C1A 1277  18.066   1.166  16.335 -0.2291  0.0377  0.3074
  107DPPC   C2A 1278  18.091   1.125  16.755 -0.1735 -0.0488 -0.4113
  107DPPC   C3A 1279  18.098   1.166  17.270  0.1908 -0.3226  0.1667
  107DPPC   C4A 1280  18.053   1.113  17.771  0.0322  0.2859  0.0815
  107DPPC   C1B 1281  18.478   1.459  16.292  0.0918 -0.2413  0.0642
  107DPPC   C2B 1282  18.414   1.486  16.686  0.0024 -0.0640 -0.2385
  107DPPC   C3B 1283  18.410   1.517  17.175  0.3023 -0.5548  0.3283
  107DPPC   C4B 1284  18.378   1.507  17.678 -0.2308 -0.1803  0.0280
  108DPPC   NC3 1285  18.267   2.602  15.465  0.2307 -0.0318  0.3019
  108DPPC   PO4 1286  17.996   2.364  15.661  0.0437  0.2636  0.2672
  108DPPC   GL1 1287  17.833   2.427  16.031 -0.2505  0.0986  0.3118
  108DPPC   GL2 1288  17.665   2.521  16.048 -0.0541  0.3092 -0.1326
  108DPPC   C1A 1289  17.998   2.350  16.359 -0.0597  0.1386  0.0105
  108DPPC   C2A 1290  18.124   2.411  16.713  0.1881  0.0934 -0.1500
  108DPPC   C3A 1291  18.133   2.386  17.187  0.0791 -0.0823  0.1907
  108DPPC   C4A 1292  18.230   2.452  17.655  0.5017 -0.2583  0.3014
  108DPPC   C1B 1293  17.638   2.535  16.437  0.2611 -0.2533  0.2405
  108DPPC   C2B 1294  17.660   2.587  16.867 -0.0553 -0.1012  0.1183
  108DPPC   C3B 1295  17.620   2.565  17.341 -0.3480  0.0146  0.0386
  108DPPC   C4B 1296  17.695   2.554  17.770  0.0726 -0.2181 -0.2157
  109DPPC   NC3 1297  17.441   0.048  15.038 -0.2166  0.0405 -0.2882
  109DPPC   PO4 1298  17.321  -0.191  15.348  0.2320 -0.3192  0.3165
  109DPPC   GL1 1299  17.421  -0.142  15.792  0.0237  0.0921 -0.3936
  109DPPC   GL2 1300  17.513  -0.405  15.830  0.2033 -0.0005  0.4055
  109DPPC   C1A 1301  17.353  -0.043  16.177  0.1444 -0.0575 -0.1853
  109DPPC   C2A 1302  17.222  -0.020  16.549 -0.0571  0.3116 -0.1244
  109DPPC   C3A 1303  17.096   0.039  16.943  0.0593  0.3528 -0.3530
  109DPPC   C4A 1304  17.062  -0.002  17.429  0.0410  0.0680 -0.1176
  109DPPC   C1B 1305  17.678  -0.390  16.145 -0.3920  0.0539 -0.0661
  109DPPC   C2B 1306  17.848  -0.520  16.476 -0.1239 -0.3099  0.0499
  109DPPC   C3B 1307  17.746  -0.504  17.018 -0.2612  0.1451 -0.1828
  109DPPC   C4B 1308  17.819  -0.631  17.467  0.2878 -0.4373 -0.0386
  110DPPC   NC3 1309  15.889   3.412  15.947  0.2074  0.0713 -0.4239
  110DPPC   PO4 1310  16.296   3.302  15.983 -0.0186 -0.1716 -0.0225
  110DPPC   GL1 1311  16.537   3.219  16.331 -0.1888 -0.0132  0.1407
  110DPPC   GL2 1312  16.772   3.408  16.294  0.0718  0.1873  0.1037
  110DPPC   C1A 1313  16.469   3.229  16.691  0.0281 -0.0279  0.2431
  110DPPC   C2A 1314  16.510   3.245  17.139 -0.3005 -0.0027 -0.0212
  110DPPC   C3A 1315  16.510   3.188  17.631 -0.1255 -0.3041  0.1554
  110DPPC   C4A 1316  16.561   3.201  18.109 -0.0499  0.0672  0.0588
  110DPPC   C1B 1317  16.871   3.582  16.617 -0.6154 -0.1951  0.1378
  110DPPC   C2B 1318  16.866   3.650  16.987  0.0287 -0.0306 -0.0960
  110DPPC   C3B 1319  16.845   3.602  17.480  0.0016  0.1102  0.2789
  110DPPC   C4B 1320  16.886   3.550  17.944  0.0953  0.1095  0.0771
  111DPPC   NC3 1321  14.844   3.669  15.668  0.0186  0.2821  0.0967
  111DPPC   PO4 1322  14.652   3.307  15.738  0.0712  0.1129 -0.2065
  111DPPC   GL1 1323  14.659   3.121  16.144  0.2793  0.2126 -0.0661
  111DPPC   GL2 1324  14.392   3.228  16.167  0.3106 -0.0755  0.5002
  111DPPC   C1A 1325  14.759   3.099  16.528 -0.0944  0.6308  0.0589
  111DPPC   C2A 1326  14.725   3.088  16.950 -0.0683  0.2148 -0.1617
  111DPPC   C3A 1327  14.658   3.100  17.442  0.0459 -0.1580  0.0574
  111DPPC   C4A 1328  14.693   3.097  17.932  0.0535 -0.4568 -0.0452
  111DPPC   C1B 1329  14.264   3.255  16.472 -0.0456  0.2157 -0.0782
  111DPPC   C2B 1330  14.135   3.197  16.852 -0.1394 -0.2179  0.1636
  111DPPC   C3B 1331  14.138   3.218  17.352 -0.0808 -0.0035  0.1575
  111DPPC   C4B 1332  14.084   3.254  17.847  0.1433 -0.1342  0.0328
  112DPPC   NC3 1333  15.476   5.126  15.662  0.0588 -0.3314  0.0472
  112DPPC   PO4 1334  15.215   4.971  15.886  0.3056  0.0505  0.2269
  112DPPC   GL1 1335  15.036   5.056  16.269  0.0865 -0.1409 -0.1350
  112DPPC   GL2 1336  14.947   4.827  16.364  0.0867  0.7820 -0.3677
  112DPPC   C1A 1337  14.917   5.268  16.556 -0.0984 -0.0850 -0.0093
  112DPPC   C2A 1338  14.817   5.320  16.943  0.2511 -0.0730 -0.1917
  112DPPC   C3A 1339  14.881   5.303  17.409  0.1849  0.0099  0.1853
  112DPPC   C4A 1340  14.852   5.322  17.901  0.2715 -0.2296 -0.1288
  112DPPC   C1B 1341  14.955   4.855  16.713 -0.2163 -0.1123  0.3022
  112DPPC   C2B 1342  15.009   4.861  17.132  0.1430 -0.1983 -0.0578
  112DPPC   C3B 1343  14.951   4.848  17.614  0.2559 -0.3170 -0.0272
  112DPPC   C4B 1344  15.030   4.798  18.146 -0.1282  0.3090  0.0326
  113DPPC   NC3 1345  17.438   2.205  15.778  0.1384 -0.0005  0.0105
  113DPPC   PO4 1346  17.313   1.859  15.965 -0.2357 -0.0037 -0.0414
  113DPPC   GL1 1347  17.134   1.711  16.348  0.0401 -0.1517  0.1097
  113DPPC   GL2 1348  17.422   1.574  16.432  0.1279  0.0407  0.1070
  113DPPC   C1A 1349  16.973   1.852  16.640 -0.2275  0.2940 -0.0823
  113DPPC   C2A 1350  17.011   1.765  17.055 -0.0445  0.0253 -0.3651
  113DPPC   C3A 1351  16.995   1.755  17.550  0.1113 -0.1959  0.1714
  113DPPC   C4A 1352  16.982   1.752  18.054  0.0302  0.0171 -0.0401
  113DPPC   C1B 1353  17.473   1.692  16.811  0.0478 -0.0193 -0.0606
  113DPPC   C2B 1354  17.485   1.673  17.223 -0.0643  0.2073  0.1323
  113DPPC   C3B 1355  17.472   1.690  17.685 -0.0830 -0.1536  0.3661
  113DPPC   C4B 1356  17.832   1.576  17.986  0.1054 -0.3254 -0.2066
  114DPPC   NC3 1357  16.711   5.802  15.705  0.1624  0.0698 -0.1322
  114DPPC   PO4 1358  16.649   5.404  15.738 -0.0167 -0.2993  0.0529
  114DPPC   GL1 1359  16.646   5.326  16.059 -0.4142 -0.1563  0.4573
  114DPPC   GL2 1360  16.360   5.363  16.132  0.0751 -0.3560  0.1963
  114DPPC   C1A 1361  16.811   5.187  16.355  0.1221 -0.0442 -0.2843
  114DPPC   C2A 1362  16.768   4.964  16.695 -0.1509  0.1735 -0.1954
  114DPPC   C3A 1363  16.793   4.841  17.150  0.0825 -0.3625 -0.1500
  114DPPC   C4A 1364  16.829   4.843  17.646 -0.0448 -0.2933 -0.1753
  114DPPC   C1B 1365  16.459   5.381  16.507  0.3064 -0.0242 -0.1362
  114DPPC   C2B 1366  16.607   5.404  16.913 -0.2704  0.0156 -0.0211
  114DPPC   C3B 1367  16.703   5.280  17.359  0.1595  0.1584  0.0414
  114DPPC   C4B 1368  16.707   5.278  17.870  0.1177 -0.1621 -0.0811
  115DPPC   NC3 1369  17.673   4.516  15.036 -0.0758 -0.1577 -0.3181
  115DPPC   PO4 1370  17.744   4.662  15.413  0.1006 -0.0412  0.0584
  115DPPC   GL1 1371  17.804   4.531  15.797 -0.4813  0.4317  0.1151
  115DPPC   GL2 1372  17.604   4.536  15.902 -0.0772  0.0047  0.0581
  115DPPC   C1A 1373  18.060   4.648  16.051  0.3165 -0.3771  0.1282
  115DPPC   C2A 1374  18.304   4.746  16.348 -0.0566  0.0852 -0.1534
  115DPPC   C3A 1375  18.283   4.648  16.813 -0.0361  0.1301 -0.1001
  115DPPC   C4A 1376  18.255   4.638  17.304  0.0682 -0.1075  0.2841
  115DPPC   C1B 1377  17.539   4.384  16.261 -0.1267 -0.0689 -0.0043
  115DPPC   C2B 1378  17.542   4.376  16.676 -0.0495 -0.0214 -0.1720
  115DPPC   C3B 1379  17.511   4.426  17.184  0.2256  0.1240  0.1375
  115DPPC   C4B 1380  17.441   4.369  17.659 -0.0204  0.3378  0.0187
  116DPPC   NC3 1381  16.449   2.507  15.254  0.1302  0.0282 -0.2476
  116DPPC   PO4 1382  16.485   2.485  15.660 -0.2184 -0.0460  0.0485
  116DPPC   GL1 1383  16.606   2.343  16.137  0.0137  0.1513 -0.1716
  116DPPC   GL2 1384  16.863   2.484  16.077  0.2518 -0.0503  0.0687
  116DPPC   C1A 1385  16.530   2.115  16.435  0.3089 -0.1701 -0.1455
  116DPPC   C2A 1386  16.481   1.920  16.764  0.3605 -0.0524  0.0567
  116DPPC   C3A 1387  16.560   1.829  17.215  0.0792 -0.0766  0.0874
  116DPPC   C4A 1388  16.531   1.845  17.709 -0.0821 -0.0850  0.0607
  116DPPC   C1B 1389  16.829   2.507  16.461 -0.2020  0.0049 -0.0589
  116DPPC   C2B 1390  16.890   2.339  16.785 -0.0060 -0.3474  0.2779
  116DPPC   C3B 1391  16.897   2.285  17.288  0.0413 -0.0201 -0.0149
  116DPPC   C4B 1392  16.902   2.268  17.776 -0.1357  0.1756  0.1152
  117DPPC   NC3 1393  18.869   4.899  14.880  0.2636 -0.0013  0.3678
  117DPPC   PO4 1394  19.089   4.913  15.192 -0.0494  0.1891 -0.0289
  117DPPC   GL1 1395  19.051   4.829  15.618  0.2932  0.0722 -0.0558
  117DPPC   GL2 1396  18.912   5.040  15.605 -0.2185 -0.0315 -0.0696
  117DPPC   C1A 1397  19.075   4.819  16.004 -0.0061  0.1774  0.2027
  117DPPC   C2A 1398  19.145   4.876  16.412 -0.1163 -0.2547  0.1031
  117DPPC   C3A 1399  19.142   4.945  16.908 -0.3062  0.1263  0.4012
  117DPPC   C4A 1400  19.021   4.942  17.335 -0.2493  0.3399  0.3738
  117DPPC   C1B 1401  18.880   5.276  15.883  0.1499 -0.3859 -0.2307
  117DPPC   C2B 1402  18.579   5.385  16.178 -0.2493  0.2175 -0.0193
  117DPPC   C3B 1403  18.462   5.509  16.575  0.0132  0.0049 -0.3441
  117DPPC   C4B 1404  18.426   5.524  17.028  0.1714  0.2979 -0.0948
  118DPPC   NC3 1405  14.141   4.560  16.098 -0.2828  0.1084 -0.1737
  118DPPC   PO4 1406  14.219   4.181  16.172  0.0188 -0.0204 -0.0199
  118DPPC   GL1 1407  14.284   4.118  16.538 -0.3737  0.4252  0.2234
  118DPPC   GL2 1408  14.604   4.048  16.496  0.2360  0.3440 -0.0882
  118DPPC   C1A 1409  14.329   4.016  16.884  0.4991  0.1360 -0.0020
  118DPPC   C2A 1410  14.279   3.955  17.250  0.0817 -0.0163  0.0973
  118DPPC   C3A 1411  14.306   4.109  17.750 -0.0071 -0.0640 -0.0445
  118DPPC   C4A 1412  14.307   4.065  18.324 -0.0680  0.1902  0.2517
  118DPPC   C1B 1413  14.824   4.004  16.766  0.3413  0.1621  0.2044
  118DPPC   C2B 1414  14.759   4.000  17.192 -0.1138 -0.1143  0.0435
  118DPPC   C3B 1415  14.789   4.074  17.655  0.0537  0.0372  0.2855
  118DPPC   C4B 1416  14.808   4.073  18.163  0.3088  0.3252  0.0303
  119DPPC   NC3 1417  15.643   1.457  15.437  0.2424 -0.0432  0.1441
  119DPPC   PO4 1418  15.751   1.251  15.770  0.4074 -0.5468 -0.0561
  119DPPC   GL1 1419  16.134   1.174  16.037 -0.1998  0.3994 -0.3798
  119DPPC   GL2 1420  15.942   1.003  16.206 -0.0672  0.0623 -0.0554
  119DPPC   C1A 1421  16.322   1.264  16.341 -0.1501 -0.1789 -0.0124
  119DPPC   C2A 1422  16.280   1.070  16.699  0.1360  0.1456 -0.3035
  119DPPC   C3A 1423  16.325   1.078  17.170 -0.0898 -0.0175  0.2610
  119DPPC   C4A 1424  16.329   1.016  17.674  0.2247  0.0537 -0.0978
  119DPPC   C1B 1425  15.859   1.241  16.515  0.3779  0.1737  0.1955
  119DPPC   C2B 1426  15.831   1.236  16.941 -0.1291  0.1342  0.3433
  119DPPC   C3B 1427  15.839   1.128  17.415  0.0593  0.3321 -0.3025
  119DPPC   C4B 1428  15.831   1.180  17.905 -0.2298  0.0172 -0.1705
  120DPPC   NC3 1429  15.602   0.079  15.413  0.0588  0.1854  0.1160
  120DPPC   PO4 1430  15.735   0.411  15.648  0.1716  0.1741  0.3332
  120DPPC   GL1 1431  15.839   0.554  16.081  0.0694 -0.2205  0.1695
  120DPPC   GL2 1432  15.979   0.344  16.058 -0.0352  0.0244  0.3616
  120DPPC   C1A 1433  15.681   0.681  16.366  0.0262 -0.4393  0.0831
  120DPPC   C2A 1434  15.646   0.859  16.730  0.1820  0.0609  0.0512
  120DPPC   C3A 1435  15.559   0.829  17.177  0.0780 -0.0479  0.0242
  120DPPC   C4A 1436  15.501   0.829  17.654  0.0533  0.2582  0.0950
  120DPPC   C1B 1437  16.273   0.224  16.276 -0.0370  0.1231  0.0350
  120DPPC   C2B 1438  16.268   0.284  16.679  0.0386  0.0202 -0.2198
  120DPPC   C3B 1439  16.214   0.236  17.178  0.1844  0.1443 -0.3763
  120DPPC   C4B 1440  16.148   0.211  17.625 -0.1302  0.1867 -0.2132
  121DPPC   NC3 1441  15.872   5.811  15.593  0.2663 -0.0266  0.2367
  121DPPC   PO4 1442  15.569   5.580  15.643  0.0323 -0.2737 -0.1854
  121DPPC   GL1 1443  15.643   5.336  16.068  0.1105 -0.1212  0.2871
  121DPPC   GL2 1444  15.334   5.446  16.013 -0.2654 -0.4241  0.2429
  121DPPC   C1A 1445  15.806   5.246  16.378  0.2961  0.2876 -0.0110
  121DPPC   C2A 1446  15.792   5.022  16.750  0.0950 -0.0224  0.1085
  121DPPC   C3A 1447  15.813   5.064  17.278 -0.1422 -0.0898 -0.4065
  121DPPC   C4A 1448  15.808   5.024  17.795  0.0589 -0.1942  0.0987
  121DPPC   C1B 1449  15.223   5.485  16.330  0.0767  0.0689 -0.2875
  121DPPC   C2B 1450  15.176   5.626  16.684 -0.1709 -0.2456  0.1116
  121DPPC   C3B 1451  15.222   5.625  17.194 -0.0627  0.0435  0.1401
  121DPPC   C4B 1452  15.208   5.662  17.693  0.3177 -0.2234 -0.0254
  122DPPC   NC3 1453  19.527   0.821  15.548  0.0256  0.0831  0.2575
  122DPPC   PO4 1454  19.890   0.638  15.537  0.0088  0.0343 -0.0321
  122DPPC   GL1 1455  20.093   0.707  15.889 -0.0920 -0.0205 -0.3147
  122DPPC   GL2 1456  20.327   0.900  15.868  0.1792  0.1650  0.0997
  122DPPC   C1A 1457  20.140   0.608  16.275 -0.0750 -0.1191  0.3574
  122DPPC   C2A 1458  20.081   0.685  16.717  0.2425 -0.1174 -0.3267
  122DPPC   C3A 1459  20.043   0.778  17.256 -0.0755  0.3838  0.0326
  122DPPC   C4A 1460  20.088   0.721  17.746 -0.2113 -0.2207  0.1986
  122DPPC   C1B 1461  20.622   0.975  16.096 -0.0182  0.1263  0.2662
  122DPPC   C2B 1462  20.910   1.068  16.375 -0.1034 -0.2820  0.1124
  122DPPC   C3B 1463  20.915   1.028  16.855 -0.1803 -0.3067  0.0664
  122DPPC   C4B 1464  20.912   0.965  17.332 -0.0641  0.0287  0.0760
  123DPPC   NC3 1465  16.900   4.974  15.828 -0.0013  0.0600 -0.0809
  123DPPC   PO4 1466  16.771   4.591  15.747 -0.2556  0.0511  0.3252
  123DPPC   GL1 1467  16.692   4.693  16.149 -0.0889  0.1267 -0.0270
  123DPPC   GL2 1468  16.881   4.508  16.257 -0.3067  0.0838  0.0125
  123DPPC   C1A 1469  16.472   4.935  16.302 -0.2916  0.0830 -0.3731
  123DPPC   C2A 1470  16.278   4.990  16.666 -0.0403  0.0125 -0.2369
  123DPPC   C3A 1471  16.269   4.974  17.089  0.1156  0.1235  0.0594
  123DPPC   C4A 1472  16.298   4.988  17.576 -0.1935  0.1240 -0.1668
  123DPPC   C1B 1473  16.900   4.476  16.625 -0.0235  0.1091 -0.0323
  123DPPC   C2B 1474  16.999   4.388  17.019 -0.1926  0.1441 -0.0521
  123DPPC   C3B 1475  16.962   4.417  17.461 -0.4118 -0.2518 -0.0634
  123DPPC   C4B 1476  16.960   4.405  17.973 -0.0857 -0.1553  0.3437
  124DPPC   NC3 1477  15.864   1.549  16.152  0.1658 -0.1936 -0.0571
  124DPPC   PO4 1478  15.941   1.966  16.172  0.1659  0.3063 -0.1000
  124DPPC   GL1 1479  16.020   2.029  16.610 -0.2856  0.2157 -0.2101
  124DPPC   GL2 1480  16.026   2.281  16.565 -0.0130 -0.0582 -0.1927
  124DPPC   C1A 1481  16.049   2.016  16.939  0.1824  0.2812  0.0252
  124DPPC   C2A 1482  16.026   1.980  17.352  0.0584 -0.0121  0.0234
  124DPPC   C3A 1483  16.012   2.005  17.855  0.1499  0.3975  0.0046
  124DPPC   C4A 1484  15.977   2.045  18.334  0.2342 -0.1154  0.0326
  124DPPC   C1B 1485  15.941   2.427  16.845  0.2060  0.1170  0.1213
  124DPPC   C2B 1486  15.793   2.415  17.201  0.0691 -0.3494  0.0403
  124DPPC   C3B 1487  15.871   2.488  17.661  0.0551 -0.1479 -0.0545
  124DPPC   C4B 1488  15.827   2.475  18.146  0.0416  0.0927  0.2307
  125DPPC   NC3 1489  19.100   1.263  15.497 -0.0089  0.0502 -0.0072
  125DPPC   PO4 1490  19.368   1.213  15.792 -0.0318  0.3155  0.0100
  125DPPC   GL1 1491  19.446   0.913  16.059  0.0963  0.0787 -0.1088
  125DPPC   GL2 1492  19.747   0.928  15.987 -0.1136 -0.1615  0.0078
  125DPPC   C1A 1493  19.272   0.997  16.343  0.6459  0.1602  0.2813
  125DPPC   C2A 1494  19.161   0.899  16.710 -0.1353  0.0836  0.0471
  125DPPC   C3A 1495  19.092   0.991  17.181 -0.0894 -0.0318 -0.0350
  125DPPC   C4A 1496  19.025   0.948  17.717 -0.0121  0.1145 -0.2923
  125DPPC   C1B 1497  19.982   0.985  16.212 -0.3008 -0.3226 -0.0219
  125DPPC   C2B 1498  20.377   1.028  16.449 -0.1904 -0.3110 -0.0981
  125DPPC   C3B 1499  20.429   1.092  16.956 -0.2536 -0.0439  0.2976
  125DPPC   C4B 1500  20.408   1.075  17.457  0.2922 -0.2345 -0.0158
  126DPPC   NC3 1501  19.540   6.354  15.682 -0.1524  0.0897 -0.0580
  126DPPC   PO4 1502  19.811   6.594  15.550 -0.0624 -0.1058  0.2376
  126DPPC   GL1 1503  19.917   6.757  15.981  0.2603  0.0583  0.1141
  126DPPC   GL2 1504  19.715   6.955  15.834 -0.4400  0.2552 -0.2230
  126DPPC   C1A 1505  19.831   6.826  16.342 -0.1481  0.1325  0.3747
  126DPPC   C2A 1506  19.705   6.910  16.740 -0.0658 -0.0073 -0.2388
  126DPPC   C3A 1507  19.744   7.014  17.261  0.1749  0.1616  0.1975
  126DPPC   C4A 1508  19.707   6.992  17.731  0.0094  0.0892  0.1897
  126DPPC   C1B 1509  19.640   7.155  16.111 -0.0637  0.3694  0.1115
  126DPPC   C2B 1510  19.614   7.325  16.459 -0.0378  0.1076  0.2951
  126DPPC   C3B 1511  19.597   7.455  16.970  0.2017  0.0135 -0.1683
  126DPPC   C4B 1512  19.550   7.428  17.472  0.2105  0.1597 -0.0605
  127DPPC   NC3 1513  17.390   1.044  15.592  0.5118 -0.2333 -0.2266
  127DPPC   PO4 1514  17.745   0.911  15.415 -0.0977 -0.1377 -0.0745
  127DPPC   GL1 1515  17.923   0.809  15.836  0.1808 -0.2614  0.1461
  127DPPC   GL2 1516  17.794   0.979  15.961  0.0423  0.1894  0.0211
  127DPPC   C1A 1517  17.951   0.503  16.005  0.3175 -0.1625  0.2718
  127DPPC   C2A 1518  18.034   0.337  16.415 -0.0918  0.3667 -0.1163
  127DPPC   C3A 1519  17.944   0.298  16.904 -0.1115  0.0322  0.2680
  127DPPC   C4A 1520  17.863   0.264  17.359  0.2117 -0.1051 -0.3020
  127DPPC   C1B 1521  17.802   0.828  16.315  0.1511  0.2097 -0.1298
  127DPPC   C2B 1522  17.760   0.752  16.723 -0.0025 -0.1905  0.0811
  127DPPC   C3B 1523  17.774   0.761  17.215  0.3975 -0.0266 -0.2125
  127DPPC   C4B 1524  17.755   0.732  17.689 -0.3311 -0.1818  0.0551
  128DPPC   NC3 1525  20.691   4.693  15.501 -0.1838 -0.0617  0.0496
  128DPPC   PO4 1526  20.733   4.410  15.814  0.3450  0.0270 -0.1377
  128DPPC   GL1 1527  20.612   4.371  16.163 -0.0298 -0.0559 -0.0102
  128DPPC   GL2 1528  20.349   4.401  16.006  0.2270 -0.5493 -0.0189
  128DPPC   C1A 1529  20.677   4.482  16.480  0.0199 -0.0437  0.0042
  128DPPC   C2A 1530  20.596   4.587  16.871 -0.3255 -0.1312 -0.1464
  128DPPC   C3A 1531  20.612   4.632  17.386 -0.0917 -0.1796 -0.0935
  128DPPC   C4A 1532  20.486   4.598  17.870  0.1907  0.0643  0.2396
  128DPPC   C1B 1533  20.159   4.550  16.242  0.1296 -0.1138 -0.0324
  128DPPC   C2B 1534  20.129   4.633  16.653  0.0718 -0.2418 -0.0398
  128DPPC   C3B 1535  20.149   4.728  17.140  0.0735  0.0394 -0.1993
  128DPPC   C4B 1536  20.029   4.754  17.630 -0.1605  0.1419  0.0966
  129DPPC   NC3 1537  15.138   6.469  15.576 -0.0233 -0.1512 -0.0118
  129DPPC   PO4 1538  15.230   6.845  15.682  0.1246  0.0556  0.1412
  129DPPC   GL1 1539  15.532   6.797  15.984  0.2360  0.1758  0.0033
  129DPPC   GL2 1540  15.552   6.530  15.957 -0.0053  0.0620  0.1725
  129DPPC   C1A 1541  15.566   6.861  16.323  0.0884 -0.3637 -0.1363
  129DPPC   C2A 1542  15.701   6.959  16.730  0.0051  0.0364 -0.0889
  129DPPC   C3A 1543  15.647   6.935  17.236 -0.0435 -0.1692  0.2464
  129DPPC   C4A 1544  15.660   6.928  17.732 -0.2092  0.0870 -0.2210
  129DPPC   C1B 1545  15.609   6.271  16.235  0.2527  0.3478  0.1469
  129DPPC   C2B 1546  15.565   6.106  16.615 -0.1748  0.0670 -0.0976
  129DPPC   C3B 1547  15.531   6.081  17.069  0.1388 -0.2815  0.1035
  129DPPC   C4B 1548  15.463   6.073  17.551 -0.1577 -0.1321  0.1438
  130DPPC   NC3 1549  19.547   1.516  15.442 -0.4159  0.1489  0.4105
  130DPPC   PO4 1550  19.245   1.725  15.630  0.0754  0.0021 -0.0258
  130DPPC   GL1 1551  19.160   1.797  15.997  0.1612  0.0521 -0.1098
  130DPPC   GL2 1552  19.243   1.529  16.101 -0.0950 -0.0977 -0.1145
  130DPPC   C1A 1553  19.226   1.912  16.345 -0.0030 -0.2491  0.0620
  130DPPC   C2A 1554  19.257   1.825  16.707  0.2782 -0.2224  0.3106
  130DPPC   C3A 1555  19.295   1.806  17.162  0.2320  0.1241  0.0905
  130DPPC   C4A 1556  19.325   1.771  17.649 -0.0508 -0.1604 -0.1591
  130DPPC   C1B 1557  19.363   1.425  16.448 -0.0923 -0.0935  0.2891
  130DPPC   C2B 1558  19.432   1.338  16.842  0.1219 -0.0109  0.0241
  130DPPC   C3B 1559  19.397   1.337  17.329 -0.0303  0.2510  0.2314
  130DPPC   C4B 1560  19.448   1.226  17.786  0.5072 -0.0844  0.1172
  131DPPC   NC3 1561  16.850   0.906  15.371  0.0718  0.1535 -0.1016
  131DPPC   PO4 1562  17.108   0.645  15.544  0.1689 -0.1758  0.0638
  131DPPC   GL1 1563  17.225   0.660  15.889  0.7012 -0.0233  0.1538
  131DPPC   GL2 1564  17.216   0.406  15.981 -0.0439  0.0903 -0.0545
  131DPPC   C1A 1565  17.379   0.918  16.152  0.1476 -0.1219  0.2187
  131DPPC   C2A 1566  17.485   1.165  16.486  0.2226  0.1149  0.0851
  131DPPC   C3A 1567  17.640   1.191  16.949 -0.1508 -0.1482 -0.2896
  131DPPC   C4A 1568  17.595   1.232  17.472 -0.0383 -0.1229 -0.0067
  131DPPC   C1B 1569  17.107   0.386  16.338 -0.0219  0.1246  0.0161
  131DPPC   C2B 1570  16.941   0.461  16.742  0.1823  0.1718  0.1214
  131DPPC   C3B 1571  16.913   0.448  17.232 -0.1552 -0.0508 -0.1383
  131DPPC   C4B 1572  16.824   0.448  17.759 -0.0147  0.0140  0.1510
  132DPPC   NC3 1573  18.187   4.344  15.667 -0.1648  0.2056  0.0784
  132DPPC   PO4 1574  18.530   4.375  15.471 -0.2666 -0.0696  0.1283
  132DPPC   GL1 1575  18.641   4.635  15.788  0.0629  0.1748  0.1160
  132DPPC   GL2 1576  18.789   4.452  15.937 -0.1924  0.0544  0.0926
  132DPPC   C1A 1577  18.628   4.916  16.099 -0.6467  0.2154  0.1150
  132DPPC   C2A 1578  18.687   5.043  16.501 -0.0356  0.2644 -0.2792
  132DPPC   C3A 1579  18.616   5.032  17.022 -0.0302 -0.1080 -0.0794
  132DPPC   C4A 1580  18.530   5.047  17.538  0.3189  0.0309  0.2425
  132DPPC   C1B 1581  18.877   4.540  16.259  0.4733 -0.0002  0.1179
  132DPPC   C2B 1582  18.797   4.573  16.652  0.2008  0.1949  0.1838
  132DPPC   C3B 1583  18.734   4.512  17.124  0.0784  0.0615  0.0826
  132DPPC   C4B 1584  18.763   4.545  17.618 -0.0634  0.2743 -0.0154
  133DPPC   NC3 1585  17.520   0.450  15.289  0.1206  0.0406 -0.0492
  133DPPC   PO4 1586  17.475   0.264  15.608 -0.0855  0.3798 -0.0121
  133DPPC   GL1 1587  17.609   0.248  15.945  0.1822 -0.1895 -0.1315
  133DPPC   GL2 1588  17.713   0.045  16.022 -0.2578 -0.3530  0.0754
  133DPPC   C1A 1589  17.542   0.423  16.265  0.3300 -0.1668  0.2000
  133DPPC   C2A 1590  17.442   0.407  16.651 -0.1023 -0.2359  0.2427
  133DPPC   C3A 1591  17.432   0.383  17.149 -0.0441  0.0384 -0.0848
  133DPPC   C4A 1592  17.413   0.405  17.584 -0.0837  0.1038 -0.0543
  133DPPC   C1B 1593  17.726   0.026  16.387  0.0878  0.0164  0.0332
  133DPPC   C2B 1594  17.644  -0.086  16.794 -0.3029  0.2462 -0.0610
  133DPPC   C3B 1595  17.526  -0.118  17.285  0.0958 -0.2062 -0.0816
  133DPPC   C4B 1596  17.608  -0.185  17.720  0.0628  0.0495 -0.2317
  134DPPC   NC3 1597  16.469   3.727  15.636 -0.2282  0.1399  0.0379
  134DPPC   PO4 1598  16.167   3.912  15.772  0.3232 -0.0653  0.0140
  134DPPC   GL1 1599  16.382   3.767  16.162  0.0998  0.4712 -0.0097
  134DPPC   GL2 1600  16.120   3.924  16.265 -0.5108 -0.1453  0.1202
  134DPPC   C1A 1601  16.428   3.651  16.496  0.1300 -0.0924  0.1061
  134DPPC   C2A 1602  16.246   3.622  16.877  0.2866 -0.0255  0.0333
  134DPPC   C3A 1603  16.362   3.676  17.336 -0.0598  0.0220  0.2299
  134DPPC   C4A 1604  16.381   3.644  17.811  0.2265 -0.0669 -0.0694
  134DPPC   C1B 1605  16.175   4.024  16.620 -0.0053  0.0552 -0.0768
  134DPPC   C2B 1606  16.205   4.090  17.036  0.1923 -0.0591 -0.1086
  134DPPC   C3B 1607  16.235   4.133  17.529  0.0999 -0.3505 -0.5411
  134DPPC   C4B 1608  16.138   4.124  17.975  0.1432 -0.1894  0.4535
  135DPPC   NC3 1609  18.709   3.321  16.028 -0.1874 -0.0853 -0.0983
  135DPPC   PO4 1610  19.010   3.052  16.020  0.3794  0.0060  0.1483
  135DPPC   GL1 1611  19.263   3.087  16.357  0.0958  0.4317  0.2658
  135DPPC   GL2 1612  19.393   3.330  16.244 -0.0138  0.3015  0.5745
  135DPPC   C1A 1613  19.173   3.113  16.713 -0.0883 -0.0494  0.1373
  135DPPC   C2A 1614  19.290   3.202  17.073  0.0801  0.1154 -0.2540
  135DPPC   C3A 1615  19.239   3.186  17.587  0.0508  0.3333 -0.0402
  135DPPC   C4A 1616  19.221   3.061  18.107  0.2991 -0.2531 -0.0948
  135DPPC   C1B 1617  19.490   3.513  16.522 -0.0487 -0.1358  0.1063
  135DPPC   C2B 1618  19.599   3.562  16.917 -0.0634  0.2075  0.0429
  135DPPC   C3B 1619  19.542   3.521  17.363 -0.1477 -0.2529  0.0006
  135DPPC   C4B 1620  19.557   3.454  17.851  0.2490  0.0901 -0.0327
  136DPPC   NC3 1621  14.725   5.124  15.937  0.1017  0.0081  0.1876
  136DPPC   PO4 1622  14.752   4.717  15.938  0.1638 -0.1594 -0.3090
  136DPPC   GL1 1623  14.589   4.546  16.268  0.1757 -0.0633 -0.0760
  136DPPC   GL2 1624  14.863   4.383  16.304  0.2495 -0.2273  0.5237
  136DPPC   C1A 1625  14.647   4.541  16.636  0.1406  0.1177 -0.1585
  136DPPC   C2A 1626  14.617   4.469  17.020 -0.0490 -0.0072  0.0260
  136DPPC   C3A 1627  14.562   4.513  17.496  0.1611  0.0654 -0.2392
  136DPPC   C4A 1628  14.637   4.513  18.017  0.0840 -0.0066 -0.2473
  136DPPC   C1B 1629  15.038   4.397  16.565  0.3412 -0.3296  0.1419
  136DPPC   C2B 1630  15.093   4.293  16.934 -0.3805  0.2645  0.1751
  136DPPC   C3B 1631  15.106   4.370  17.368 -0.1825  0.2125  0.1550
  136DPPC   C4B 1632  15.093   4.403  17.824 -0.0865  0.1111 -0.1695
  137DPPC   NC3 1633  14.593   5.927  15.455  0.1471 -0.0248 -0.0783
  137DPPC   PO4 1634  14.699   6.171  15.796 -0.0153 -0.1642 -0.0554
  137DPPC   GL1 1635  14.592   6.037  16.190  0.1046 -0.0024  0.0641
  137DPPC   GL2 1636  14.669   6.373  16.245  0.2807  0.0264 -0.1071
  137DPPC   C1A 1637  14.671   5.893  16.503  0.1035 -0.1027  0.0649
  137DPPC   C2A 1638  14.780   5.816  16.922  0.2469 -0.1754 -0.0132
  137DPPC   C3A 1639  14.689   5.829  17.421 -0.0075 -0.1087 -0.1719
  137DPPC   C4A 1640  14.690   5.780  17.948  0.0294 -0.1873  0.0344
  137DPPC   C1B 1641  14.617   6.355  16.615 -0.0840 -0.1912 -0.0448
  137DPPC   C2B 1642  14.598   6.333  17.038  0.0452 -0.2133 -0.0845
  137DPPC   C3B 1643  14.495   6.269  17.503  0.1762  0.1905  0.1534
  137DPPC   C4B 1644  14.532   6.255  18.018 -0.0012  0.2149  0.2218
  138DPPC   NC3 1645  13.774   5.784  15.718 -0.1396 -0.2502  0.1115
  138DPPC   PO4 1646  13.749   6.177  15.859  0.0033  0.1490  0.0400
  138DPPC   GL1 1647  13.934   6.083  16.276 -0.0375  0.2875  0.3007
  138DPPC   GL2 1648  13.718   5.942  16.389 -0.0529 -0.1398  0.0947
  138DPPC   C1A 1649  14.160   6.266  16.482 -0.1990 -0.1083  0.2076
  138DPPC   C2A 1650  14.127   6.395  16.866 -0.0007 -0.3108 -0.1811
  138DPPC   C3A 1651  14.052   6.417  17.341 -0.0896  0.2063  0.2553
  138DPPC   C4A 1652  14.051   6.355  17.810 -0.1624  0.0708 -0.1678
  138DPPC   C1B 1653  13.763   5.644  16.600 -0.0194  0.0464  0.1880
  138DPPC   C2B 1654  13.882   5.599  16.954 -0.2851 -0.0795 -0.0886
  138DPPC   C3B 1655  13.875   5.602  17.373  0.2965  0.1054 -0.1077
  138DPPC   C4B 1656  13.932   5.541  17.837  0.2246 -0.0473  0.3224
  139DPPC   NC3 1657  14.742   2.174  16.357  0.1501 -0.2669 -0.0367
  139DPPC   PO4 1658  14.931   1.833  16.225 -0.5566 -0.2364 -0.0819
  139DPPC   GL1 1659  15.174   1.720  16.570 -0.2843 -0.2756  0.3357
  139DPPC   GL2 1660  15.462   1.721  16.462  0.2866 -0.2328 -0.3113
  139DPPC   C1A 1661  15.183   1.765  16.923 -0.3981  0.2932  0.3451
  139DPPC   C2A 1662  15.179   1.793  17.340  0.1748  0.1579 -0.0599
  139DPPC   C3A 1663  15.211   1.716  17.814 -0.2153  0.0568  0.0538
  139DPPC   C4A 1664  15.173   1.673  18.319  0.3047 -0.0826  0.1573
  139DPPC   C1B 1665  15.672   1.687  16.742 -0.0045 -0.1858  0.1026
  139DPPC   C2B 1666  15.697   1.729  17.166 -0.3681 -0.0302  0.1288
  139DPPC   C3B 1667  15.647   1.741  17.642 -0.3148  0.0910 -0.3365
  139DPPC   C4B 1668  15.742   1.656  18.083 -0.0276  0.0326  0.1267
  140DPPC   NC3 1669  16.529   6.570  15.236  0.2072 -0.0414 -0.1316
  140DPPC   PO4 1670  16.113   6.610  15.305 -0.1880 -0.0237  0.0249
  140DPPC   GL1 1671  15.910   6.482  15.666  0.4458  0.0975 -0.3337
  140DPPC   GL2 1672  16.147   6.341  15.639 -0.0903 -0.0973 -0.0288
  140DPPC   C1A 1673  15.948   6.546  16.008 -0.1699 -0.0518  0.1974
  140DPPC   C2A 1674  15.911   6.594  16.436 -0.0112  0.3047 -0.0342
  140DPPC   C3A 1675  15.848   6.503  16.913  0.1454  0.0697  0.0020
  140DPPC   C4A 1676  15.817   6.482  17.410 -0.3330  0.2009 -0.0927
  140DPPC   C1B 1677  16.120   6.110  15.896  0.2299  0.0361  0.0968
  140DPPC   C2B 1678  16.038   6.128  16.323  0.1441  0.0830  0.1179
  140DPPC   C3B 1679  16.008   6.004  16.792  0.0386 -0.1751 -0.1085
  140DPPC   C4B 1680  16.011   5.909  17.270  0.0028  0.2069 -0.0167
  141DPPC   NC3 1681  15.038   1.248  16.165  0.1360  0.0850  0.0465
  141DPPC   PO4 1682  14.733   1.030  16.252  0.0574 -0.0472  0.0617
  141DPPC   GL1 1683  14.740   1.151  16.638 -0.0173  0.0880  0.1131
  141DPPC   GL2 1684  14.604   0.933  16.744  0.5829  0.4224 -0.2434
  141DPPC   C1A 1685  14.914   1.358  16.871 -0.2451 -0.2560  0.1306
  141DPPC   C2A 1686  14.872   1.414  17.271  0.0952  0.2405 -0.1613
  141DPPC   C3A 1687  14.869   1.323  17.725  0.2241 -0.2473 -0.1327
  141DPPC   C4A 1688  14.824   1.375  18.227  0.0889 -0.0720  0.0292
  141DPPC   C1B 1689  14.545   1.118  17.071  0.0199  0.0497 -0.0638
  141DPPC   C2B 1690  14.571   1.038  17.471  0.0050  0.1725  0.1502
  141DPPC   C3B 1691  14.523   1.008  17.969 -0.0970  0.0881  0.0142
  141DPPC   C4B 1692  14.459   0.956  18.469 -0.4311  0.0402 -0.1963
  142DPPC   NC3 1693  19.062   0.484  15.094 -0.2427  0.2795  0.0981
  142DPPC   PO4 1694  19.111   0.797  15.264  0.1631  0.0167 -0.0326
  142DPPC   GL1 1695  19.055   0.781  15.689 -0.2367  0.1414 -0.1930
  142DPPC   GL2 1696  19.261   0.539  15.843 -0.2492 -0.4327 -0.0849
  142DPPC   C1A 1697  18.877   0.813  15.997 -0.2756  0.0456  0.0515
  142DPPC   C2A 1698  18.832   0.640  16.382  0.1131  0.0401 -0.0869
  142DPPC   C3A 1699  18.741   0.601  16.895 -0.3740  0.0505 -0.0556
  142DPPC   C4A 1700  18.787   0.641  17.415 -0.0389  0.1597  0.2960
  142DPPC   C1B 1701  19.221   0.521  16.234  0.1336  0.4869 -0.1313
  142DPPC   C2B 1702  19.243   0.394  16.646 -0.2359 -0.1365 -0.2157
  142DPPC   C3B 1703  19.223   0.473  17.146  0.2023 -0.1586  0.2669
  142DPPC   C4B 1704  19.230   0.485  17.645  0.0934 -0.1648  0.2595
  143DPPC   NC3 1705  16.193   2.901  15.772  0.0307 -0.0088  0.0713
  143DPPC   PO4 1706  15.830   2.878  16.004 -0.1350 -0.2702 -0.1383
  143DPPC   GL1 1707  15.864   2.630  16.280 -0.0189 -0.0665  0.0145
  143DPPC   GL2 1708  15.652   2.435  16.298  0.1432  0.0725 -0.0431
  143DPPC   C1A 1709  15.926   2.782  16.605  0.2950 -0.3562  0.0534
  143DPPC   C2A 1710  16.146   2.838  16.957 -0.0141 -0.1110  0.1104
  143DPPC   C3A 1711  16.185   2.768  17.425 -0.1296  0.0030  0.0060
  143DPPC   C4A 1712  16.237   2.801  17.894  0.2287  0.2630 -0.0931
  143DPPC   C1B 1713  15.609   2.276  16.625 -0.1108 -0.0734 -0.0796
  143DPPC   C2B 1714  15.467   2.121  16.968 -0.0282 -0.0198  0.2226
  143DPPC   C3B 1715  15.487   2.163  17.460  0.0917  0.0134 -0.0723
  143DPPC   C4B 1716  15.509   2.113  17.968  0.0801 -0.1146  0.1811
  144DPPC   NC3 1717  19.133   5.652  15.729 -0.0195 -0.0852  0.3385
  144DPPC   PO4 1718  19.203   6.025  15.729  0.1854 -0.0038 -0.0560
  144DPPC   GL1 1719  19.278   6.298  16.064 -0.2259 -0.0060  0.0313
  144DPPC   GL2 1720  19.557   6.223  16.123 -0.4491 -0.0292 -0.0046
  144DPPC   C1A 1721  19.132   6.171  16.354  0.0934 -0.4083  0.3390
  144DPPC   C2A 1722  19.095   6.263  16.737 -0.0110 -0.5008  0.1684
  144DPPC   C3A 1723  19.109   6.258  17.227  0.1337  0.0885 -0.0461
  144DPPC   C4A 1724  19.064   6.203  17.749  0.1431 -0.1129 -0.0368
  144DPPC   C1B 1725  19.657   6.198  16.467 -0.0641  0.0265  0.1076
  144DPPC   C2B 1726  19.641   6.180  16.860 -0.0694 -0.1160 -0.3088
  144DPPC   C3B 1727  19.616   6.136  17.346  0.0033  0.0427 -0.0547
  144DPPC   C4B 1728  19.589   5.993  17.826  0.1768  0.2681 -0.2344
  145DPPC   NC3 1729  13.951   2.108  16.061 -0.2967 -0.1931  0.0949
  145DPPC   PO4 1730  14.253   2.338  16.171 -0.2479 -0.0608  0.0111
  145DPPC   GL1 1731  14.344   2.331  16.568  0.2592 -0.0123  0.6163
  145DPPC   GL2 1732  14.010   2.332  16.625 -0.1982  0.1267 -0.1277
  145DPPC   C1A 1733  14.460   2.195  16.944 -0.0323 -0.1125  0.3793
  145DPPC   C2A 1734  14.483   2.308  17.356 -0.1275  0.3047 -0.0587
  145DPPC   C3A 1735  14.555   2.224  17.800 -0.0883  0.0033  0.2228
  145DPPC   C4A 1736  14.530   2.273  18.301 -0.0334 -0.1480  0.1776
  145DPPC   C1B 1737  14.049   2.364  16.955  0.2011  0.0546 -0.0267
  145DPPC   C2B 1738  13.994   2.414  17.395 -0.2392 -0.2043  0.2154
  145DPPC   C3B 1739  14.101   2.338  17.819 -0.0445 -0.2160  0.0120
  145DPPC   C4B 1740  13.970   2.362  18.291  0.2123 -0.1460 -0.0366
  146DPPC   NC3 1741  17.938   3.538  15.166 -0.2791  0.2026 -0.2428
  146DPPC   PO4 1742  17.916   3.706  15.528 -0.0260 -0.0217 -0.1288
  146DPPC   GL1 1743  18.238   3.883  15.772 -0.4423  0.0714  0.0423
  146DPPC   GL2 1744  18.094   3.783  16.019 -0.2169  0.0917 -0.0640
  146DPPC   C1A 1745  18.408   4.123  15.957 -0.1878  0.1767  0.0079
  146DPPC   C2A 1746  18.483   4.233  16.350 -0.1212  0.0111  0.2068
  146DPPC   C3A 1747  18.447   4.137  16.815 -0.2006  0.2635  0.2204
  146DPPC   C4A 1748  18.414   4.161  17.243  0.0273 -0.1632 -0.0323
  146DPPC   C1B 1749  18.139   3.828  16.402  0.2099  0.1685 -0.0689
  146DPPC   C2B 1750  18.069   3.763  16.826 -0.1885  0.3295  0.0509
  146DPPC   C3B 1751  18.094   3.791  17.309 -0.0345 -0.1919  0.3121
  146DPPC   C4B 1752  18.093   3.826  17.764  0.0056 -0.2214  0.0365
  147DPPC   NC3 1753  19.590   3.948  15.694 -0.2285  0.0669  0.1512
  147DPPC   PO4 1754  19.927   4.059  15.626  0.2072  0.1826 -0.0548
  147DPPC   GL1 1755  19.937   4.176  16.043  0.0048  0.1087 -0.1361
  147DPPC   GL2 1756  19.677   4.195  16.122  0.1024 -0.0080  0.2489
  147DPPC   C1A 1757  20.160   4.102  16.331  0.1491  0.0778 -0.0638
  147DPPC   C2A 1758  20.354   4.196  16.652 -0.0890 -0.0517  0.3526
  147DPPC   C3A 1759  20.300   4.263  17.103  0.1510 -0.0401 -0.1059
  147DPPC   C4A 1760  20.298   4.225  17.585  0.0812 -0.1228  0.1499
  147DPPC   C1B 1761  19.829   4.335  16.463 -0.0187 -0.0460 -0.3209
  147DPPC   C2B 1762  19.747   4.356  16.895 -0.0210  0.1994 -0.1218
  147DPPC   C3B 1763  19.700   4.355  17.385  0.0064  0.2536  0.0725
  147DPPC   C4B 1764  19.858   4.363  17.847  0.2233 -0.2248 -0.2417
  148DPPC   NC3 1765  16.340   1.983  15.949 -0.1217 -0.3442 -0.0355
  148DPPC   PO4 1766  16.393   1.583  15.868 -0.0545  0.0488  0.0916
  148DPPC   GL1 1767  16.616   1.633  16.222 -0.0331  0.2216 -0.1468
  148DPPC   GL2 1768  16.353   1.729  16.363 -0.3514  0.3105  0.0276
  148DPPC   C1A 1769  16.704   1.552  16.578  0.1347  0.2039  0.4016
  148DPPC   C2A 1770  16.602   1.411  16.978  0.0884  0.1495  0.0865
  148DPPC   C3A 1771  16.659   1.375  17.390  0.0359 -0.0244 -0.0786
  148DPPC   C4A 1772  16.659   1.331  17.839  0.0990  0.1953  0.2015
  148DPPC   C1B 1773  16.233   1.530  16.651  0.0398  0.1941  0.0596
  148DPPC   C2B 1774  16.154   1.611  17.000 -0.0134  0.0548 -0.0144
  148DPPC   C3B 1775  16.149   1.517  17.487 -0.1105 -0.0478 -0.3179
  148DPPC   C4B 1776  16.217   1.492  17.975  0.2848 -0.1015 -0.2204
  149DPPC   NC3 1777  17.609   1.719  15.429 -0.0911 -0.1169  0.3617
  149DPPC   PO4 1778  17.889   1.873  15.610  0.0388  0.1270 -0.2656
  149DPPC   GL1 1779  17.992   2.046  15.965 -0.1044 -0.0718 -0.2638
  149DPPC   GL2 1780  17.772   1.990  16.022 -0.0593 -0.1730 -0.0497
  149DPPC   C1A 1781  18.101   1.788  16.166  0.3130  0.3425  0.3943
  149DPPC   C2A 1782  18.213   1.925  16.521 -0.1486  0.2257 -0.2605
  149DPPC   C3A 1783  18.250   1.956  17.016  0.0629 -0.1798  0.0155
  149DPPC   C4A 1784  18.288   1.980  17.511 -0.2914  0.0184  0.2769
  149DPPC   C1B 1785  17.717   2.013  16.418 -0.2235  0.2569 -0.2550
  149DPPC   C2B 1786  17.815   2.056  16.828 -0.1605 -0.1818  0.2862
  149DPPC   C3B 1787  17.770   2.039  17.338 -0.0665  0.2227 -0.0161
  149DPPC   C4B 1788  17.844   2.047  17.800  0.2814 -0.0172 -0.1227
  150DPPC   NC3 1789  16.738   2.956  15.983 -0.1849 -0.0879  0.0749
  150DPPC   PO4 1790  16.410   2.806  16.170 -0.0771  0.0307  0.0823
  150DPPC   GL1 1791  16.392   2.664  16.478 -0.0996 -0.1679  0.0402
  150DPPC   GL2 1792  16.641   2.874  16.561  0.1778 -0.0258 -0.1707
  150DPPC   C1A 1793  16.387   2.413  16.711 -0.0881  0.1570  0.1091
  150DPPC   C2A 1794  16.391   2.331  17.083 -0.1813 -0.0507  0.0491
  150DPPC   C3A 1795  16.348   2.316  17.520 -0.0715  0.0803  0.0528
  150DPPC   C4A 1796  16.352   2.342  18.008 -0.1527  0.1123 -0.0461
  150DPPC   C1B 1797  16.654   2.772  16.893 -0.1641 -0.2124  0.0261
  150DPPC   C2B 1798  16.655   2.748  17.291 -0.1576 -0.1443 -0.1854
  150DPPC   C3B 1799  16.743   2.709  17.793 -0.0196 -0.0308 -0.1058
  150DPPC   C4B 1800  16.736   2.731  18.253 -0.0621  0.0727 -0.0814
  151DPPC   NC3 1801  14.766   2.790  15.483  0.2581 -0.1201  0.3687
  151DPPC   PO4 1802  14.939   2.851  15.832 -0.0302  0.1849  0.0459
  151DPPC   GL1 1803  14.924   2.802  16.255  0.1811 -0.2962  0.2277
  151DPPC   GL2 1804  15.139   2.957  16.430 -0.0193  0.0954  0.3484
  151DPPC   C1A 1805  14.742   2.627  16.504 -0.1244 -0.3778  0.0561
  151DPPC   C2A 1806  14.726   2.580  16.903 -0.0768 -0.1469  0.0015
  151DPPC   C3A 1807  14.852   2.650  17.403  0.4006 -0.0515  0.2656
  151DPPC   C4A 1808  14.859   2.572  17.924 -0.0406 -0.0668  0.1684
  151DPPC   C1B 1809  15.112   3.074  16.764  0.0514 -0.1701  0.1361
  151DPPC   C2B 1810  15.163   3.092  17.171  0.0527 -0.0247  0.1989
  151DPPC   C3B 1811  15.080   3.090  17.655  0.0802 -0.2396 -0.1520
  151DPPC   C4B 1812  15.227   3.051  18.086  0.0229 -0.0926  0.0854
  152DPPC   NC3 1813  16.901   1.545  15.895 -0.1305 -0.1403  0.0739
  152DPPC   PO4 1814  17.175   1.464  15.614  0.1166  0.1285 -0.2817
  152DPPC   GL1 1815  17.425   1.347  15.953 -0.1399  0.0580 -0.0595
  152DPPC   GL2 1816  17.150   1.337  16.146 -0.1996  0.1130 -0.0281
  152DPPC   C1A 1817  17.734   1.536  16.121  0.2362 -0.0857 -0.0452
  152DPPC   C2A 1818  17.876   1.531  16.529  0.0758 -0.1521 -0.2421
  152DPPC   C3A 1819  17.942   1.575  16.987 -0.0288  0.1832  0.0919
  152DPPC   C4A 1820  17.945   1.598  17.460  0.0348  0.0734  0.2638
  152DPPC   C1B 1821  17.052   1.294  16.467 -0.3021 -0.3060 -0.4321
  152DPPC   C2B 1822  17.121   1.328  16.862 -0.2316  0.0938  0.0803
  152DPPC   C3B 1823  17.141   1.322  17.274 -0.1629 -0.2616  0.0908
  152DPPC   C4B 1824  17.220   1.285  17.748  0.2568 -0.0430 -0.0743
  153DPPC   NC3 1825  20.571   5.438  15.203  0.2005  0.1856 -0.2419
  153DPPC   PO4 1826  20.699   5.633  15.522 -0.0656 -0.0260 -0.1442
  153DPPC   GL1 1827  20.834   5.672  15.864 -0.5411  0.0870  0.0516
  153DPPC   GL2 1828  20.784   5.886  16.034  0.2644  0.2099 -0.2804
  153DPPC   C1A 1829  20.867   5.409  16.140 -0.1214  0.0212 -0.1461
  153DPPC   C2A 1830  20.789   5.363  16.553  0.4581 -0.2601 -0.1522
  153DPPC   C3A 1831  20.706   5.442  17.034  0.2602 -0.3039  0.0616
  153DPPC   C4A 1832  20.760   5.449  17.513 -0.0705 -0.0671  0.1049
  153DPPC   C1B 1833  20.634   5.878  16.360 -0.1845  0.1566  0.0379
  153DPPC   C2B 1834  20.585   5.926  16.786 -0.2162 -0.1868  0.1101
  153DPPC   C3B 1835  20.509   5.955  17.249  0.0362  0.0587 -0.1042
  153DPPC   C4B 1836  20.535   5.937  17.763  0.1546  0.0905 -0.0185
  154DPPC   NC3 1837  19.746   2.416  15.146  0.1234  0.0608 -0.1554
  154DPPC   PO4 1838  19.779   2.024  15.284  0.1486 -0.0695  0.0108
  154DPPC   GL1 1839  19.699   2.063  15.716 -0.2092 -0.4728  0.0530
  154DPPC   GL2 1840  19.630   1.808  15.803 -0.1879 -0.1280 -0.0703
  154DPPC   C1A 1841  19.829   2.182  16.044 -0.1533  0.1342  0.0161
  154DPPC   C2A 1842  19.624   2.210  16.402  0.2009  0.0417  0.1753
  154DPPC   C3A 1843  19.568   2.202  16.886  0.0482  0.2001  0.0097
  154DPPC   C4A 1844  19.572   2.171  17.367 -0.0979 -0.0798 -0.2186
  154DPPC   C1B 1845  19.592   1.772  16.117  0.2982 -0.1542 -0.2772
  154DPPC   C2B 1846  19.677   1.729  16.526 -0.1828 -0.3602 -0.0246
  154DPPC   C3B 1847  19.729   1.668  16.948 -0.1644 -0.0582  0.1374
  154DPPC   C4B 1848  19.766   1.683  17.421  0.2770 -0.1155 -0.1960
  155DPPC   NC3 1849  13.611   2.897  15.863  0.2582  0.1669 -0.1386
  155DPPC   PO4 1850  13.458   2.914  16.257 -0.0030  0.0325 -0.1799
  155DPPC   GL1 1851  13.158   2.635  16.390 -0.2519  0.0556  0.3086
  155DPPC   GL2 1852  13.446   2.486  16.552  0.0337 -0.3125 -0.1305
  155DPPC   C1A 1853  12.970   2.686  16.688  0.0114  0.4200 -0.0130
  155DPPC   C2A 1854  12.974   2.574  17.093 -0.1853  0.2066 -0.2736
  155DPPC   C3A 1855  13.011   2.594  17.603  0.1960  0.0523 -0.0615
  155DPPC   C4A 1856  13.028   2.553  18.030 -0.2682  0.1161  0.0613
  155DPPC   C1B 1857  13.481   2.453  16.883 -0.2429  0.1256 -0.1014
  155DPPC   C2B 1858  13.496   2.446  17.343 -0.0333  0.1720  0.2103
  155DPPC   C3B 1859  13.507   2.460  17.808  0.0037  0.1477 -0.2561
  155DPPC   C4B 1860  13.439   2.488  18.262  0.0049  0.0800  0.0493
  156DPPC   NC3 1861  20.257   6.299  15.519 -0.0856  0.2780  0.0367
  156DPPC   PO4 1862  19.954   6.097  15.502  0.1220 -0.0641 -0.0485
  156DPPC   GL1 1863  19.940   6.133  15.893 -0.0158 -0.1733  0.2574
  156DPPC   GL2 1864  19.989   6.364  15.932 -0.3419 -0.2817 -0.2320
  156DPPC   C1A 1865  19.963   5.966  16.232 -0.0213 -0.0536  0.4133
  156DPPC   C2A 1866  20.085   5.924  16.659  0.2939  0.2440  0.0207
  156DPPC   C3A 1867  20.051   6.001  17.124  0.0918 -0.0086 -0.0407
  156DPPC   C4A 1868  20.039   6.084  17.555 -0.0859 -0.4167  0.1234
  156DPPC   C1B 1869  19.969   6.437  16.243 -0.1423 -0.3499 -0.1312
  156DPPC   C2B 1870  19.978   6.483  16.639 -0.1740 -0.1561 -0.0989
  156DPPC   C3B 1871  19.883   6.514  17.139 -0.0130 -0.4470 -0.0717
  156DPPC   C4B 1872  19.794   6.523  17.641  0.1807 -0.1978 -0.0587
  157DPPC   NC3 1873  18.976   3.532  15.610 -0.0208 -0.0251 -0.2512
  157DPPC   PO4 1874  19.102   3.879  15.563 -0.0222 -0.1562  0.2338
  157DPPC   GL1 1875  19.280   3.818  16.024 -0.1579  0.1578 -0.2094
  157DPPC   GL2 1876  19.088   3.655  16.024 -0.2029 -0.1495  0.1624
  157DPPC   C1A 1877  19.331   3.945  16.339 -0.0622  0.0881 -0.1173
  157DPPC   C2A 1878  19.400   4.035  16.698 -0.1132 -0.0867  0.2071
  157DPPC   C3A 1879  19.462   4.000  17.158  0.2429  0.1936 -0.2563
  157DPPC   C4A 1880  19.412   3.877  17.632  0.0127  0.0690  0.4863
  157DPPC   C1B 1881  19.024   3.591  16.363  0.3158 -0.2097  0.2442
  157DPPC   C2B 1882  19.054   3.628  16.739 -0.0291 -0.1926  0.2693
  157DPPC   C3B 1883  19.073   3.650  17.258 -0.0483  0.1637 -0.5837
  157DPPC   C4B 1884  19.012   3.622  17.770  0.1264 -0.0922 -0.1914
  158DPPC   NC3 1885  14.913   2.022  15.814 -0.1288 -0.1343  0.0115
  158DPPC   PO4 1886  14.510   1.914  15.912 -0.3587  0.1440  0.4244
  158DPPC   GL1 1887  14.377   1.919  16.333  0.0447 -0.3566 -0.0106
  158DPPC   GL2 1888  14.113   1.901  16.436  0.0123  0.0989  0.4395
  158DPPC   C1A 1889  14.501   1.864  16.643  0.2568 -0.1404  0.0240
  158DPPC   C2A 1890  14.686   1.795  16.963 -0.2102 -0.0343  0.2617
  158DPPC   C3A 1891  14.658   1.877  17.401 -0.1639 -0.0845  0.0472
  158DPPC   C4A 1892  14.736   1.794  17.880  0.0910  0.0740 -0.0161
  158DPPC   C1B 1893  14.046   1.946  16.776  0.1876 -0.1244  0.1670
  158DPPC   C2B 1894  14.159   1.937  17.199 -0.0815  0.1164 -0.0182
  158DPPC   C3B 1895  14.194   1.887  17.703 -0.0601  0.0479 -0.0558
  158DPPC   C4B 1896  14.238   1.882  18.142 -0.1243  0.1295  0.0819
  159DPPC   NC3 1897  13.259   2.541  15.964  0.0273 -0.1624  0.1940
  159DPPC   PO4 1898  13.456   2.216  16.078 -0.0886  0.0142  0.3713
  159DPPC   GL1 1899  13.378   2.053  16.388  0.2088  0.0460 -0.0148
  159DPPC   GL2 1900  13.237   1.837  16.513 -0.5616 -0.2116 -0.3694
  159DPPC   C1A 1901  13.525   2.045  16.715 -0.1192  0.0092 -0.3408
  159DPPC   C2A 1902  13.680   2.039  17.088  0.0091 -0.1153  0.0031
  159DPPC   C3A 1903  13.694   2.030  17.594  0.2985 -0.0507 -0.0264
  159DPPC   C4A 1904  13.675   2.000  18.093  0.2276  0.0036 -0.0678
  159DPPC   C1B 1905  13.320   1.683  16.862 -0.0492  0.1608  0.2682
  159DPPC   C2B 1906  13.308   1.685  17.289 -0.0350  0.0787 -0.2260
  159DPPC   C3B 1907  13.287   1.571  17.792 -0.2987 -0.0854 -0.1220
  159DPPC   C4B 1908  13.320   1.530  18.327  0.0828  0.1000  0.1564
  160DPPC   NC3 1909  17.572   3.027  15.990  0.1487 -0.1569  0.3066
  160DPPC   PO4 1910  17.831   2.847  15.725 -0.1407  0.2021  0.2422
  160DPPC   GL1 1911  18.045   3.152  16.041  0.1587  0.0754  0.0253
  160DPPC   GL2 1912  17.942   2.910  16.200  0.2392  0.0806  0.4131
  160DPPC   C1A 1913  18.190   3.289  16.342 -0.2007  0.0001 -0.2458
  160DPPC   C2A 1914  18.322   3.275  16.730  0.3127 -0.0904 -0.1386
  160DPPC   C3A 1915  18.318   3.369  17.210 -0.1262  0.0001  0.0655
  160DPPC   C4A 1916  18.292   3.379  17.689 -0.1967 -0.1733  0.0137
  160DPPC   C1B 1917  17.965   2.822  16.533 -0.2002 -0.1920  0.2033
  160DPPC   C2B 1918  17.981   2.944  16.923  0.0374 -0.1006 -0.0358
  160DPPC   C3B 1919  18.006   2.934  17.396 -0.0845 -0.1432  0.2073
  160DPPC   C4B 1920  17.981   2.992  17.896 -0.2456 -0.0458  0.2607
  161DPPC   NC3 1921  15.533   0.816  15.825  0.2425 -0.3766  0.1484
  161DPPC   PO4 1922  15.151   0.723  15.860 -0.0874  0.0687  0.2109
  161DPPC   GL1 1923  15.198   0.409  16.199  0.1799 -0.1385  0.3188
  161DPPC   GL2 1924  14.900   0.574  16.314  0.2725 -0.3369  0.2067
  161DPPC   C1A 1925  15.245   0.427  16.559  0.0909 -0.2500  0.1466
  161DPPC   C2A 1926  15.254   0.462  17.004 -0.0143  0.1710 -0.0283
  161DPPC   C3A 1927  15.175   0.423  17.449 -0.2183  0.3039  0.1681
  161DPPC   C4A 1928  15.184   0.349  17.893  0.1613 -0.0701  0.0533
  161DPPC   C1B 1929  14.816   0.557  16.703  0.3520  0.0032 -0.2814
  161DPPC   C2B 1930  14.726   0.526  17.086 -0.0321 -0.1048 -0.0819
  161DPPC   C3B 1931  14.690   0.503  17.566 -0.3323  0.2170 -0.1155
  161DPPC   C4B 1932  14.657   0.506  18.018 -0.1002  0.0874 -0.2153
  162DPPC   NC3 1933  15.730   3.878  15.999  0.2496 -0.0486 -0.0900
  162DPPC   PO4 1934  15.433   3.663  16.098 -0.1189  0.0667  0.1838
  162DPPC   GL1 1935  15.214   3.595  16.482 -0.2954  0.3031  0.1378
  162DPPC   GL2 1936  15.293   3.370  16.567  0.0621  0.3339  0.2271
  162DPPC   C1A 1937  15.233   3.847  16.721 -0.2743 -0.1222 -0.1469
  162DPPC   C2A 1938  15.283   3.879  17.101  0.0732  0.0470  0.0469
  162DPPC   C3A 1939  15.298   3.963  17.574 -0.0334 -0.1998 -0.3516
  162DPPC   C4A 1940  15.294   4.004  18.092  0.2039 -0.1181  0.0488
  162DPPC   C1B 1941  15.363   3.424  16.906 -0.0088 -0.2880  0.1509
  162DPPC   C2B 1942  15.507   3.438  17.327  0.0896 -0.0019 -0.1760
  162DPPC   C3B 1943  15.519   3.371  17.802  0.2564  0.1512  0.1943
  162DPPC   C4B 1944  15.437   3.472  18.313 -0.1692 -0.2013 -0.1148
  163DPPC   NC3 1945  15.904   4.314  16.142  0.0841  0.3218 -0.0194
  163DPPC   PO4 1946  15.713   4.621  16.018 -0.0907  0.2417 -0.0228
  163DPPC   GL1 1947  15.477   4.922  16.261  0.0236 -0.0536  0.1196
  163DPPC   GL2 1948  15.410   4.630  16.441  0.0938 -0.4093  0.1114
  163DPPC   C1A 1949  15.410   5.126  16.496 -0.1943 -0.2008  0.2736
  163DPPC   C2A 1950  15.380   5.234  16.844  0.0612  0.0556 -0.1181
  163DPPC   C3A 1951  15.360   5.191  17.374  0.3286 -0.1260  0.1350
  163DPPC   C4A 1952  15.302   5.120  17.871 -0.0999  0.2240 -0.1677
  163DPPC   C1B 1953  15.444   4.694  16.784  0.0646 -0.2044  0.0965
  163DPPC   C2B 1954  15.494   4.706  17.178  0.2187  0.0295 -0.2351
  163DPPC   C3B 1955  15.483   4.696  17.635  0.2289 -0.0669 -0.0546
  163DPPC   C4B 1956  15.459   4.636  18.157  0.0407  0.0010  0.2032
  164DPPC   NC3 1957  16.384   5.020  15.701  0.0549  0.2498  0.3071
  164DPPC   PO4 1958  16.268   4.671  15.873 -0.1214  0.1924  0.0466
  164DPPC   GL1 1959  16.242   4.606  16.239  0.0976  0.1770  0.0985
  164DPPC   GL2 1960  16.066   4.702  16.378  0.2262 -0.1603 -0.3048
  164DPPC   C1A 1961  16.430   4.512  16.467  0.0116  0.0235 -0.1744
  164DPPC   C2A 1962  16.489   4.520  16.858  0.0587 -0.3914 -0.0589
  164DPPC   C3A 1963  16.459   4.538  17.361 -0.0729  0.1150 -0.1825
  164DPPC   C4A 1964  16.486   4.564  17.877 -0.3397  0.2552  0.0268
  164DPPC   C1B 1965  16.047   4.592  16.737  0.2885  0.2408 -0.1952
  164DPPC   C2B 1966  15.960   4.556  17.157 -0.0431  0.1164  0.2704
  164DPPC   C3B 1967  15.987   4.573  17.617 -0.1190  0.0011  0.4236
  164DPPC   C4B 1968  16.014   4.651  18.145  0.2079 -0.0302 -0.3151
  165DPPC   NC3 1969  18.178   0.703  15.144 -0.2485  0.0184 -0.1209
  165DPPC   PO4 1970  18.446   0.532  15.383 -0.1254  0.0341 -0.0864
  165DPPC   GL1 1971  18.404   0.600  15.821  0.0566  0.0649 -0.2586
  165DPPC   GL2 1972  18.591   0.420  15.849  0.0872 -0.3743  0.2632
  165DPPC   C1A 1973  18.367   0.853  16.112  0.0979  0.1404  0.3597
  165DPPC   C2A 1974  18.282   0.769  16.525  0.0353 -0.0710 -0.2320
  165DPPC   C3A 1975  18.217   0.667  16.968  0.1146 -0.3938  0.0255
  165DPPC   C4A 1976  18.247   0.627  17.497  0.0580  0.3435 -0.0400
  165DPPC   C1B 1977  18.850   0.286  16.108 -0.3033  0.2402  0.1730
  165DPPC   C2B 1978  18.944   0.096  16.449  0.2217 -0.0385  0.4772
  165DPPC   C3B 1979  18.956   0.119  16.925  0.1618 -0.1433 -0.0081
  165DPPC   C4B 1980  18.881   0.155  17.393 -0.0348  0.1641  0.0801
  166DPPC   NC3 1981  15.001   5.814  15.979 -0.1269  0.0855  0.3007
  166DPPC   PO4 1982  14.626   5.677  15.926  0.1713 -0.0825 -0.0157
  166DPPC   GL1 1983  14.667   5.522  16.321  0.0240  0.3007  0.1195
  166DPPC   GL2 1984  14.504   5.285  16.294 -0.0198  0.1242 -0.0752
  166DPPC   C1A 1985  14.501   5.528  16.649  0.0009 -0.1599  0.1766
  166DPPC   C2A 1986  14.364   5.489  17.078 -0.0450 -0.2317  0.0082
  166DPPC   C3A 1987  14.351   5.407  17.561 -0.1286  0.0606  0.2479
  166DPPC   C4A 1988  14.369   5.355  18.063 -0.2078  0.1110  0.1278
  166DPPC   C1B 1989  14.557   4.949  16.469 -0.1767 -0.2042  0.3298
  166DPPC   C2B 1990  14.525   4.934  16.842  0.0667 -0.0460 -0.0642
  166DPPC   C3B 1991  14.458   4.964  17.335 -0.0720 -0.3733  0.1805
  166DPPC   C4B 1992  14.459   5.002  17.785 -0.1974 -0.0512 -0.2315
  167DPPC   NC3 1993  15.980   5.035  16.024  0.0247  0.1436 -0.1197
  167DPPC   PO4 1994  16.026   5.348  15.768  0.0432  0.5142  0.2154
  167DPPC   GL1 1995  16.010   5.605  16.030  0.1175  0.1636  0.1448
  167DPPC   GL2 1996  16.299   5.713  15.838  0.1152 -0.2758 -0.0580
  167DPPC   C1A 1997  16.080   5.578  16.369  0.3039 -0.0274 -0.0577
  167DPPC   C2A 1998  16.114   5.491  16.778  0.3232  0.0539  0.1838
  167DPPC   C3A 1999  16.179   5.460  17.203 -0.1265  0.0121  0.0352
  167DPPC   C4A 2000  16.308   5.467  17.678 -0.1268  0.0880  0.0274
  167DPPC   C1B 2001  16.489   5.748  16.158  0.1131  0.1371 -0.1428
  167DPPC   C2B 2002  16.456   5.916  16.542  0.0263  0.1973 -0.0382
  167DPPC   C3B 2003  16.429   5.890  16.963  0.1881 -0.0386 -0.2455
  167DPPC   C4B 2004  16.485   5.895  17.434 -0.0384  0.1269 -0.0478
  168DPPC   NC3 2005  19.515   3.044  15.920 -0.2182  0.1763 -0.2097
  168DPPC   PO4 2006  19.473   3.429  15.816 -0.3017 -0.2910 -0.2894
  168DPPC   GL1 2007  19.700   3.728  16.157  0.2947  0.4068 -0.1541
  168DPPC   GL2 2008  19.805   3.494  16.171  0.2112  0.2862  0.1044
  168DPPC   C1A 2009  19.793   3.849  16.486 -0.2402  0.0426  0.2224
  168DPPC   C2A 2010  19.912   3.913  16.808 -0.2828 -0.1874 -0.2317
  168DPPC   C3A 2011  19.957   3.944  17.266 -0.1438 -0.4127  0.0220
  168DPPC   C4A 2012  19.914   3.852  17.710 -0.0768  0.0887 -0.1031
  168DPPC   C1B 2013  19.791   3.222  16.357 -0.0442  0.2191 -0.5685
  168DPPC   C2B 2014  19.713   3.124  16.753 -0.1265  0.3225 -0.1402
  168DPPC   C3B 2015  19.741   3.081  17.245  0.2877  0.2130  0.0066
  168DPPC   C4B 2016  19.739   2.998  17.696 -0.1588  0.1875  0.0852
  169DPPC   NC3 2017  17.456   3.692  15.716 -0.0755 -0.2048  0.1545
  169DPPC   PO4 2018  17.718   3.470  15.927  0.1115 -0.2175  0.1019
  169DPPC   GL1 2019  17.659   3.396  16.261 -0.1037  0.2274  0.0659
  169DPPC   GL2 2020  17.527   3.202  16.413  0.0422  0.0788 -0.3533
  169DPPC   C1A 2021  17.839   3.395  16.599  0.1359 -0.2865 -0.0154
  169DPPC   C2A 2022  17.826   3.396  16.999 -0.0174 -0.2448  0.0518
  169DPPC   C3A 2023  17.779   3.424  17.454  0.1767 -0.2317 -0.1022
  169DPPC   C4A 2024  17.759   3.413  17.923 -0.0738  0.0169  0.0087
  169DPPC   C1B 2025  17.533   3.057  16.766  0.1713 -0.1102 -0.1547
  169DPPC   C2B 2026  17.539   3.049  17.199 -0.0247 -0.0723  0.0673
  169DPPC   C3B 2027  17.558   3.017  17.674  0.1717 -0.4438 -0.1530
  169DPPC   C4B 2028  17.500   2.983  18.144 -0.0911 -0.3183  0.2566
  170DPPC   NC3 2029  14.756   0.445  15.700 -0.0317 -0.0806  0.1779
  170DPPC   PO4 2030  14.713   0.072  15.665 -0.1292 -0.2008 -0.0951
  170DPPC   GL1 2031  14.968   0.006  16.000 -0.3029 -0.0432 -0.2882
  170DPPC   GL2 2032  14.870   0.211  16.097  0.0060 -0.1367  0.4047
  170DPPC   C1A 2033  15.214  -0.033  16.246  0.1405 -0.1789  0.5065
  170DPPC   C2A 2034  15.335  -0.047  16.627 -0.0819 -0.1412 -0.0522
  170DPPC   C3A 2035  15.367  -0.049  17.109  0.0585 -0.2050  0.0639
  170DPPC   C4A 2036  15.348  -0.038  17.629  0.1464  0.2941  0.4139
  170DPPC   C1B 2037  14.878   0.096  16.484 -0.0049 -0.2353 -0.0924
  170DPPC   C2B 2038  14.862   0.102  16.875 -0.2303 -0.1950  0.2523
  170DPPC   C3B 2039  14.887   0.041  17.320 -0.1430 -0.0272  0.0795
  170DPPC   C4B 2040  14.816   0.020  17.836 -0.1922  0.2004  0.0312
  171DPPC   NC3 2041  14.241   4.054  15.694 -0.0859 -0.1107  0.1339
  171DPPC   PO4 2042  14.375   3.744  15.914 -0.0714  0.0547 -0.3449
  171DPPC   GL1 2043  14.421   3.715  16.283 -0.1452 -0.0553 -0.1713
  171DPPC   GL2 2044  14.682   3.580  16.147  0.0010 -0.2634 -0.3391
  171DPPC   C1A 2045  14.452   3.657  16.664  0.0798 -0.0216  0.0107
  171DPPC   C2A 2046  14.492   3.536  17.094  0.1302  0.1709 -0.0215
  171DPPC   C3A 2047  14.433   3.569  17.551 -0.2362 -0.1895 -0.1598
  171DPPC   C4A 2048  14.563   3.700  17.993  0.1977  0.0085 -0.0410
  171DPPC   C1B 2049  14.815   3.498  16.457 -0.0171 -0.0821 -0.0775
  171DPPC   C2B 2050  14.930   3.575  16.866 -0.3531  0.1454 -0.1672
  171DPPC   C3B 2051  14.983   3.510  17.360  0.0830 -0.2052 -0.1372
  171DPPC   C4B 2052  15.024   3.652  17.817 -0.0176 -0.2225  0.0367
  172DPPC   NC3 2053  16.707   4.132  15.626 -0.0751  0.1686 -0.1190
  172DPPC   PO4 2054  17.037   3.907  15.591  0.2184 -0.0167 -0.2237
  172DPPC   GL1 2055  17.069   3.803  16.059 -0.2708  0.0196 -0.0514
  172DPPC   GL2 2056  16.824   3.871  16.075  0.0815  0.1132  0.2838
  172DPPC   C1A 2057  17.147   3.987  16.379  0.1647  0.2743 -0.0865
  172DPPC   C2A 2058  17.187   4.037  16.798  0.1250 -0.0124 -0.3789
  172DPPC   C3A 2059  17.225   4.006  17.279 -0.0282  0.2245 -0.1971
  172DPPC   C4A 2060  17.156   3.962  17.772 -0.1284 -0.2224  0.5711
  172DPPC   C1B 2061  16.690   3.995  16.386 -0.2477  0.1714  0.0901
  172DPPC   C2B 2062  16.608   4.008  16.757 -0.2219  0.1024 -0.3357
  172DPPC   C3B 2063  16.679   4.053  17.216  0.0268 -0.1141  0.1133
  172DPPC   C4B 2064  16.700   4.114  17.675 -0.0407  0.0700  0.0507
  173DPPC   NC3 2065  20.179   3.785  16.022  0.1833 -0.0492 -0.0862
  173DPPC   PO4 2066  20.473   3.955  15.884  0.0955 -0.2167 -0.0346
  173DPPC   GL1 2067  20.648   3.931  16.207  0.1427 -0.1380 -0.4531
  173DPPC   GL2 2068  20.911   4.076  16.167 -0.0194  0.3238  0.1519
  173DPPC   C1A 2069  20.478   3.772  16.519 -0.0756  0.0865 -0.0740
  173DPPC   C2A 2070  20.436   3.818  16.933  0.0159  0.1226 -0.1236
  173DPPC   C3A 2071  20.413   3.712  17.391  0.1488  0.0170 -0.0422
  173DPPC   C4A 2072  20.367   3.635  17.887  0.0235 -0.1174 -0.0856
  173DPPC   C1B 2073  20.886   4.093  16.538 -0.1203  0.2309  0.0720
  173DPPC   C2B 2074  20.810   4.132  16.982  0.0637  0.1665  0.0960
  173DPPC   C3B 2075  20.800   4.103  17.433  0.0294  0.1952  0.0373
  173DPPC   C4B 2076  20.803   4.191  17.862  0.3319  0.1597  0.1546
  174DPPC   NC3 2077  19.508   4.908  15.782  0.2778 -0.1262  0.0737
  174DPPC   PO4 2078  19.763   4.977  15.545 -0.4052  0.1099 -0.2023
  174DPPC   GL1 2079  19.961   5.146  15.856 -0.0241  0.0238 -0.0473
  174DPPC   GL2 2080  19.907   4.952  16.065 -0.3710 -0.1618  0.1205
  174DPPC   C1A 2081  19.871   5.404  16.109 -0.4139  0.2188 -0.0667
  174DPPC   C2A 2082  19.837   5.570  16.476  0.0706 -0.2654 -0.2757
  174DPPC   C3A 2083  19.723   5.662  16.933 -0.0494 -0.2374 -0.0545
  174DPPC   C4A 2084  19.674   5.608  17.436 -0.1590 -0.0577  0.0252
  174DPPC   C1B 2085  19.645   5.075  16.297 -0.0261  0.1424 -0.3526
  174DPPC   C2B 2086  19.497   5.299  16.620 -0.0245  0.0452  0.1310
  174DPPC   C3B 2087  19.375   5.395  17.054  0.1514  0.0080  0.0116
  174DPPC   C4B 2088  19.345   5.277  17.491  0.0284  0.0822  0.2337
  175DPPC   NC3 2089  15.060   3.291  16.072 -0.1438 -0.1829  0.1346
  175DPPC   PO4 2090  15.433   3.198  15.952  0.2953 -0.0026 -0.0378
  175DPPC   GL1 2091  15.619   3.142  16.307 -0.1797 -0.3005 -0.0930
  175DPPC   GL2 2092  15.666   3.436  16.431 -0.1550  0.1119  0.0170
  175DPPC   C1A 2093  15.499   2.985  16.604  0.1762  0.0850  0.2638
  175DPPC   C2A 2094  15.637   2.858  16.954  0.1926  0.1022  0.2922
  175DPPC   C3A 2095  15.661   2.910  17.372  0.1571 -0.2617 -0.1869
  175DPPC   C4A 2096  15.663   2.896  17.929 -0.3234 -0.0809  0.2436
  175DPPC   C1B 2097  15.829   3.366  16.756  0.1372  0.0267 -0.0346
  175DPPC   C2B 2098  15.950   3.294  17.183  0.0758  0.0817 -0.0176
  175DPPC   C3B 2099  15.976   3.242  17.683  0.1670 -0.1308  0.2481
  175DPPC   C4B 2100  16.038   3.202  18.190  0.4016  0.1271 -0.1144
  176DPPC   NC3 2101  18.926   2.124  15.738  0.1252  0.1603  0.2006
  176DPPC   PO4 2102  18.586   2.317  15.779  0.2101 -0.0141 -0.0261
  176DPPC   GL1 2103  18.466   2.161  16.182  0.0164  0.0749  0.0483
  176DPPC   GL2 2104  18.728   2.076  16.162 -0.0050  0.1636  0.2590
  176DPPC   C1A 2105  18.492   2.275  16.534 -0.0227 -0.1601 -0.0805
  176DPPC   C2A 2106  18.581   2.285  16.945  0.1146 -0.0312 -0.1550
  176DPPC   C3A 2107  18.708   2.416  17.396 -0.0407 -0.4792 -0.1219
  176DPPC   C4A 2108  18.638   2.405  17.876 -0.0263 -0.1646 -0.1153
  176DPPC   C1B 2109  18.806   1.912  16.452  0.2462  0.3912  0.2555
  176DPPC   C2B 2110  18.707   1.851  16.836  0.3298  0.0033 -0.2834
  176DPPC   C3B 2111  18.797   1.853  17.292  0.0441  0.1290 -0.0397
  176DPPC   C4B 2112  18.802   1.854  17.765  0.3346 -0.2707  0.2334
  177DPPC   NC3 2113  20.159   0.298  15.649 -0.0997  0.1207  0.3456
  177DPPC   PO4 2114  20.442   0.597  15.540  0.0829  0.2016  0.0051
  177DPPC   GL1 2115  20.662   0.537  15.848  0.0541 -0.5769  0.3903
  177DPPC   GL2 2116  20.507   0.459  16.055  0.4037 -0.1995  0.2846
  177DPPC   C1A 2117  20.928   0.608  16.086  0.0536  0.2782 -0.0953
  177DPPC   C2A 2118  21.087   0.492  16.407  0.0261  0.0835 -0.1256
  177DPPC   C3A 2119  21.090   0.511  16.926  0.1122  0.2447  0.0611
  177DPPC   C4A 2120  21.087   0.465  17.410  0.0215  0.1110 -0.0737
  177DPPC   C1B 2121  20.569   0.551  16.391 -0.1581 -0.2334 -0.2550
  177DPPC   C2B 2122  20.610   0.575  16.778  0.1579 -0.0650  0.1124
  177DPPC   C3B 2123  20.506   0.634  17.232 -0.4471  0.2054  0.3373
  177DPPC   C4B 2124  20.576   0.649  17.666  0.2176 -0.1386  0.1922
  178DPPC   NC3 2125  18.610   6.234  15.308 -0.1166 -0.2100  0.2292
  178DPPC   PO4 2126  18.750   5.908  15.426  0.1142  0.1608  0.0493
  178DPPC   GL1 2127  18.716   5.882  15.872 -0.1515 -0.2119 -0.7080
  178DPPC   GL2 2128  18.594   6.176  15.800 -0.2195  0.2966 -0.3187
  178DPPC   C1A 2129  18.884   5.768  16.167 -0.0105  0.1852  0.3083
  178DPPC   C2A 2130  18.809   5.867  16.618  0.0396 -0.1847  0.2689
  178DPPC   C3A 2131  18.740   5.928  17.076  0.1057 -0.1061  0.1920
  178DPPC   C4A 2132  18.708   5.911  17.566  0.0609 -0.3300 -0.0622
  178DPPC   C1B 2133  18.509   6.410  16.020  0.3134  0.1791 -0.0052
  178DPPC   C2B 2134  18.455   6.721  16.257 -0.2361  0.2285  0.0703
  178DPPC   C3B 2135  18.462   6.822  16.746  0.1075  0.0960 -0.2007
  178DPPC   C4B 2136  18.400   6.822  17.232 -0.0272  0.0708 -0.2035
  179DPPC   NC3 2137  16.763   0.323  15.989  0.1903  0.2600 -0.4172
  179DPPC   PO4 2138  16.598   0.592  15.779  0.3506  0.1903  0.3989
  179DPPC   GL1 2139  16.565   0.693  16.135 -0.1004  0.3814 -0.3148
  179DPPC   GL2 2140  16.230   0.652  16.217  0.0163 -0.2966  0.4807
  179DPPC   C1A 2141  16.587   0.544  16.498 -0.2817  0.0238  0.3395
  179DPPC   C2A 2142  16.522   0.641  16.899 -0.0283  0.0611 -0.1678
  179DPPC   C3A 2143  16.504   0.566  17.425 -0.0184 -0.0877  0.1482
  179DPPC   C4A 2144  16.363   0.591  17.903  0.0313  0.2531  0.2120
  179DPPC   C1B 2145  16.117   0.657  16.549 -0.1111  0.3298 -0.2699
  179DPPC   C2B 2146  16.036   0.650  16.959  0.0749 -0.0663  0.0761
  179DPPC   C3B 2147  15.962   0.630  17.492  0.2079 -0.0362  0.1244
  179DPPC   C4B 2148  15.894   0.684  17.957  0.2064 -0.2171  0.2268
  180DPPC   NC3 2149  15.353   2.747  16.095 -0.0090 -0.1143  0.0996
  180DPPC   PO4 2150  15.204   2.372  16.062  0.4060 -0.1720 -0.2635
  180DPPC   GL1 2151  15.134   2.446  16.423  0.2895  0.0019 -0.1162
  180DPPC   GL2 2152  15.229   2.158  16.487 -0.0279  0.0081  0.1792
  180DPPC   C1A 2153  15.128   2.609  16.794 -0.3651 -0.1848  0.1734
  180DPPC   C2A 2154  15.278   2.615  17.171  0.1127  0.1979  0.1360
  180DPPC   C3A 2155  15.350   2.589  17.656  0.3088 -0.2053  0.0397
  180DPPC   C4A 2156  15.329   2.531  18.165  0.2430 -0.0230  0.2260
  180DPPC   C1B 2157  15.079   2.176  16.784 -0.0761  0.4652  0.1145
  180DPPC   C2B 2158  14.903   2.206  17.153 -0.2471 -0.1477 -0.1023
  180DPPC   C3B 2159  15.062   2.175  17.637  0.0186 -0.1128 -0.2544
  180DPPC   C4B 2160  15.036   2.121  18.133  0.0254  0.1397  0.0162
  181DPPC   NC3 2161  20.262   1.809  15.355 -0.0731 -0.1453  0.0330
  181DPPC   PO4 2162  20.010   1.632  15.558  0.1629  0.3193  0.0055
  181DPPC   GL1 2163  19.790   1.411  15.942  0.0440 -0.1020 -0.0065
  181DPPC   GL2 2164  19.984   1.641  16.023 -0.2904  0.1218 -0.4625
  181DPPC   C1A 2165  19.775   1.373  16.296  0.1346  0.3020 -0.1371
  181DPPC   C2A 2166  19.854   1.168  16.657 -0.1281  0.0601  0.0640
  181DPPC   C3A 2167  19.886   1.241  17.131  0.0329 -0.2141 -0.1066
  181DPPC   C4A 2168  19.894   1.171  17.579  0.2333  0.1810  0.0613
  181DPPC   C1B 2169  20.075   1.857  16.330  0.1122 -0.0760  0.1987
  181DPPC   C2B 2170  20.054   2.110  16.696 -0.2145 -0.1980  0.1359
  181DPPC   C3B 2171  20.001   2.046  17.146  0.1192  0.0830 -0.1267
  181DPPC   C4B 2172  20.037   1.980  17.641 -0.1469  0.0992  0.3123
  182DPPC   NC3 2173  16.828   6.069  15.093  0.0787 -0.0637  0.3265
  182DPPC   PO4 2174  16.834   6.277  15.434  0.0905  0.1426  0.0187
  182DPPC   GL1 2175  17.069   6.198  15.800  0.1994 -0.0768  0.1256
  182DPPC   GL2 2176  16.933   6.459  15.914 -0.1303  0.1876  0.0908
  182DPPC   C1A 2177  17.207   6.068  16.124 -0.1527 -0.1527  0.2687
  182DPPC   C2A 2178  17.263   6.083  16.523 -0.0165 -0.2400 -0.0319
  182DPPC   C3A 2179  17.279   6.106  16.984 -0.1249 -0.3582 -0.3377
  182DPPC   C4A 2180  17.255   6.097  17.478 -0.2234  0.1617 -0.1407
  182DPPC   C1B 2181  16.935   6.563  16.204 -0.0943  0.0103  0.2919
  182DPPC   C2B 2182  16.718   6.610  16.521 -0.2450 -0.2949 -0.1238
  182DPPC   C3B 2183  16.616   6.704  16.989  0.0092  0.0844  0.1005
  182DPPC   C4B 2184  16.552   6.627  17.463 -0.0668 -0.0637 -0.3478
  183DPPC   NC3 2185  17.369   4.233  15.356 -0.2717  0.0972 -0.1091
  183DPPC   PO4 2186  17.270   4.525  15.590  0.2593 -0.3939 -0.5098
  183DPPC   GL1 2187  17.341   4.896  15.895  0.2302 -0.0020 -0.2443
  183DPPC   GL2 2188  17.243   4.745  16.125  0.1715 -0.0797  0.0112
  183DPPC   C1A 2189  17.649   4.902  16.155  0.2552 -0.0248 -0.0924
  183DPPC   C2A 2190  17.841   4.803  16.511 -0.2699 -0.1038 -0.0651
  183DPPC   C3A 2191  17.833   4.749  17.032  0.3248  0.1846  0.2041
  183DPPC   C4A 2192  17.768   4.702  17.520 -0.1964  0.0091 -0.1184
  183DPPC   C1B 2193  17.369   4.780  16.478 -0.2891 -0.0364  0.6382
  183DPPC   C2B 2194  17.319   4.799  16.889 -0.2602 -0.1428  0.0008
  183DPPC   C3B 2195  17.255   4.833  17.386 -0.0009 -0.1338  0.2651
  183DPPC   C4B 2196  17.255   4.801  17.860  0.2546  0.0519 -0.1772
  184DPPC   NC3 2197  14.345   1.277  16.045 -0.1910  0.1691  0.4652
  184DPPC   PO4 2198  14.110   1.580  16.132 -0.0066 -0.1231 -0.0872
  184DPPC   GL1 2199  14.156   1.462  16.542 -0.2669 -0.0888  0.0086
  184DPPC   GL2 2200  13.863   1.545  16.583 -0.1287  0.0705 -0.1176
  184DPPC   C1A 2201  14.279   1.491  16.921 -0.1143 -0.0846 -0.1959
  184DPPC   C2A 2202  14.379   1.505  17.322  0.1341  0.0023 -0.0098
  184DPPC   C3A 2203  14.384   1.444  17.822  0.0704 -0.4475 -0.0154
  184DPPC   C4A 2204  14.314   1.427  18.331  0.2337 -0.4253  0.1780
  184DPPC   C1B 2205  13.830   1.617  16.953  0.1371  0.1489 -0.2834
  184DPPC   C2B 2206  13.892   1.583  17.383 -0.1925 -0.0156 -0.0057
  184DPPC   C3B 2207  13.852   1.622  17.841 -0.2645  0.2997  0.0969
  184DPPC   C4B 2208  13.828   1.564  18.348 -0.2303 -0.1637  0.3020
  185DPPC   NC3 2209  17.003   3.443  15.371 -0.2342  0.1799 -0.3239
  185DPPC   PO4 2210  17.164   3.162  15.615  0.0110  0.0087 -0.0345
  185DPPC   GL1 2211  17.241   3.361  16.086 -0.1648 -0.1557 -0.0353
  185DPPC   GL2 2212  17.128   3.120  16.164 -0.0803 -0.1100 -0.2142
  185DPPC   C1A 2213  17.273   3.498  16.394 -0.0896  0.0048 -0.0733
  185DPPC   C2A 2214  17.322   3.512  16.793 -0.0615 -0.0013  0.1256
  185DPPC   C3A 2215  17.304   3.479  17.229  0.1455 -0.0493  0.2281
  185DPPC   C4A 2216  17.343   3.508  17.671  0.2061 -0.1603 -0.2189
  185DPPC   C1B 2217  17.044   3.069  16.496 -0.0610 -0.1276 -0.0701
  185DPPC   C2B 2218  16.959   3.112  16.876  0.0853  0.0527  0.2780
  185DPPC   C3B 2219  16.969   3.133  17.374  0.1193 -0.2740 -0.3624
  185DPPC   C4B 2220  17.074   3.094  17.891  0.0019 -0.2167 -0.0722
  186DPPC   NC3 2221  17.404   2.711  15.584 -0.0732 -0.0338 -0.1821
  186DPPC   PO4 2222  17.206   2.702  15.929  0.1062 -0.0624 -0.0822
  186DPPC   GL1 2223  17.220   2.536  16.300 -0.2620 -0.0527 -0.2161
  186DPPC   GL2 2224  17.288   2.246  16.263  0.3193  0.0002 -0.1030
  186DPPC   C1A 2225  17.170   2.672  16.674 -0.1246  0.0679 -0.1187
  186DPPC   C2A 2226  17.147   2.673  17.079  0.1430 -0.1412  0.3181
  186DPPC   C3A 2227  17.175   2.682  17.611 -0.1318 -0.1020 -0.2259
  186DPPC   C4A 2228  17.223   2.551  18.065  0.0330  0.1659  0.1357
  186DPPC   C1B 2229  17.342   2.223  16.630 -0.1909  0.0086 -0.0324
  186DPPC   C2B 2230  17.303   2.180  17.042  0.2518 -0.0705  0.2057
  186DPPC   C3B 2231  17.308   2.171  17.506 -0.2527 -0.0361 -0.0213
  186DPPC   C4B 2232  17.344   2.080  17.967 -0.3953  0.0863 -0.0173
  187DPPC   NC3 2233  15.814   6.212  15.288  0.3364  0.2657 -0.2454
  187DPPC   PO4 2234  15.574   6.199  15.574 -0.0858  0.3921  0.0263
  187DPPC   GL1 2235  15.416   5.969  15.918 -0.0190  0.1195  0.1403
  187DPPC   GL2 2236  15.213   6.205  15.970  0.2055 -0.2170  0.1013
  187DPPC   C1A 2237  15.556   5.809  16.259  0.3464 -0.0512  0.0699
  187DPPC   C2A 2238  15.682   5.608  16.594 -0.1021 -0.1348 -0.2059
  187DPPC   C3A 2239  15.698   5.584  17.026  0.0687  0.1619  0.2076
  187DPPC   C4A 2240  15.653   5.639  17.513 -0.0617  0.4177  0.1134
  187DPPC   C1B 2241  15.070   6.218  16.308  0.0612  0.2497  0.1431
  187DPPC   C2B 2242  15.034   6.236  16.784  0.0209  0.1107 -0.0583
  187DPPC   C3B 2243  15.029   6.096  17.243 -0.0242 -0.0836 -0.0274
  187DPPC   C4B 2244  15.020   6.196  17.761 -0.0282 -0.0550  0.2260
  188DPPC   NC3 2245  19.163   6.189  15.252 -0.0187 -0.3051 -0.0992
  188DPPC   PO4 2246  19.121   6.564  15.376  0.0010 -0.0984  0.1220
  188DPPC   GL1 2247  19.077   6.520  15.745  0.0061 -0.5978  0.0172
  188DPPC   GL2 2248  19.231   6.689  15.808 -0.1081  0.2104  0.3626
  188DPPC   C1A 2249  18.906   6.435  16.093  0.1172  0.0083 -0.0731
  188DPPC   C2A 2250  18.665   6.269  16.391 -0.0757  0.0682  0.0850
  188DPPC   C3A 2251  18.576   6.345  16.870 -0.1659 -0.3622 -0.0199
  188DPPC   C4A 2252  18.552   6.375  17.361  0.1264  0.0107  0.2962
  188DPPC   C1B 2253  19.450   6.706  16.108  0.2192  0.1939  0.1445
  188DPPC   C2B 2254  19.417   6.569  16.527 -0.1772 -0.0527  0.2800
  188DPPC   C3B 2255  19.394   6.573  16.987  0.0790 -0.0245  0.3203
  188DPPC   C4B 2256  19.351   6.684  17.429  0.2431  0.0243 -0.0810
  189DPPC   NC3 2257  18.218   4.047  15.250  0.0868  0.0434 -0.2638
  189DPPC   PO4 2258  17.848   4.166  15.341 -0.1671  0.2067 -0.0655
  189DPPC   GL1 2259  17.833   4.079  15.806 -0.0724 -0.3102 -0.0620
  189DPPC   GL2 2260  17.512   4.139  15.829  0.0098  0.0447 -0.4948
  189DPPC   C1A 2261  18.001   4.170  16.125  0.2002 -0.1497 -0.0569
  189DPPC   C2A 2262  18.025   4.268  16.556  0.2614  0.1231 -0.0884
  189DPPC   C3A 2263  17.960   4.268  17.074 -0.1045 -0.2904 -0.0291
  189DPPC   C4A 2264  17.984   4.263  17.512 -0.0243  0.3697 -0.2048
  189DPPC   C1B 2265  17.498   3.957  16.143 -0.1217  0.1154 -0.0668
  189DPPC   C2B 2266  17.673   3.872  16.542  0.1480  0.1093  0.2000
  189DPPC   C3B 2267  17.625   3.850  17.028  0.0060 -0.1125 -0.4011
  189DPPC   C4B 2268  17.631   3.887  17.513 -0.1356  0.0531  0.2284
  190DPPC   NC3 2269  18.786   3.974  15.162  0.2968 -0.0388 -0.0022
  190DPPC   PO4 2270  18.595   3.694  15.374  0.3344 -0.0873 -0.0549
  190DPPC   GL1 2271  18.638   3.763  15.781  0.1119 -0.2460  0.1983
  190DPPC   GL2 2272  18.758   4.031  15.777 -0.0355 -0.0342  0.2022
  190DPPC   C1A 2273  18.508   3.761  16.108 -0.1821  0.0010  0.1923
  190DPPC   C2A 2274  18.637   3.700  16.506  0.1417  0.2759  0.1108
  190DPPC   C3A 2275  18.610   3.698  17.006  0.0454 -0.0401  0.0911
  190DPPC   C4A 2276  18.569   3.717  17.492  0.0730 -0.0342 -0.1934
  190DPPC   C1B 2277  18.824   3.999  16.153  0.1640 -0.2379 -0.0891
  190DPPC   C2B 2278  18.931   4.061  16.559  0.1389  0.0080 -0.1024
  190DPPC   C3B 2279  19.011   4.049  16.970  0.1942  0.0951 -0.1198
  190DPPC   C4B 2280  18.931   4.084  17.427 -0.0494  0.2216 -0.0745
  191DPPC   NC3 2281  18.826   2.734  15.574 -0.0639  0.2903  0.1519
  191DPPC   PO4 2282  19.185   2.581  15.669  0.3501  0.1342 -0.1764
  191DPPC   GL1 2283  19.038   2.539  15.999  0.2536  0.2060 -0.2817
  191DPPC   GL2 2284  18.752   2.646  16.036 -0.2018  0.0275 -0.1597
  191DPPC   C1A 2285  19.099   2.328  16.296  0.1412  0.1731  0.1391
  191DPPC   C2A 2286  19.005   2.282  16.671  0.0966 -0.1438 -0.2143
  191DPPC   C3A 2287  19.093   2.292  17.117  0.1960  0.4266  0.4829
  191DPPC   C4A 2288  19.129   2.240  17.619 -0.0503  0.1301 -0.1801
  191DPPC   C1B 2289  18.777   2.584  16.374  0.2118  0.0636 -0.6163
  191DPPC   C2B 2290  18.868   2.782  16.738 -0.1455 -0.1629 -0.0799
  191DPPC   C3B 2291  18.987   2.891  17.271  0.2482  0.3394  0.1628
  191DPPC   C4B 2292  18.970   2.807  17.701  0.0324 -0.2634 -0.1951
  192DPPC   NC3 2293  19.558   5.608  14.981 -0.0489  0.1269 -0.3864
  192DPPC   PO4 2294  19.502   5.762  15.340 -0.4978  0.1367 -0.0312
  192DPPC   GL1 2295  19.638   5.796  15.805 -0.1884  0.0484  0.0588
  192DPPC   GL2 2296  19.581   5.477  15.754  0.0869 -0.1123 -0.3321
  192DPPC   C1A 2297  19.521   5.811  16.165 -0.2513  0.1518 -0.1502
  192DPPC   C2A 2298  19.336   5.843  16.572  0.1106  0.0084  0.2924
  192DPPC   C3A 2299  19.231   5.846  17.047  0.0339 -0.1309  0.1114
  192DPPC   C4A 2300  19.185   5.772  17.540 -0.0904  0.4603  0.0662
  192DPPC   C1B 2301  19.380   5.285  15.990 -0.2506  0.0026  0.2058
  192DPPC   C2B 2302  19.070   5.337  16.303 -0.0631  0.2528 -0.2123
  192DPPC   C3B 2303  18.906   5.391  16.814  0.0668 -0.2646  0.0832
  192DPPC   C4B 2304  18.900   5.401  17.263  0.2870 -0.0233 -0.0468
  193DPPC   NC3 2305  16.512   1.039  15.831 -0.0288 -0.4112  0.1144
  193DPPC   PO4 2306  16.925   1.050  15.849 -0.2039 -0.0762 -0.1116
  193DPPC   GL1 2307  16.964   0.839  16.233 -0.4250  0.1786  0.1248
  193DPPC   GL2 2308  16.771   1.060  16.301 -0.0680 -0.1656  0.0281
  193DPPC   C1A 2309  17.123   0.814  16.556 -0.0747 -0.2480 -0.1307
  193DPPC   C2A 2310  17.277   0.842  16.933  0.1585  0.0371  0.3006
  193DPPC   C3A 2311  17.304   0.836  17.422  0.0202  0.1235  0.2822
  193DPPC   C4A 2312  17.286   0.789  17.938 -0.3945 -0.0068  0.0832
  193DPPC   C1B 2313  16.763   1.084  16.664 -0.3395  0.0099  0.0377
  193DPPC   C2B 2314  16.826   0.989  17.065 -0.0014 -0.1636 -0.2423
  193DPPC   C3B 2315  16.851   0.938  17.546 -0.2051 -0.1364  0.1084
  193DPPC   C4B 2316  16.770   0.934  18.095 -0.1244 -0.0718  0.1620
  194DPPC   NC3 2317  18.259   2.575  15.997 -0.0578 -0.1897 -0.0828
  194DPPC   PO4 2318  18.420   2.926  15.875 -0.0647  0.1887  0.3038
  194DPPC   GL1 2319  18.466   2.994  16.271 -0.0308  0.0096 -0.2984
  194DPPC   GL2 2320  18.383   2.731  16.389 -0.0605 -0.3888 -0.0473
  194DPPC   C1A 2321  18.694   3.179  16.490  0.1305 -0.3805 -0.1177
  194DPPC   C2A 2322  18.802   3.244  16.912  0.1707 -0.0034 -0.1455
  194DPPC   C3A 2323  18.752   3.272  17.411  0.1016  0.1972 -0.0349
  194DPPC   C4A 2324  18.760   3.226  17.922  0.2340 -0.0575  0.1025
  194DPPC   C1B 2325  18.404   2.764  16.719 -0.0079  0.1228 -0.4327
  194DPPC   C2B 2326  18.476   2.893  17.119 -0.1698 -0.0671 -0.0548
  194DPPC   C3B 2327  18.488   2.913  17.592  0.1470 -0.1884  0.0293
  194DPPC   C4B 2328  18.444   2.858  18.118  0.2808 -0.0930 -0.2681
  195DPPC   NC3 2329  17.705   5.073  15.697 -0.1896 -0.0986 -0.2237
  195DPPC   PO4 2330  17.592   5.461  15.646  0.0682 -0.1368 -0.1254
  195DPPC   GL1 2331  17.509   5.782  15.968 -0.1030  0.2344 -0.4285
  195DPPC   GL2 2332  17.800   5.797  15.951 -0.0676  0.1664 -0.1380
  195DPPC   C1A 2333  17.500   5.748  16.343  0.0920  0.1256  0.0380
  195DPPC   C2A 2334  17.478   5.689  16.784  0.0070  0.0104 -0.2302
  195DPPC   C3A 2335  17.421   5.672  17.256 -0.0776  0.3916  0.1877
  195DPPC   C4A 2336  17.472   5.680  17.738  0.1264  0.0570  0.0138
  195DPPC   C1B 2337  17.957   5.619  16.242 -0.2151  0.0166 -0.0425
  195DPPC   C2B 2338  17.958   5.594  16.636  0.1238 -0.1313 -0.2803
  195DPPC   C3B 2339  17.928   5.580  17.089  0.1570  0.0741  0.0020
  195DPPC   C4B 2340  17.899   5.517  17.509 -0.3079 -0.0321  0.0868
  196DPPC   NC3 2341  18.178   5.733  15.614  0.1911  0.0309 -0.0920
  196DPPC   PO4 2342  18.102   5.366  15.685 -0.0614  0.2277 -0.3626
  196DPPC   GL1 2343  17.964   5.262  16.083 -0.2124  0.1668  0.0160
  196DPPC   GL2 2344  17.668   5.332  16.109 -0.2035  0.0989  0.1489
  196DPPC   C1A 2345  18.169   5.244  16.360  0.1200 -0.0391 -0.1437
  196DPPC   C2A 2346  18.148   5.153  16.792  0.4141 -0.1603 -0.1214
  196DPPC   C3A 2347  18.130   5.114  17.240  0.2330 -0.1851 -0.0824
  196DPPC   C4A 2348  18.118   5.107  17.765  0.1410  0.3356  0.1575
  196DPPC   C1B 2349  17.692   5.268  16.466  0.0852 -0.0240  0.0876
  196DPPC   C2B 2350  17.665   5.230  16.861  0.1396 -0.0999 -0.0376
  196DPPC   C3B 2351  17.605   5.171  17.309  0.1314  0.2605  0.3445
  196DPPC   C4B 2352  17.636   5.119  17.785 -0.1967  0.1355  0.2834
  197DPPC   NC3 2353  21.145   5.978  15.530 -0.3119 -0.0821  0.3266
  197DPPC   PO4 2354  20.811   6.142  15.586 -0.0585 -0.0611 -0.2646
  197DPPC   GL1 2355  20.728   6.401  15.875 -0.0670  0.0908  0.1575
  197DPPC   GL2 2356  20.490   6.572  15.852 -0.2904 -0.2351 -0.1038
  197DPPC   C1A 2357  20.896   6.338  16.185  0.1994 -0.0114  0.1905
  197DPPC   C2A 2358  20.879   6.246  16.562  0.1457  0.1067  0.0351
  197DPPC   C3A 2359  20.817   6.303  17.050 -0.0338 -0.0514  0.1125
  197DPPC   C4A 2360  20.921   6.276  17.460  0.0278 -0.0191  0.1118
  197DPPC   C1B 2361  20.367   6.691  16.141  0.2660 -0.0485 -0.1337
  197DPPC   C2B 2362  20.266   6.824  16.553  0.0796  0.3179  0.2219
  197DPPC   C3B 2363  20.182   6.895  17.000  0.0691  0.0664  0.0257
  197DPPC   C4B 2364  20.194   6.868  17.483  0.0775 -0.2615 -0.2501
  198DPPC   NC3 2365  19.464   4.650  15.314  0.3178  0.0445  0.1832
  198DPPC   PO4 2366  19.579   4.426  15.570 -0.1675  0.0449 -0.1198
  198DPPC   GL1 2367  19.432   4.509  15.946  0.2204 -0.1751  0.3935
  198DPPC   GL2 2368  19.196   4.279  15.999 -0.2001  0.2463 -0.1316
  198DPPC   C1A 2369  19.590   4.680  16.168 -0.1893  0.2348 -0.0264
  198DPPC   C2A 2370  19.587   4.709  16.571  0.1827  0.0276 -0.2464
  198DPPC   C3A 2371  19.571   4.765  17.076  0.0644 -0.2640 -0.0364
  198DPPC   C4A 2372  19.497   4.802  17.572 -0.0138  0.0473 -0.1194
  198DPPC   C1B 2373  19.257   4.369  16.376 -0.0871 -0.0501 -0.0849
  198DPPC   C2B 2374  19.253   4.492  16.796  0.0142  0.0577  0.0631
  198DPPC   C3B 2375  19.218   4.428  17.247  0.2287 -0.0980  0.2488
  198DPPC   C4B 2376  19.228   4.393  17.755 -0.0926  0.1566  0.1066
  199DPPC   NC3 2377  19.723   3.173  15.428 -0.1118  0.1769  0.1837
  199DPPC   PO4 2378  19.614   2.798  15.528 -0.0854 -0.0904  0.2193
  199DPPC   GL1 2379  19.857   2.731  15.937  0.3005  0.0245  0.0186
  199DPPC   GL2 2380  19.626   2.580  15.926 -0.6925 -0.1992  0.1210
  199DPPC   C1A 2381  19.868   2.580  16.279  0.1414 -0.3565 -0.5967
  199DPPC   C2A 2382  19.807   2.636  16.682 -0.2676 -0.4272 -0.3280
  199DPPC   C3A 2383  19.903   2.562  17.136 -0.0492  0.2308 -0.1431
  199DPPC   C4A 2384  19.882   2.502  17.645  0.0517  0.1477 -0.1801
  199DPPC   C1B 2385  19.437   2.579  16.226  0.3949 -0.1040 -0.4345
  199DPPC   C2B 2386  19.317   2.663  16.630 -0.3211  0.0111  0.0409
  199DPPC   C3B 2387  19.412   2.699  17.068  0.2166  0.0644  0.1467
  199DPPC   C4B 2388  19.411   2.695  17.539 -0.1094 -0.1453 -0.0022
  200DPPC   NC3 2389  17.361   5.634  15.253 -0.0244 -0.1379  0.0838
  200DPPC   PO4 2390  17.196   5.806  15.540 -0.5330 -0.0213 -0.1006
  200DPPC   GL1 2391  17.104   5.580  15.872 -0.3490  0.0178 -0.1362
  200DPPC   GL2 2392  17.238   5.336  15.887  0.0716 -0.0206  0.1507
  200DPPC   C1A 2393  17.052   5.668  16.251  0.3391  0.0319 -0.1416
  200DPPC   C2A 2394  16.953   5.700  16.696 -0.1857  0.2349  0.4182
  200DPPC   C3A 2395  16.934   5.756  17.211 -0.4650  0.0479  0.0601
  200DPPC   C4A 2396  16.933   5.734  17.692  0.3917  0.1525  0.0666
  200DPPC   C1B 2397  17.254   5.270  16.247  0.1363  0.0428 -0.3817
  200DPPC   C2B 2398  17.184   5.241  16.648 -0.1265 -0.3093 -0.2678
  200DPPC   C3B 2399  17.134   5.282  17.071  0.0179 -0.2125  0.1339
  200DPPC   C4B 2400  17.132   5.295  17.583 -0.0941  0.0262 -0.1126
  201W        W 2401   6.668   4.436   1.636  0.1452  0.0364  0.1476
  202W        W 2402   8.251   1.472  12.755 -0.0606  0.3961 -0.1354
  203W        W 2403   0.188   2.420  24.980  0.1236 -0.0228 -0.2619
  204W        W 2404   9.988   3.483   6.362 -0.0408 -0.0695  0.1197
  205W        W 2405  10.509   4.680   9.853  0.1645 -0.2779 -0.3648
  206W        W 2406   3.871   4.593   1.196  0.1395 -0.1258  0.5292
  207W        W 2407  22.091   4.502   7.131 -0.0243 -0.0446  0.1373
  208W        W 2408  16.518   3.673  23.408 -0.1550 -0.1268  0.0426
  209W        W 2409  14.876   5.240   0.281  0.3468 -0.1256  0.2244
  210W        W 2410   7.043   2.828   1.807 -0.0811 -0.2092  0.0283
  211W        W 2411  20.185   6.171  30.143 -0.2409  0.2760  0.0778
  212W        W 2412   1.242   5.849  24.159  0.1428 -0.1689 -0.0389
  213W        W 2413  24.815   4.434  11.835  0.2569 -0.0395 -0.0833
  214W        W 2414  23.224   1.808  10.029  0.0054 -0.2780 -0.1305
  215W        W 2415  10.370   2.984  10.108  0.0209  0.3635 -0.0366
  216W        W 2416  13.761   4.152  23.083  0.0797  0.1217 -0.0724
  217W        W 2417   5.342   2.771   9.281  0.2215  0.3880  0.0802
  218W        W 2418  13.610   0.601  32.122 -0.1743 -0.1346 -0.0773
  219W        W 2419   6.149   4.883  33.622 -0.0033 -0.0893 -0.0047
  220W        W 2420  22.004   1.429  27.457  0.0346 -0.0502 -0.1161
  221W        W 2421  13.476   3.974  27.750  0.0791  0.1710  0.0246
  222W        W 2422   8.301   1.089  31.678 -0.1412  0.2123  0.1618
  223W        W 2423  12.758   6.409   7.237 -0.2243 -0.0334 -0.1123
  224W        W 2424  24.176   3.660  12.824  0.1536  0.1448 -0.0759
  225W        W 2425  24.649   1.128  14.143  0.1569 -0.1518  0.0527
  226W        W 2426  14.942   1.628   4.447 -0.1649 -0.2622  0.1274
  227W        W 2427   2.557   0.771   0.461  0.3527 -0.1434 -0.2132
  228W        W 2428  20.417   0.356  27.456 -0.1050  0.0174  0.4091
  229W        W 2429  16.759   5.388  31.521 -0.1767  0.0801  0.1054
  230W        W 2430  21.513   2.737  26.606 -0.2233  0.0621  0.1116
  231W        W 2431  17.510   0.130   4.806  0.1913 -0.0794 -0.0566
  232W        W 2432  19.500   1.218  30.670 -0.0759 -0.1418  0.0992
  233W        W 2433  14.134   4.968  15.805 -0.1081  0.0845  0.0315
  234W        W 2434   9.401   0.431  35.561 -0.3296  0.0251  0.0178
  235W        W 2435   9.429   1.704  13.968  0.1123 -0.1902 -0.0042
  236W        W 2436  13.811   4.985   0.824  0.0500 -0.0800 -0.0304
  237W        W 2437  19.297   2.130  23.758  0.0068  0.2224 -0.1299
  238W        W 2438  24.552   5.940  32.138 -0.1788 -0.0861  0.3759
  239W        W 2439  25.452   2.196  28.354 -0.1408  0.0835 -0.1832
  240W        W 2440  24.548   2.797  13.469  0.0584  0.1553 -0.1863
  241W        W 2441   7.494   5.485   2.743 -0.0964  0.3433 -0.2714
  242W        W 2442  17.512   3.008  28.946 -0.0461  0.1228 -0.1432
  243W        W 2443  24.806   2.863   7.237 -0.2566  0.3325 -0.0043
  244W        W 2444  15.905   6.299   2.814 -0.2636  0.2593 -0.3079
  245W        W 2445   1.182   1.590   4.875  0.1172 -0.0407  0.0331
  246W        W 2446   5.218   5.266  21.942 -0.0338 -0.0025 -0.1611
  247W        W 2447   2.520   2.047  14.110  0.0144  0.1623  0.3525
  248W        W 2448  13.717   3.462  14.275  0.0604  0.0957 -0.1083
  249W        W 2449   2.582   3.334  11.376 -0.1673  0.3232  0.4015
  250W        W 2450   3.398   1.212  34.667 -0.0129  0.0995  0.0641
  251W        W 2451  10.912   3.672  27.808  0.0261  0.0191  0.0471
  252W        W 2452  19.007   5.153  24.416  0.1321  0.0439 -0.0766
  253W        W 2453  14.753   0.948  26.048  0.0162 -0.0311  0.1732
  254W        W 2454  14.294   3.425  28.973  0.0515 -0.1819 -0.1237
  255W        W 2455   8.381   5.951  29.098 -0.3152 -0.1188 -0.3229
  256W        W 2456   7.751   5.882  25.731 -0.0989  0.0493  0.1904
  257W        W 2457   2.471   6.314   7.057 -0.1473 -0.0672 -0.0007
  258W        W 2458  25.356   5.954  29.885 -0.0477  0.1240  0.2356
  259W        W 2459   2.625   3.690  12.338 -0.1597 -0.1001 -0.1763
  260W        W 2460   7.268   3.251  13.917 -0.2821  0.3281 -0.0045
  261W        W 2461  10.916   5.278  35.736  0.1079  0.4039  0.0953
  262W        W 2462   2.985   0.829  29.669 -0.2318 -0.0907  0.3150
  263W        W 2463  15.763   3.172  23.112 -0.0309 -0.3543  0.0272
  264W        W 2464   8.983   4.756  25.571  0.0123 -0.0818  0.0469
  265W        W 2465  19.076   4.626  21.149 -0.1477 -0.1102  0.0100
  266W        W 2466   5.349   1.693  20.740  0.0656 -0.0381 -0.1181
  267W        W 2467   1.059   4.396  12.705 -0.0039  0.0379 -0.1890
  268W        W 2468  10.954   0.605  29.283  0.0823  0.0482 -0.0834
  269W        W 2469  22.458   1.841  30.500 -0.0314  0.2393 -0.3953
  270W        W 2470  22.442   6.467  33.457  0.1072  0.0886  0.0203
  271W        W 2471   1.300   1.452   1.420 -0.1944 -0.0153 -0.1012
  272W        W 2472   9.922   0.830  24.887  0.0962  0.2572 -0.0025
  273W        W 2473  21.348   2.777  23.983 -0.1512 -0.3554 -0.2447
  274W        W 2474  16.456   0.253   3.088  0.0625  0.1986 -0.1377
  275W        W 2475  24.835   4.155  23.586  0.1641  0.1090  0.0202
  276W        W 2476  17.805   3.886  14.875 -0.0197 -0.2319  0.3546
  277W        W 2477  19.945   4.891  14.335 -0.0633  0.3424 -0.2279
  278W        W 2478   4.268   2.825  14.772  0.1798 -0.1468  0.0554
  279W        W 2479  20.185   2.843  13.282 -0.2311  0.0392 -0.1837
  280W        W 2480  20.635   3.650   6.148  0.0355 -0.0516  0.0996
  281W        W 2481   8.773   6.318  24.908  0.2181  0.0102 -0.3167
  282W        W 2482  23.009   6.258   8.389  0.2852  0.4419  0.2071
  283W        W 2483   8.469   0.918  35.338  0.0071 -0.1602  0.0530
  284W        W 2484  10.385   1.919   2.766 -0.0027 -0.0573  0.1776
  285W        W 2485  11.538   3.131  28.170 -0.0551 -0.0408 -0.0656
  286W        W 2486  10.411   1.345   0.600 -0.1277  0.1006 -0.0932
  287W        W 2487  22.642   1.404  31.814  0.1977 -0.0632 -0.2350
  288W        W 2488   8.283   3.612   5.072 -0.0398  0.0433 -0.1545
  289W        W 2489  22.464   6.505   3.221  0.2941  0.0256 -0.1522
  290W        W 2490   1.076   1.836   2.731 -0.2356 -0.1640 -0.1933
  291W        W 2491  21.182   3.621  26.717 -0.1263  0.0357  0.0695
  292W        W 2492   0.834   3.232  36.013  0.0481  0.3494  0.2358
  293W        W 2493   5.932   3.626   2.363  0.0935 -0.1651 -0.0009
  294W        W 2494   6.285   5.345  25.027 -0.2516 -0.0794 -0.2958
  295W        W 2495  17.562   2.540  26.293 -0.0293  0.0971 -0.0404
  296W        W 2496  22.832   4.571  32.385 -0.0573  0.1165 -0.0836
  297W        W 2497  25.923   1.834   9.853  0.0818 -0.1055  0.0557
  298W        W 2498   7.605   1.792  28.495 -0.0675  0.0055  0.1997
  299W        W 2499  15.362   5.710  12.086  0.0707 -0.0823  0.3602
  300W        W 2500  16.313   2.417  36.164  0.1881  0.1735 -0.1000
  301W        W 2501   6.770   6.586  23.747  0.0049 -0.1219 -0.1354
  302W        W 2502  19.222   1.595  24.887 -0.0385 -0.0088 -0.1319
  303W        W 2503   7.238   1.990   9.250  0.3203  0.1720  0.0020
  304W        W 2504   5.659   0.819  25.101  0.1149 -0.0915 -0.1815
  305W        W 2505  13.170   0.640  20.975 -0.0580  0.1198 -0.4437
  306W        W 2506   9.211   4.953   7.703  0.0903  0.1557 -0.0529
  307W        W 2507   0.003   0.449   3.831 -0.1377  0.1009 -0.1655
  308W        W 2508   3.008   4.397  13.855  0.1654  0.0320 -0.2915
  309W        W 2509   6.498   4.153  24.154 -0.0621  0.0794  0.0343
  310W        W 2510  25.120   1.082   8.624 -0.0497 -0.0567  0.2645
  311W        W 2511  14.049   0.878  24.929 -0.0101 -0.0299 -0.3598
  312W        W 2512   7.949   2.436  28.937 -0.0114 -0.0289 -0.1518
  313W        W 2513  16.691   6.027  31.860 -0.2146  0.1005 -0.2234
  314W        W 2514  17.912   4.342  31.765  0.0543  0.2569  0.0673
  315W        W 2515  13.356   3.890   8.037  0.0942  0.0076 -0.0698
  316W        W 2516   7.718   0.845   1.598 -0.0070  0.1634 -0.0463
  317W        W 2517  21.134   3.954   7.213 -0.3514  0.0300 -0.1524
  318W        W 2518  15.743   0.824  28.662  0.3075 -0.3208  0.1325
  319W        W 2519  18.635   0.963  26.533  0.2539  0.2175 -0.0579
  320W        W 2520   2.758   3.759  25.048  0.0665 -0.0036  0.0564
  321W        W 2521  19.801   0.155   7.377 -0.1533 -0.0228  0.0217
  322W        W 2522  24.143   0.287  24.725 -0.0656  0.0913 -0.0870
  323W        W 2523  13.628   0.466  28.650  0.3220  0.0114  0.2059
  324W        W 2524  24.123   5.013  29.186 -0.0734  0.2315  0.1640
  325W        W 2525  16.452   3.705   6.205 -0.0321 -0.1043 -0.2537
  326W        W 2526   2.128   1.716  14.222  0.2456  0.2560 -0.0699
  327W        W 2527   5.790   6.270   4.436  0.1169  0.1259  0.2573
  328W        W 2528  12.227   6.182  29.005  0.0084 -0.2385 -0.2252
  329W        W 2529  16.478   2.530  21.784 -0.1609  0.0420  0.1881
  330W        W 2530   7.280   5.023   7.405 -0.3087 -0.0589 -0.0484
  331W        W 2531  17.346   3.639  28.530  0.0086  0.2136 -0.1084
  332W        W 2532  14.146   1.351  35.923 -0.0562 -0.1799 -0.1913
  333W        W 2533  24.911   3.162  35.281 -0.3338  0.1310 -0.1847
  334W        W 2534   6.152   6.476  22.067 -0.0754 -0.0727  0.1130
  335W        W 2535  13.741   1.851  21.085  0.0597  0.2039  0.0107
  336W        W 2536  11.380   5.298  33.281  0.0767 -0.0060  0.0380
  337W        W 2537  11.295   6.015  34.968 -0.2439  0.1740 -0.2313
  338W        W 2538   4.537   0.280  25.835  0.0089  0.0578  0.1048
  339W        W 2539  15.850   4.742   6.233  0.1911  0.1591  0.1358
  340W        W 2540  10.514   2.553   7.204  0.1073  0.1294  0.1256
  341W        W 2541   3.692   4.662  11.176 -0.0242  0.0157  0.0391
  342W        W 2542  23.129   4.975  13.385  0.0012 -0.2523 -0.2390
  343W        W 2543  13.858   0.987   0.333 -0.1714 -0.2304  0.0594
  344W        W 2544   8.607   3.602   0.900 -0.0063  0.2163  0.0937
  345W        W 2545  25.888   1.974   7.346  0.0485  0.1452 -0.2177
  346W        W 2546  23.780   2.993  25.983 -0.0898  0.1186 -0.1615
  347W        W 2547   2.669   2.111   1.371 -0.1805 -0.3513  0.2214
  348W        W 2548  15.059   5.425   9.013  0.0362 -0.1114  0.0848
  349W        W 2549  10.340   2.167  32.732 -0.3216  0.3490  0.0030
  350W        W 2550   2.987   2.236  13.744 -0.0731 -0.4544 -0.0382
  351W        W 2551  22.802   5.619   0.992 -0.0192  0.1374  0.0940
  352W        W 2552   1.391   4.815  35.282  0.0436 -0.1979 -0.1996
  353W        W 2553   7.759   1.129  31.686  0.0876  0.0768 -0.0961
  354W        W 2554  19.502   4.774   4.918 -0.2982 -0.1192 -0.1553
  355W        W 2555  25.288   4.451  27.382  0.0118  0.0682 -0.2054
  356W        W 2556  14.992   1.758  35.173  0.2574 -0.1659 -0.1348
  357W        W 2557  25.023   2.950   0.358 -0.0750 -0.0534  0.2731
  358W        W 2558   1.948   4.747  24.078  0.0570  0.1391 -0.0261
  359W        W 2559  26.387   4.807  30.195 -0.0248  0.0544  0.1113
  360W        W 2560   7.905   2.598   4.148  0.0039  0.2341 -0.4391
  361W        W 2561  22.673   6.090  27.888 -0.1023  0.2625 -0.1555
  362W        W 2562  20.051   3.510   9.502 -0.1981  0.0305  0.0013
  363W        W 2563   2.662   0.889   8.218 -0.0458  0.0816 -0.0501
  364W        W 2564  24.544   3.255  33.291  0.0548 -0.4071  0.0970
  365W        W 2565   9.085   4.686  22.546 -0.2933  0.0083  0.0665
  366W        W 2566  18.563   1.793  26.814  0.3101 -0.2579  0.3089
  367W        W 2567   0.338   4.583   3.408  0.1240  0.2031  0.0162
  368W        W 2568   5.630   0.466  24.201 -0.1451 -0.0817  0.1585
  369W        W 2569   5.583   6.152   7.986  0.2901 -0.1810 -0.1009
  370W        W 2570   0.732   6.120  22.376 -0.0649 -0.0381 -0.0839
  371W        W 2571  11.033   6.380  29.838  0.1373  0.0611  0.3374
  372W        W 2572   0.587   1.350   7.445  0.0663 -0.1189 -0.0201
  373W        W 2573  13.589   4.066   6.392 -0.1478 -0.0722 -0.0818
  374W        W 2574  21.634   1.383  28.996  0.1773  0.2838 -0.1677
  375W        W 2575   1.594   0.979  26.296  0.0656 -0.2340 -0.1514
  376W        W 2576   9.323   2.303  26.610  0.1310  0.0112 -0.0101
  377W        W 2577   2.006   3.305  34.976  0.0405 -0.2372  0.0475
  378W        W 2578  17.310   0.170  28.872 -0.0788 -0.2312  0.0261
  379W        W 2579  19.966   6.477   3.487  0.1383 -0.4043 -0.1027
  380W        W 2580  18.177   5.518   9.275  0.1405 -0.1820  0.2322
  381W        W 2581   4.886   1.790  30.580  0.2794 -0.0171 -0.0348
  382W        W 2582  16.460   2.032  11.821  0.4333 -0.2659 -0.0018
  383W        W 2583  16.512   1.347  25.592  0.1405 -0.2436 -0.1139
  384W        W 2584  25.371   5.880   5.227  0.1125  0.0501  0.1050
  385W        W 2585   7.967   2.061  35.009 -0.3352 -0.0393  0.3260
  386W        W 2586  21.995   2.329  33.564 -0.2776  0.1195  0.0290
  387W        W 2587   9.830   4.420  32.839 -0.0488 -0.1564 -0.1733
  388W        W 2588  23.733   4.481  21.345  0.0261 -0.0432 -0.1268
  389W        W 2589  10.154   0.225  14.216  0.0090  0.0812 -0.1245
  390W        W 2590  11.704   0.107  34.051 -0.1378 -0.3442  0.0680
  391W        W 2591  24.337   1.407  24.203 -0.1376 -0.0606 -0.2043
  392W        W 2592  20.232   4.428  35.802 -0.3087 -0.0392  0.1000
  393W        W 2593   8.735   1.555  24.498  0.2270 -0.0147 -0.0622
  394W        W 2594  22.575   3.942  31.474 -0.2563 -0.1182 -0.3123
  395W        W 2595  23.698   3.042  34.384  0.1150 -0.2498 -0.1079
  396W        W 2596  26.143   6.386  31.783  0.1051  0.0916 -0.2628
  397W        W 2597  21.470   4.042  30.356 -0.2253  0.2454  0.1930
  398W        W 2598  18.489   0.706  14.032  0.4317 -0.1023  0.0984
  399W        W 2599  17.914   4.819  27.117  0.1301  0.0339 -0.0170
  400W        W 2600  10.502   1.039  22.837  0.0499  0.0519  0.0616
  401W        W 2601   0.397   0.699  27.071 -0.1242 -0.1880 -0.0923
  402W        W 2602   5.083   4.396  13.141  0.0887 -0.0524 -0.0850
  403W        W 2603   7.556   5.936  27.146  0.0229  0.4186  0.0950
  404W        W 2604   8.752   5.170   9.153 -0.2385 -0.2004 -0.1548
  405W        W 2605   7.744   3.895   9.695  0.0201  0.2838  0.1743
  406W        W 2606  15.504   0.022   7.800 -0.1453  0.1212 -0.0757
  407W        W 2607   0.268   6.446  12.460  0.0317 -0.3205 -0.0269
  408W        W 2608  20.828   4.782   2.938 -0.0223 -0.3647  0.0695
  409W        W 2609   1.154   4.985  24.983 -0.0354  0.1444 -0.0539
  410W        W 2610  10.407   1.092  25.576  0.0503 -0.1532  0.3108
  411W        W 2611  24.907   2.365   7.332  0.1651 -0.1030  0.4128
  412W        W 2612  20.422   1.521  20.557  0.3020 -0.0043  0.3668
  413W        W 2613  17.886   2.923   1.194  0.0867  0.0827  0.0484
  414W        W 2614  20.621   5.014  31.169 -0.1585 -0.0536 -0.2260
  415W        W 2615   0.253   4.337   4.404 -0.3979 -0.0092 -0.1765
  416W        W 2616   8.938   2.826   7.844 -0.0819 -0.1372  0.1486
  417W        W 2617  14.588   0.339  28.278  0.0418 -0.0961  0.2584
  418W        W 2618   2.330   0.310  32.715 -0.0634  0.1292  0.1679
  419W        W 2619   5.062   0.652  21.411 -0.0417 -0.3137  0.1745
  420W        W 2620  25.035   3.103  22.655 -0.0149  0.1756  0.2381
  421W        W 2621   7.174   1.088  31.666  0.1543 -0.1697  0.3036
  422W        W 2622  23.504   4.083   2.664 -0.1881  0.0944 -0.3219
  423W        W 2623   5.862   6.460  32.083 -0.0858 -0.2647  0.2742
  424W        W 2624   8.271   5.462  12.975 -0.1397 -0.1515 -0.2812
  425W        W 2625  22.019   5.253   5.843 -0.0270 -0.1626 -0.0822
  426W        W 2626  16.773   2.297  33.356  0.1765  0.3656 -0.0619
  427W        W 2627  23.682   3.782  26.399  0.1513 -0.2266  0.0498
  428W        W 2628   3.419   6.121  28.868  0.3200  0.3431  0.0772
  429W        W 2629  11.698   4.794  22.656 -0.0103 -0.1526 -0.3394
  430W        W 2630  10.803   5.731  33.963 -0.0722  0.1153  0.3190
  431W        W 2631  13.213   5.452  28.504  0.0183  0.1031  0.2316
  432W        W 2632  16.859   0.668  34.119 -0.3052  0.1851  0.4230
  433W        W 2633  19.848   3.627  31.929  0.0105 -0.2510  0.1128
  434W        W 2634  11.920   4.158   5.844  0.0566 -0.0402 -0.0296
  435W        W 2635   6.087   3.981  11.801 -0.2314 -0.1178  0.1272
  436W        W 2636   7.038   0.087  29.583 -0.2483 -0.0856  0.2967
  437W        W 2637  10.084   2.620  26.049  0.1258 -0.1143 -0.1121
  438W        W 2638  12.400   0.173  30.751  0.1537 -0.2184  0.1740
  439W        W 2639  12.078   0.523  10.115  0.1772 -0.1979  0.2903
  440W        W 2640  11.422   0.694  12.906 -0.1586 -0.0867 -0.1987
  441W        W 2641   8.234   0.764   6.655 -0.1067 -0.3767 -0.3378
  442W        W 2642  11.387   2.287  21.882 -0.1525  0.0514 -0.0426
  443W        W 2643  21.229   3.291  26.291  0.0575 -0.1278  0.0043
  444W        W 2644   6.580   1.766   6.172 -0.0367  0.2764  0.3144
  445W        W 2645  17.279   4.008  36.146  0.1965 -0.3069  0.0055
  446W        W 2646  25.158   3.852  21.434 -0.1677 -0.2721 -0.0174
  447W        W 2647  17.549   1.780  12.153  0.0359  0.0941 -0.0224
  448W        W 2648  18.282   0.316   2.079 -0.0294  0.1276 -0.0922
  449W        W 2649  23.737   3.837  24.914  0.0608 -0.0340  0.1013
  450W        W 2650   0.195   0.917  32.679 -0.0386 -0.1254  0.2457
  451W        W 2651  14.859   5.401  13.064 -0.0407 -0.0486 -0.0049
  452W        W 2652   9.530   3.303   6.486 -0.0590 -0.1247 -0.1709
  453W        W 2653  11.540   0.225  27.806  0.1552  0.2533  0.2686
  454W        W 2654   4.199   0.764  21.355  0.4383  0.2901 -0.4327
  455W        W 2655  24.301   4.019   1.827  0.1898  0.3987  0.0103
  456W        W 2656  12.934   4.757  31.229 -0.1578 -0.0017  0.0361
  457W        W 2657  26.302   3.339  34.453 -0.2087  0.1318 -0.0105
  458W        W 2658  22.155   4.199   4.679  0.0061  0.2105 -0.2359
  459W        W 2659   0.601   0.182  31.345  0.1931  0.0024 -0.0120
  460W        W 2660   9.756   4.920  32.939  0.1837  0.1163  0.0869
  461W        W 2661   6.343   6.239   0.217  0.2201  0.0773 -0.0741
  462W        W 2662  12.510   0.783   8.036  0.0750  0.0435 -0.1249
  463W        W 2663   4.083   5.161  35.989  0.0119 -0.2056  0.1632
  464W        W 2664  24.580   0.022  28.339 -0.1395 -0.1209 -0.0300
  465W        W 2665  17.451   4.691  32.651 -0.1266 -0.1233  0.0788
  466W        W 2666   3.393   3.155  23.168 -0.0323  0.3513  0.3683
  467W        W 2667   6.920   6.261  35.694  0.1445 -0.1566  0.1965
  468W        W 2668  13.152   1.300   9.538 -0.4670 -0.1895 -0.1462
  469W        W 2669  14.559   3.866  14.440  0.1997 -0.3198 -0.0861
  470W        W 2670  14.613   6.061   0.449  0.2571  0.3556  0.0830
  471W        W 2671  18.864   1.084  14.007 -0.1591  0.1349  0.0264
  472W        W 2672  14.453   1.779  22.479  0.1530  0.0367 -0.0088
  473W        W 2673  24.962   2.831  35.684  0.0198  0.2946 -0.2212
  474W        W 2674   1.743   6.160   1.701 -0.1981  0.0207  0.4240
  475W        W 2675  10.028   1.628  31.771 -0.4444  0.0911  0.0240
  476W        W 2676  16.236   6.132  12.533 -0.0232 -0.0514  0.2478
  477W        W 2677   2.220   1.395  24.917  0.0987 -0.0032 -0.2029
  478W        W 2678  15.279   1.243  33.244 -0.1055 -0.0041 -0.2123
  479W        W 2679   1.009   4.806   9.437  0.1337 -0.1488  0.0581
  480W        W 2680  13.485   2.139  30.574  0.1127  0.0150 -0.0849
  481W        W 2681   0.070   3.276  20.857 -0.1600  0.0011 -0.2695
  482W        W 2682   5.049   3.758   3.340 -0.2288 -0.0622  0.2585
  483W        W 2683  25.249   2.435   1.917  0.2138  0.1637 -0.0297
  484W        W 2684  14.654   1.779  35.590 -0.1748  0.1221 -0.1951
  485W        W 2685  14.563   4.370  20.288 -0.0161 -0.1033 -0.0080
  486W        W 2686   9.811   5.685  11.251 -0.4039 -0.0106 -0.3130
  487W        W 2687  12.904   2.328   6.476  0.0987  0.0118  0.0192
  488W        W 2688  11.584   0.493  31.298 -0.0318 -0.0619  0.1162
  489W        W 2689  23.345   4.039  35.065  0.0096 -0.1364 -0.2686
  490W        W 2690   7.728   1.398   8.488 -0.2625 -0.4171  0.0270
  491W        W 2691   4.553   4.793   4.828  0.0392  0.1079  0.2075
  492W        W 2692  17.655   6.034  32.102 -0.0287 -0.1566  0.3066
  493W        W 2693  24.734   5.493   7.877  0.2369  0.0964 -0.1440
  494W        W 2694  23.698   3.912   3.567 -0.3740 -0.2012  0.0250
  495W        W 2695   8.885   5.081  26.412  0.2655 -0.2734 -0.0102
  496W        W 2696   0.920   4.271  30.033 -0.1042 -0.0808  0.0322
  497W        W 2697   6.517   2.536  14.042 -0.2033 -0.0797 -0.2265
  498W        W 2698   9.130   0.691  23.152 -0.2880 -0.1504  0.1153
  499W        W 2699   3.770   0.350  23.432 -0.0105  0.1044  0.0168
  500W        W 2700  21.794   0.648   8.008 -0.0836 -0.0869 -0.0039
  501W        W 2701  20.166   6.445   9.482  0.3228  0.3379  0.2998
  502W        W 2702   1.742   0.235   9.897  0.1356 -0.2548  0.0902
  503W        W 2703  10.072   1.761  34.442 -0.0334 -0.1375 -0.1769
  504W        W 2704   0.133   2.564  30.337 -0.3037 -0.0181 -0.3541
  505W        W 2705  14.424   3.480   4.029 -0.0113 -0.2964 -0.0427
  506W        W 2706   1.459   5.943  23.478  0.1824  0.1291  0.0039
  507W        W 2707  20.491   6.381  29.812 -0.0567 -0.0403 -0.0650
  508W        W 2708  25.556   0.878  27.923  0.2965 -0.2322 -0.0200
  509W        W 2709  16.793   4.383   7.094  0.0819 -0.0761  0.0448
  510W        W 2710  25.270   5.386  30.569 -0.2484 -0.1529 -0.1960
  511W        W 2711  22.607   0.570   0.807 -0.0125  0.0310  0.1919
  512W        W 2712  15.472   4.002  26.454 -0.2844 -0.2110 -0.0635
  513W        W 2713   8.976   5.257  35.970  0.2537  0.1248 -0.2115
  514W        W 2714  20.249   5.223   9.120  0.1027  0.3520  0.0551
  515W        W 2715  19.265   3.772   3.988  0.0253 -0.1754 -0.0188
  516W        W 2716  15.992   2.515  31.897 -0.0129 -0.1298 -0.1408
  517W        W 2717  21.657   3.852   7.134  0.3504  0.0988  0.2092
  518W        W 2718  11.073   0.575   7.657  0.4218  0.0577  0.3156
  519W        W 2719  13.898   2.558   7.849 -0.0612 -0.3892  0.5321
  520W        W 2720  24.351   1.222   0.148  0.0842 -0.0498 -0.1499
  521W        W 2721   9.742   4.641  25.060 -0.0476  0.1886 -0.0518
  522W        W 2722   9.140   4.955   0.954  0.3236 -0.2937  0.0305
  523W        W 2723  14.480   3.489   1.473 -0.0270  0.1079 -0.2039
  524W        W 2724  13.702   0.405  27.214 -0.0530 -0.2753  0.2639
  525W        W 2725  16.311   1.787  29.632  0.1945  0.0771  0.1100
  526W        W 2726  23.009   2.995   8.729 -0.1880 -0.0120  0.0158
  527W        W 2727   8.278   4.552  14.057  0.1282  0.0940 -0.1304
  528W        W 2728  11.742   2.076  35.893 -0.0913 -0.2475 -0.1238
  529W        W 2729  24.934   2.146  15.346  0.1789  0.0169 -0.1936
  530W        W 2730  10.531   3.722  28.947 -0.2222  0.0245 -0.1808
  531W        W 2731   0.276   0.957  12.275 -0.0025 -0.2125 -0.0130
  532W        W 2732   4.498   3.499  33.331  0.0296  0.0405 -0.1976
  533W        W 2733  21.454   5.580  20.406  0.0967 -0.0724  0.2124
  534W        W 2734  11.073   3.395   0.162 -0.0552  0.2021 -0.1297
  535W        W 2735   7.050   5.622  36.086 -0.1339  0.1158 -0.2006
  536W        W 2736  12.964   6.567  14.418  0.1828  0.1485  0.1022
  537W        W 2737   2.635   4.011  31.863  0.0350 -0.0387 -0.0277
  538W        W 2738   4.499   6.115  24.991  0.3418 -0.1777 -0.0584
  539W        W 2739  18.544   4.778  34.564  0.0059  0.0022 -0.0750
  540W        W 2740  15.675   4.615   8.210  0.0276 -0.0174 -0.3481
  541W        W 2741   7.251   0.966   0.853  0.1161  0.0261  0.2609
  542W        W 2742  21.336   2.416  22.104  0.1608 -0.0868  0.1093
  543W        W 2743   9.421   1.105   3.355 -0.1365 -0.0340  0.1461
  544W        W 2744  11.765   1.575  23.092 -0.0853  0.1653 -0.0858
  545W        W 2745  10.165   0.489   1.254  0.1685 -0.2903  0.1420
  546W        W 2746  12.666   3.199  26.407 -0.1093 -0.2911 -0.0963
  547W        W 2747  21.452   5.317   6.985 -0.1481 -0.3987 -0.0591
  548W        W 2748  17.078   4.716  26.399  0.0527  0.2277  0.3178
  549W        W 2749  25.151   5.450  35.347  0.0299  0.0344  0.0403
  550W        W 2750  19.070   5.104   2.576  0.2102 -0.0079  0.1398
  551W        W 2751  22.768   1.067  26.191 -0.0060 -0.0188 -0.1926
  552W        W 2752  10.293   2.259  11.263  0.0253 -0.2197  0.1365
  553W        W 2753   5.267   0.014  11.175  0.3116 -0.0420  0.0162
  554W        W 2754   0.587   2.223  25.265  0.0520  0.0106 -0.3936
  555W        W 2755  25.955   2.207  33.269  0.1074  0.2844  0.2415
  556W        W 2756   1.346   2.594   4.266 -0.0065 -0.2103 -0.0226
  557W        W 2757  18.456   0.379  26.071 -0.3643 -0.1209  0.0197
  558W        W 2758   5.835   6.579   7.855  0.0197 -0.2454  0.1164
  559W        W 2759   1.481   4.175  21.905  0.2014  0.1493 -0.2231
  560W        W 2760   3.339   4.975  27.340 -0.0707 -0.1821  0.1391
  561W        W 2761  14.937   1.115  30.836  0.3417  0.1870 -0.0755
  562W        W 2762  12.836   1.791  10.176  0.4738 -0.1825  0.0061
  563W        W 2763  17.562   1.534  27.888 -0.1777  0.2038 -0.0901
  564W        W 2764   3.764   0.419  10.102 -0.2215  0.1018  0.0550
  565W        W 2765   7.469   4.258  26.518  0.0465  0.2087 -0.1156
  566W        W 2766   6.634   1.160  35.546 -0.0800 -0.1020 -0.1105
  567W        W 2767  13.584   3.360   0.951  0.0764 -0.4119  0.0473
  568W        W 2768  18.379   1.492  22.767  0.3363  0.3889 -0.1096
  569W        W 2769  17.283   5.978   5.568 -0.1598  0.3884 -0.0794
  570W        W 2770  10.533   2.043  24.326 -0.0565  0.0088  0.0017
  571W        W 2771   5.383   5.210  26.052  0.2064 -0.1952  0.3431
  572W        W 2772  18.963   1.113   1.211  0.1986  0.2463  0.0211
  573W        W 2773  18.846   3.155  20.898  0.0481  0.1353 -0.2031
  574W        W 2774   1.085   5.443   1.376 -0.2519 -0.0584 -0.0540
  575W        W 2775  20.538   1.970   4.685 -0.1168  0.1953  0.3214
  576W        W 2776   8.067   2.215  11.231  0.0895  0.2834  0.1389
  577W        W 2777   7.235   1.105   5.708  0.0381 -0.0406 -0.2060
  578W        W 2778  23.845   1.303  27.744  0.0483  0.0307 -0.3403
  579W        W 2779  14.543   5.102  22.877  0.2477  0.0155  0.1725
  580W        W 2780   5.304   3.844  32.879  0.0215 -0.1311  0.3717
  581W        W 2781   1.715   3.678   3.822 -0.0173  0.0158 -0.0525
  582W        W 2782   8.282   5.990  26.811 -0.2814 -0.1152  0.0410
  583W        W 2783  23.423   1.115  34.569  0.2555 -0.0750 -0.1425
  584W        W 2784   4.035   3.971  26.008  0.0007  0.3244  0.2371
  585W        W 2785   4.388   1.900  24.750  0.0381  0.1743 -0.1734
  586W        W 2786  26.044   1.625  23.999 -0.0020  0.0504  0.0920
  587W        W 2787   0.756   0.863  24.175  0.0361 -0.2004  0.0272
  588W        W 2788   3.173   3.069   5.985 -0.3089 -0.0058 -0.0712
  589W        W 2789  14.343   2.641   5.350  0.1664  0.1350  0.0377
  590W        W 2790  23.634   0.976   7.490  0.0540 -0.0013  0.0569
  591W        W 2791   7.238   1.069  25.776  0.2219 -0.0518 -0.0667
  592W        W 2792   1.118   3.787  26.089  0.0989 -0.2472 -0.1624
  593W        W 2793  20.358   6.555  30.554 -0.0899 -0.1450 -0.0761
  594W        W 2794   9.180   0.393   4.553  0.1667 -0.1437  0.1564
  595W        W 2795  17.411   3.134  26.393 -0.1838  0.2730  0.0892
  596W        W 2796   0.002   5.142  24.365 -0.0474  0.1171  0.2626
  597W        W 2797  16.849   0.677  31.478  0.1285  0.1128  0.1864
  598W        W 2798   0.399   2.948  35.434  0.0398  0.1824  0.0183
  599W        W 2799  14.387   1.759  30.465 -0.1031  0.2036 -0.3492
  600W        W 2800  17.439   5.407   0.342 -0.2299  0.1254  0.3125
  601W        W 2801  12.194   1.522   2.830 -0.2518  0.2685 -0.1527
  602W        W 2802   7.952   1.687  34.591  0.2339 -0.0380  0.0339
  603W        W 2803  23.068   4.122  31.517 -0.1605 -0.3310 -0.3549
  604W        W 2804   4.790   4.071  35.471 -0.1339 -0.0051 -0.0370
  605W        W 2805  25.606   5.867  22.896 -0.1234  0.1153  0.2813
  606W        W 2806  10.938   2.677  34.015 -0.3001 -0.0669  0.0610
  607W        W 2807  15.617   4.088   2.261  0.2811  0.1502 -0.1446
  608W        W 2808  17.898   5.414   1.836  0.0875 -0.1350 -0.1365
  609W        W 2809  18.273   6.222  22.421 -0.1334  0.1228 -0.0910
  610W        W 2810  26.313   2.139  23.229  0.1002 -0.1569  0.0573
  611W        W 2811  15.614   3.176  26.504 -0.1017 -0.1548  0.3809
  612W        W 2812  25.409   2.061  27.497  0.1771  0.2089 -0.4782
  613W        W 2813   4.526   2.254  21.476 -0.2203  0.0201  0.0226
  614W        W 2814   6.247   1.602   5.777  0.0492 -0.0998  0.0979
  615W        W 2815   6.968   5.603  24.244 -0.2363 -0.2849 -0.1731
  616W        W 2816   7.422   3.719   1.697 -0.5065  0.2836 -0.0995
  617W        W 2817  21.800   6.211  27.094  0.0774  0.0917 -0.0594
  618W        W 2818   9.172   0.494  30.784 -0.2618  0.0025 -0.2127
  619W        W 2819  24.621   5.528  27.723 -0.2056  0.0852  0.3747
  620W        W 2820  23.648   4.752   4.180 -0.1686 -0.0584  0.2589
  621W        W 2821   7.558   4.422  35.667 -0.3733  0.1177 -0.0248
  622W        W 2822  12.711   2.446   0.293  0.1344  0.1165 -0.0746
  623W        W 2823   1.832   5.333   6.929 -0.3010  0.0534 -0.2663
  624W        W 2824  15.281   1.344   1.534  0.1281  0.4173  0.0560
  625W        W 2825  24.390   4.795  34.971 -0.0106 -0.0664  0.0552
  626W        W 2826  18.014   1.939  12.782  0.1883 -0.3593  0.4860
  627W        W 2827   7.188   2.822  31.793 -0.0433  0.0734 -0.0403
  628W        W 2828  23.854   5.988  13.297 -0.1665 -0.2581 -0.0663
  629W        W 2829  14.801   4.966  10.816 -0.0670 -0.2938  0.0176
  630W        W 2830  21.730   5.532  26.104  0.0664 -0.1982  0.2724
  631W        W 2831   4.519   4.586  11.527  0.1084  0.4778  0.0158
  632W        W 2832  18.014   6.262   6.455  0.0187  0.0120  0.0472
  633W        W 2833   1.317   5.836  35.057  0.1814  0.0029  0.2602
  634W        W 2834   9.379   6.540  34.295  0.1200 -0.1581 -0.2589
  635W        W 2835   8.242   5.210  10.634  0.1289 -0.0289 -0.1769
  636W        W 2836   9.889   4.906   7.073  0.2334 -0.0477  0.2108
  637W        W 2837  16.445   6.428  31.705 -0.1886  0.3394 -0.1389
  638W        W 2838  22.608   3.678   4.589 -0.1295 -0.4589  0.0825
  639W        W 2839   9.507   2.360  11.662  0.0199  0.1585 -0.3381
  640W        W 2840  24.726   2.985  11.016  0.1351  0.0035  0.0212
  641W        W 2841  18.257   2.202  20.772  0.0302 -0.1550 -0.0321
  642W        W 2842   1.063   5.621  14.429 -0.2093 -0.0303  0.1676
  643W        W 2843   6.400   5.454   0.523 -0.2451 -0.0667  0.0449
  644W        W 2844   3.905   5.804  25.311 -0.1192 -0.1708  0.0189
  645W        W 2845   8.661   0.651  29.897 -0.0806 -0.2290 -0.0352
  646W        W 2846  15.340   5.517   6.404 -0.0912 -0.1301  0.2573
  647W        W 2847  12.812   5.144  29.400 -0.1724  0.0588 -0.1249
  648W        W 2848  24.884   5.561   0.946 -0.1085 -0.2102 -0.0420
  649W        W 2849  12.827   2.446   4.258 -0.0186  0.5176  0.0017
  650W        W 2850   5.524   5.656  23.923  0.0487  0.0911 -0.0764
  651W        W 2851   1.300   3.963   5.369 -0.1115 -0.5360 -0.3146
  652W        W 2852  13.515   0.142   3.371  0.1962 -0.1249 -0.0701
  653W        W 2853  11.689   4.809  21.144  0.1899  0.1549 -0.3010
  654W        W 2854   1.962   0.646  29.825  0.1013  0.0077 -0.0416
  655W        W 2855  20.625   4.050  35.929 -0.0852 -0.3724 -0.3613
  656W        W 2856  22.611   3.447  33.467 -0.1947 -0.2082  0.3412
  657W        W 2857  26.055   5.760  23.123  0.1815  0.2865 -0.0648
  658W        W 2858  22.273   3.190  24.149 -0.0009  0.2013 -0.2166
  659W        W 2859  20.690   4.567  33.947  0.0496 -0.0497  0.1521
  660W        W 2860  18.006   3.135  36.111 -0.0317  0.2051  0.2451
  661W        W 2861   5.182   4.972  33.512 -0.3154  0.0878  0.0128
  662W        W 2862  18.598   4.529   0.875  0.2370  0.1666 -0.1675
  663W        W 2863  25.979   0.171  27.286 -0.2102 -0.1929 -0.1098
  664W        W 2864  23.829   1.222   9.720 -0.1142 -0.0222  0.0094
  665W        W 2865   5.996   1.849  13.068 -0.4254 -0.0445  0.0357
  666W        W 2866   5.742   4.716   3.676  0.4777  0.0136 -0.2044
  667W        W 2867  21.911   5.216  32.966 -0.2339  0.1344  0.1818
  668W        W 2868   8.592   1.458  30.439 -0.1849 -0.0661 -0.1579
  669W        W 2869   6.641   0.609  14.221 -0.1196  0.2237 -0.0424
  670W        W 2870   9.837   5.175  29.313  0.4367 -0.1758  0.2323
  671W        W 2871  10.719   2.878  11.487  0.3109  0.0591  0.1768
  672W        W 2872   8.687   4.019  32.779 -0.1590  0.0229 -0.1063
  673W        W 2873   5.691   5.491  22.873  0.0336 -0.0593  0.2219
  674W        W 2874  22.354   5.031   8.943 -0.2502  0.0020  0.4779
  675W        W 2875  22.386   3.695  20.942 -0.1273  0.3369 -0.3821
  676W        W 2876  12.512   1.971   0.321  0.0375 -0.1067  0.0641
  677W        W 2877  12.330   3.143   7.555 -0.1005 -0.1817 -0.2633
  678W        W 2878  20.922   0.947  22.728 -0.1801 -0.0574  0.0721
  679W        W 2879  22.118   3.743   4.369  0.1386 -0.1741 -0.0040
  680W        W 2880  10.396   6.469   5.672 -0.0857  0.1043  0.1968
  681W        W 2881  11.961   0.011  24.878  0.1720 -0.2362  0.0106
  682W        W 2882  20.054   1.621  21.799 -0.0045  0.0313  0.0756
  683W        W 2883  13.303   3.747   9.621 -0.0278  0.1187  0.1375
  684W        W 2884   9.939   4.234   2.383  0.1238  0.2607  0.1382
  685W        W 2885   0.804   6.559  25.901 -0.1054  0.2461  0.2749
  686W        W 2886   6.148   4.516  11.946  0.0365 -0.1018 -0.0718
  687W        W 2887  12.967   3.299  11.330 -0.1098  0.0856 -0.0588
  688W        W 2888   2.284   2.494  14.133  0.2563  0.1088  0.3239
  689W        W 2889  10.022   6.007   6.373  0.4533  0.0053  0.2044
  690W        W 2890  12.506   5.839  28.836 -0.0175  0.0584  0.0632
  691W        W 2891  19.728   5.691  24.012 -0.2016  0.0982  0.0369
  692W        W 2892  24.159   2.713  26.161  0.1832  0.3920 -0.0638
  693W        W 2893  13.299   4.171  33.103 -0.0859 -0.2542  0.1944
  694W        W 2894  20.470   1.808  20.970  0.2518  0.4010 -0.0334
  695W        W 2895  20.675   5.088  33.773 -0.0494 -0.0645 -0.1340
  696W        W 2896  13.184   4.466   7.366  0.1376  0.1170  0.0324
  697W        W 2897  11.974   2.200  26.934  0.2431  0.0070 -0.2095
  698W        W 2898  12.610   0.989  26.500 -0.0188 -0.1188 -0.1576
  699W        W 2899  13.828   0.721  24.403  0.0967 -0.2844  0.2809
  700W        W 2900   3.526   3.443  28.517 -0.2230 -0.0204  0.2232
  701W        W 2901   7.025   2.312  13.984 -0.0780  0.0197  0.0506
  702W        W 2902   5.910   2.480  11.988  0.0982 -0.2742 -0.1754
  703W        W 2903  11.831   6.215  30.896  0.0847  0.0807  0.1349
  704W        W 2904   7.455   6.435  13.897  0.1889 -0.2572  0.1906
  705W        W 2905   7.832   3.579  22.058 -0.1785 -0.1678  0.1808
  706W        W 2906  13.496   0.313   6.864  0.1113 -0.3446  0.0683
  707W        W 2907   3.174   5.451  34.102  0.2029 -0.1164 -0.2142
  708W        W 2908  25.695   0.006   3.943 -0.2294 -0.1709 -0.0431
  709W        W 2909  20.613   1.568  28.117  0.0970 -0.1721  0.1459
  710W        W 2910  15.030   6.026  31.409 -0.1007  0.2456 -0.2896
  711W        W 2911   4.918   5.443  30.276 -0.0611  0.0023 -0.1832
  712W        W 2912  18.698   4.100   2.522 -0.2221 -0.0374  0.2757
  713W        W 2913  14.414   5.745  33.909 -0.1496  0.2132  0.1609
  714W        W 2914  13.648   0.771   9.060  0.0726 -0.1331 -0.0858
  715W        W 2915  20.764   0.826   8.891  0.0142  0.0726 -0.0902
  716W        W 2916  13.690   2.386   9.681  0.1323 -0.1027  0.1276
  717W        W 2917  13.465   4.813   1.768  0.0787  0.1532  0.1598
  718W        W 2918  13.748   4.737  26.955 -0.0452  0.1463 -0.3514
  719W        W 2919   5.452   0.538  28.016  0.0061 -0.0155 -0.3911
  720W        W 2920  26.061   4.342   1.294  0.0200  0.2481 -0.1397
  721W        W 2921  18.136   0.594  34.892 -0.1393 -0.0684  0.2060
  722W        W 2922  16.494   4.372  11.040 -0.0414  0.1087 -0.1550
  723W        W 2923  22.016   2.024  31.882  0.1949 -0.0565 -0.1503
  724W        W 2924   1.227   6.152  30.386  0.6475  0.2724 -0.0327
  725W        W 2925   0.408   3.585  21.169  0.0865  0.1073 -0.0580
  726W        W 2926  15.705   5.423  22.884 -0.0913  0.2111  0.1487
  727W        W 2927  10.418   1.968   3.449 -0.2098  0.1432 -0.1317
  728W        W 2928  21.425   3.914  12.261  0.0630  0.0811  0.2067
  729W        W 2929   3.003   1.002  13.849  0.0887  0.0368 -0.0745
  730W        W 2930  18.526   6.258   0.700 -0.0743 -0.0451  0.2196
  731W        W 2931   8.635   1.558   4.762  0.1056 -0.1201 -0.0200
  732W        W 2932  24.091   2.098  24.898 -0.0152 -0.1988  0.1270
  733W        W 2933   7.191   2.665  14.510  0.0546 -0.2089  0.0078
  734W        W 2934  10.545   3.347  32.120  0.0938  0.1522  0.0710
  735W        W 2935   5.081   1.142  14.369  0.2530  0.0016 -0.3583
  736W        W 2936  24.210   0.021  15.265  0.0432 -0.0636 -0.0752
  737W        W 2937  25.344   0.315  24.301  0.0301  0.1081 -0.1238
  738W        W 2938  24.738   0.982  36.089  0.1873  0.3680 -0.2731
  739W        W 2939  16.577   5.205   3.779  0.1848 -0.0613  0.0448
  740W        W 2940  16.295   5.158  22.473  0.1746  0.2629 -0.1644
  741W        W 2941   1.142   4.867   5.670  0.0779  0.0584 -0.0545
  742W        W 2942  21.451   3.535  14.913 -0.1675  0.0112  0.1697
  743W        W 2943  10.991   2.699   7.516  0.4140  0.3046  0.2119
  744W        W 2944  16.655   2.371   7.916 -0.1028 -0.0639 -0.2692
  745W        W 2945   3.425   4.473  22.807  0.0402  0.1362 -0.0252
  746W        W 2946   3.760   3.633  27.069 -0.0732 -0.0451  0.0042
  747W        W 2947  17.039   5.655   4.783 -0.1198 -0.0810 -0.4459
  748W        W 2948   3.329   2.743  32.361  0.0549  0.1106 -0.0454
  749W        W 2949   5.798   1.444  23.803 -0.1645 -0.0551  0.1839
  750W        W 2950   4.876   1.209  24.140  0.2024 -0.0446 -0.0069
  751W        W 2951   5.929   3.550   9.891 -0.1948  0.1266 -0.0921
  752W        W 2952   5.045   5.525   4.699  0.1673 -0.1228 -0.1317
  753W        W 2953  21.455   0.418   3.824 -0.0347 -0.0784  0.1649
  754W        W 2954  13.220   5.704  13.280  0.1076  0.1881  0.1925
  755W        W 2955   7.234   3.516  28.257 -0.1701  0.0168 -0.1046
  756W        W 2956   8.440   0.424  11.358  0.2705 -0.1275  0.1680
  757W        W 2957   4.810   5.634   6.813 -0.1949  0.0242 -0.1896
  758W        W 2958   6.700   5.931   2.985 -0.2381  0.0070  0.2113
  759W        W 2959  21.551   2.019  12.870 -0.0678  0.1077 -0.1960
  760W        W 2960  17.492   5.602  32.592  0.1556  0.3897 -0.0992
  761W        W 2961  22.125   5.257  35.515 -0.0818 -0.0120 -0.1169
  762W        W 2962   3.340   0.079   0.712  0.0120 -0.1171  0.1003
  763W        W 2963   5.578   2.674   5.283 -0.0012  0.1038  0.0668
  764W        W 2964  18.734   3.784  26.791 -0.2432  0.1562  0.0360
  765W        W 2965  23.364   1.953  33.507  0.4790  0.0763 -0.1022
  766W        W 2966   5.749   4.924  31.613  0.0408 -0.0737 -0.0684
  767W        W 2967  17.108   1.590  21.391 -0.1143 -0.1156 -0.1193
  768W        W 2968   1.963   0.326   6.729 -0.1319 -0.0164 -0.1910
  769W        W 2969   9.311   4.392   3.888 -0.0380 -0.0793 -0.2035
  770W        W 2970  15.698   3.109  13.842  0.0562 -0.0063  0.2593
  771W        W 2971  14.145   3.874  14.718 -0.2573  0.0587 -0.0910
  772W        W 2972  16.159   3.574   0.123  0.0052  0.0122  0.0075
  773W        W 2973  16.802   6.545  33.485 -0.0289 -0.2289 -0.1219
  774W        W 2974   4.006   4.120   4.269  0.1450  0.1451  0.0004
  775W        W 2975  17.283   5.862  34.989  0.1069  0.1123 -0.0214
  776W        W 2976   9.204   5.536   6.524 -0.0322 -0.1568  0.1809
  777W        W 2977   7.130   6.091   5.289  0.0492  0.0271 -0.0944
  778W        W 2978  24.485   2.719  25.771 -0.1448 -0.0442  0.1838
  779W        W 2979   6.078   3.425  34.352 -0.0346  0.0786  0.1278
  780W        W 2980  16.859   0.388  28.123  0.0389 -0.1989  0.0678
  781W        W 2981  19.888   6.308  21.897 -0.0464 -0.0743  0.4023
  782W        W 2982   2.629   4.298   9.420  0.0562 -0.2442 -0.1671
  783W        W 2983   6.498   5.543  24.022  0.1475 -0.1727 -0.1282
  784W        W 2984  22.363   0.720  35.681  0.0098 -0.3498  0.1029
  785W        W 2985   1.364   0.877  21.817 -0.0240  0.1060 -0.3594
  786W        W 2986   4.961   6.029  35.042  0.0265 -0.2311  0.0144
  787W        W 2987  13.564   4.706   5.564 -0.1594  0.1788 -0.1602
  788W        W 2988  15.121   1.531  34.522  0.0560  0.1411  0.1118
  789W        W 2989   2.199   5.926   1.780  0.0021 -0.0603 -0.1102
  790W        W 2990   4.263   4.763   3.315 -0.0985  0.1672 -0.0601
  791W        W 2991  19.116   2.850  35.299  0.1601  0.1346 -0.0536
  792W        W 2992  11.376   4.139  14.788 -0.1695  0.0983  0.1954
  793W        W 2993  22.455   0.645  13.098  0.0858 -0.0471 -0.2330
  794W        W 2994  23.707   1.263  10.578  0.0080  0.1980 -0.1301
  795W        W 2995   0.056   0.072  31.567  0.4317 -0.1979  0.1021
  796W        W 2996   8.213   1.453   6.572  0.0462 -0.0753  0.0387
  797W        W 2997  25.957   5.626  31.944  0.0315 -0.1652  0.1207
  798W        W 2998  19.140   3.946  30.293 -0.2005 -0.2879 -0.2326
  799W        W 2999  18.356   1.108  35.705  0.0714 -0.4365 -0.0310
  800W        W 3000  18.107   3.160  31.565  0.0518  0.0801 -0.0995
  801W        W 3001  20.017   0.575  20.214  0.0117  0.1251 -0.3431
  802W        W 3002   1.132   5.673  15.058 -0.1179 -0.1713 -0.1862
  803W        W 3003  21.748   1.528  22.991 -0.3727  0.1372 -0.2650
  804W        W 3004  20.487   2.996  12.864  0.1090  0.1518 -0.0623
  805W        W 3005  21.135   4.197   8.074  0.1026  0.0762 -0.1289
  806W        W 3006   4.635   3.857   8.782  0.3436  0.0733  0.2145
  807W        W 3007  22.610   3.045  34.233  0.0396  0.0248 -0.0014
  808W        W 3008   9.460   4.385   8.861 -0.1233  0.0406  0.2835
  809W        W 3009  23.170   6.391   1.492 -0.0424 -0.0429  0.1089
  810W        W 3010   2.186   4.246  33.123 -0.0578  0.1379 -0.0070
  811W        W 3011  24.374   3.810   5.248  0.0416  0.1273  0.0754
  812W        W 3012  22.072   4.135  25.594 -0.1304 -0.0530 -0.1278
  813W        W 3013  21.230   2.839   5.327 -0.0641 -0.1556 -0.0247
  814W        W 3014  16.145   5.216  27.430  0.0301 -0.0133  0.1987
  815W        W 3015  19.406   0.572  11.643 -0.1511  0.1407  0.3984
  816W        W 3016   9.301   4.894  30.684 -0.0494 -0.0115  0.0525
  817W        W 3017  19.969   4.670   7.346 -0.0549  0.2712 -0.0031
  818W        W 3018  12.770   3.043  32.908 -0.2876 -0.0768 -0.2445
  819W        W 3019   3.495   4.739  30.798  0.0935 -0.1578 -0.0699
  820W        W 3020   9.505   3.444  30.735 -0.0109 -0.1542  0.1453
  821W        W 3021   7.548   2.174  32.324 -0.2032 -0.2532 -0.1470
  822W        W 3022   4.440   5.941  32.978 -0.0319  0.2380  0.0371
  823W        W 3023  18.904   1.919  13.018 -0.1465 -0.2608 -0.0775
  824W        W 3024   2.676   4.403  29.103  0.1818 -0.1542 -0.1314
  825W        W 3025  15.256   2.152   2.705 -0.4779 -0.0167 -0.1090
  826W        W 3026  12.551   2.377   2.429  0.0046 -0.0441  0.1500
  827W        W 3027  14.420   1.345  27.975 -0.0903 -0.2518 -0.2184
  828W        W 3028  17.207   4.236  32.821  0.0982 -0.1754  0.0137
  829W        W 3029   3.105   2.289  33.862 -0.0982  0.1088 -0.0176
  830W        W 3030  22.115   3.934  10.538  0.0403 -0.0436  0.2050
  831W        W 3031   8.884   1.278  30.973  0.0572 -0.2253 -0.1275
  832W        W 3032  10.914   3.401   8.336  0.0383 -0.4716  0.1841
  833W        W 3033  16.346   1.031   5.532 -0.2907  0.0871  0.0846
  834W        W 3034   1.620   0.882  24.441  0.0551  0.3502  0.2454
  835W        W 3035   8.251   1.370   8.415  0.0604 -0.0810  0.3005
  836W        W 3036  16.689   5.768  21.099  0.1322  0.1026  0.0394
  837W        W 3037   0.803   0.517   0.801 -0.3098  0.0631 -0.0188
  838W        W 3038   4.733   1.408  27.073  0.0749 -0.1312  0.1679
  839W        W 3039  24.241   2.348   8.171 -0.0269  0.2363  0.0446
  840W        W 3040   6.852   1.849  20.932  0.0600 -0.1941  0.3201
  841W        W 3041   2.726   2.241  35.255  0.0018 -0.1526 -0.1765
  842W        W 3042   3.183   1.325   4.959 -0.0154  0.2846  0.1309
  843W        W 3043  26.203   6.523  31.155 -0.2117 -0.1766 -0.3176
  844W        W 3044  22.821   4.645  12.262 -0.3472  0.0366 -0.0473
  845W        W 3045   6.018   2.933  12.259 -0.2187  0.3201 -0.0101
  846W        W 3046   8.085   2.980  14.180  0.0176  0.0523  0.1125
  847W        W 3047  25.302   1.922  35.347 -0.1591  0.1611 -0.3534
  848W        W 3048   3.299   0.818   4.914  0.4450 -0.0779 -0.2035
  849W        W 3049  10.955   6.207  32.062 -0.0100  0.1114  0.0291
  850W        W 3050   8.338   3.396  10.662  0.0173 -0.0497  0.0738
  851W        W 3051  11.647   2.000   0.297  0.1443  0.0047  0.1729
  852W        W 3052  15.670   5.766  14.726  0.1765 -0.0552  0.1875
  853W        W 3053  22.734   4.918  33.349 -0.2101 -0.0486  0.1694
  854W        W 3054  26.304   0.441  14.351 -0.0723 -0.2414 -0.0370
  855W        W 3055   3.496   5.031  28.505  0.1295 -0.6156  0.1079
  856W        W 3056   2.591   5.356  29.184 -0.0167 -0.0167 -0.1684
  857W        W 3057  17.448   3.553  22.928 -0.0146  0.0705 -0.3284
  858W        W 3058  18.603   0.835   9.664 -0.0199 -0.0255  0.2534
  859W        W 3059   1.615   2.330  27.512  0.0467 -0.2259 -0.2974
  860W        W 3060   3.787   2.025  34.405  0.0023 -0.0652  0.3318
  861W        W 3061   4.492   4.811  15.065  0.3531  0.0831  0.1162
  862W        W 3062  16.362   5.288   2.000 -0.0639 -0.2292  0.3950
  863W        W 3063  16.063   0.817  15.742  0.2668  0.1529  0.1511
  864W        W 3064  23.176   4.948  25.397 -0.1132 -0.1769 -0.0558
  865W        W 3065  22.352   3.902  36.136 -0.0032 -0.4300  0.1356
  866W        W 3066   4.823   5.604  32.356 -0.0744  0.2369  0.2633
  867W        W 3067  21.619   1.673  29.409 -0.0754 -0.2610 -0.3919
  868W        W 3068   4.934   2.603  30.943 -0.0230  0.0842 -0.1279
  869W        W 3069  12.874   0.025  13.849 -0.1381  0.0570 -0.0052
  870W        W 3070   4.081   5.936  12.115 -0.4039 -0.0060  0.0619
  871W        W 3071  17.867   1.586   0.856  0.1154 -0.1103 -0.1268
  872W        W 3072  18.048   5.713  29.324  0.0079  0.0921  0.2594
  873W        W 3073  20.794   5.444  23.660 -0.0930  0.0076 -0.0944
  874W        W 3074  10.754   0.293  33.647 -0.1468 -0.1749 -0.2016
  875W        W 3075  20.048   1.151  11.008 -0.0086 -0.2400  0.1857
  876W        W 3076   7.755   2.167  26.940 -0.0251 -0.0632 -0.2454
  877W        W 3077   2.807   1.067  22.957  0.0890 -0.1407 -0.0297
  878W        W 3078   0.083   5.004   3.884 -0.2802  0.1486  0.0967
  879W        W 3079  10.652   6.154  30.151 -0.1345  0.0229 -0.1628
  880W        W 3080  19.136   5.427  14.119  0.2043  0.0736 -0.0290
  881W        W 3081  24.355   5.156   2.769  0.2124  0.0337 -0.0362
  882W        W 3082  19.462   4.448  23.958 -0.1715 -0.1651 -0.1612
  883W        W 3083   0.588   0.845   7.310  0.1944 -0.0210  0.1845
  884W        W 3084   1.234   1.261  26.120  0.1481  0.2915 -0.0115
  885W        W 3085   8.151   3.903  34.486 -0.0718 -0.2264 -0.0609
  886W        W 3086  12.147   1.877  27.873 -0.1648  0.1478  0.0003
  887W        W 3087   3.280   4.129  24.148 -0.0969  0.1020 -0.0876
  888W        W 3088  14.074   1.978   0.180 -0.0539 -0.0497  0.1156
  889W        W 3089  10.612   5.966   5.363 -0.1218  0.3715 -0.1968
  890W        W 3090  17.660   4.647  23.156  0.0126 -0.1629  0.0477
  891W        W 3091  22.385   3.691  23.181  0.1056  0.3709  0.1828
  892W        W 3092  15.547   0.349   6.982 -0.1571 -0.2086 -0.3044
  893W        W 3093  26.344   1.838   4.350  0.0214 -0.5004  0.2744
  894W        W 3094   4.750   1.803   9.429 -0.3933  0.0874 -0.1541
  895W        W 3095  12.297   5.689  30.246  0.0746 -0.0081  0.1528
  896W        W 3096  18.607   2.003  30.709 -0.1780 -0.0571  0.0986
  897W        W 3097   6.821   1.662   2.300 -0.0310  0.0594 -0.1453
  898W        W 3098  14.015   2.432   6.295  0.0256 -0.0422  0.0538
  899W        W 3099   4.522   4.473  35.162 -0.1532  0.0730 -0.3056
  900W        W 3100  26.078   1.473   6.005  0.3842 -0.0212  0.0354
  901W        W 3101  20.558   2.170   9.107  0.1010 -0.2932 -0.0108
  902W        W 3102  15.530   0.783  12.822  0.0691 -0.0014  0.1284
  903W        W 3103  15.539   1.136  26.603  0.0559 -0.0615  0.0229
  904W        W 3104  15.275   1.060  15.269 -0.2369 -0.4586  0.1568
  905W        W 3105   5.237   3.135   6.664  0.1433 -0.1064 -0.1095
  906W        W 3106   8.478   3.397   2.304 -0.1015 -0.1049 -0.0064
  907W        W 3107  14.011   2.710   2.811  0.0073  0.1154 -0.5295
  908W        W 3108  22.244   6.382  22.501  0.0128 -0.3385  0.0354
  909W        W 3109  11.852   2.592   7.144 -0.1876  0.5331  0.2927
  910W        W 3110   5.990   2.920  32.180 -0.0861  0.1516  0.5102
  911W        W 3111  22.808   5.759  34.865 -0.0074 -0.1850 -0.3452
  912W        W 3112   9.191   0.427  28.835 -0.0230 -0.0033  0.1259
  913W        W 3113  23.490   1.971  13.387 -0.3131  0.2337  0.1729
  914W        W 3114  15.992   5.360   9.011  0.0785 -0.0079  0.2237
  915W        W 3115  20.082   4.777  23.800  0.2327 -0.0211 -0.0819
  916W        W 3116  15.150   2.675  35.378 -0.1398  0.5543 -0.0539
  917W        W 3117  13.760   5.283  24.250  0.1718  0.1235 -0.2301
  918W        W 3118  16.296   4.193   0.402 -0.0739 -0.1589  0.1847
  919W        W 3119  23.895   3.484  35.961  0.0486  0.0159 -0.1746
  920W        W 3120  12.351   5.184   3.628 -0.0655 -0.0263  0.0458
  921W        W 3121  14.466   0.855  13.274  0.3601 -0.3517  0.1842
  922W        W 3122  20.403   0.914  33.012  0.0449  0.0908  0.0294
  923W        W 3123   6.074   2.348   0.751  0.2799 -0.2514 -0.0915
  924W        W 3124  12.704   2.148  33.349  0.2524  0.1593 -0.0879
  925W        W 3125   0.806   4.267   6.903 -0.0181  0.0245  0.0178
  926W        W 3126  18.217   5.572   8.074  0.0094 -0.0669 -0.0518
  927W        W 3127  22.540   5.716  24.087 -0.0091 -0.2217  0.4538
  928W        W 3128  18.443   0.356  24.118  0.1193  0.3113  0.0896
  929W        W 3129   4.161   5.966  11.619  0.2653  0.0614 -0.2501
  930W        W 3130  20.769   0.303  26.819  0.0865  0.0659  0.1046
  931W        W 3131  22.257   2.665  34.976 -0.0472 -0.2599  0.2029
  932W        W 3132   8.845   5.423  14.344  0.0044 -0.1679 -0.1550
  933W        W 3133   4.165   1.951  21.793 -0.0722 -0.1997 -0.0189
  934W        W 3134  19.299   4.880  30.844  0.2839  0.0082  0.1328
  935W        W 3135   5.497   5.247  21.466  0.1729 -0.0050 -0.2516
  936W        W 3136  17.080   2.156   1.163  0.0340  0.0027  0.2155
  937W        W 3137  24.297   2.547   6.599 -0.0151  0.2347  0.1744
  938W        W 3138   7.345   1.903   5.087 -0.0015  0.1159  0.0262
  939W        W 3139  11.887   2.216  29.232 -0.0587 -0.3777  0.2263
  940W        W 3140  15.586   1.574  34.556 -0.0789 -0.2426 -0.1052
  941W        W 3141  25.316   6.066  29.083 -0.0945  0.1118 -0.2734
  942W        W 3142  24.461   2.359  28.563  0.3590 -0.0394 -0.2097
  943W        W 3143   8.944   1.762  10.743  0.0119  0.3909 -0.0909
  944W        W 3144  19.835   5.028  11.638 -0.1098 -0.0876  0.0060
  945W        W 3145   1.600   2.201  20.795  0.2667  0.1624 -0.3115
  946W        W 3146   5.461   2.542  26.783  0.3738 -0.1658 -0.1675
  947W        W 3147   3.677   5.154  34.520  0.0333  0.1681  0.1304
  948W        W 3148  26.109   3.449  27.408  0.2586  0.2661  0.3131
  949W        W 3149  15.124   2.349  26.914  0.2314 -0.0244  0.2538
  950W        W 3150  19.685   1.775  28.447  0.1850  0.0494  0.1199
  951W        W 3151  24.089   5.451  30.453 -0.0521  0.0385  0.1968
  952W        W 3152  24.846   1.385  33.737  0.1479  0.0210 -0.1072
  953W        W 3153   3.320   3.548  30.362 -0.0093  0.1348  0.1422
  954W        W 3154  24.387   2.870   4.589 -0.0611  0.0013  0.1139
  955W        W 3155   0.068   2.372  22.801 -0.0817  0.1697  0.1463
  956W        W 3156  12.434   5.464   9.444 -0.0297  0.0551 -0.1518
  957W        W 3157  12.759   4.494   7.018  0.0345 -0.1329  0.2086
  958W        W 3158   1.059   4.843  12.516 -0.1217 -0.2791  0.2328
  959W        W 3159   3.595   4.575  28.617  0.1490  0.2172 -0.1280
  960W        W 3160  21.607   0.325  14.060 -0.2705  0.0686  0.0505
  961W        W 3161   5.362   1.254  21.184  0.3374  0.2027 -0.3361
  962W        W 3162  19.110   0.867   9.753 -0.2716 -0.2935 -0.1611
  963W        W 3163   3.111   1.462  32.998  0.2530 -0.3754 -0.1054
  964W        W 3164  24.192   5.346  27.896 -0.0982  0.0259 -0.0043
  965W        W 3165   6.237   1.343  35.335 -0.3492  0.1951  0.0262
  966W        W 3166  25.013   2.258   4.141  0.0014  0.2384  0.0772
  967W        W 3167  22.246   2.044  28.027 -0.1350 -0.0295 -0.0499
  968W        W 3168  10.749   1.642  35.409 -0.2336 -0.0700  0.0013
  969W        W 3169  24.270   5.780   9.349 -0.0358  0.0709  0.0684
  970W        W 3170   6.695   0.494  29.498 -0.0527 -0.1586 -0.0789
  971W        W 3171  14.906   3.310  10.298 -0.2122  0.4476 -0.0144
  972W        W 3172  13.221   5.243  23.984  0.0739  0.0277  0.0437
  973W        W 3173   6.943   4.902   1.089 -0.4165 -0.0625 -0.1421
  974W        W 3174   2.983   5.353  33.484  0.2935  0.1170  0.1900
  975W        W 3175  17.461   5.945  22.928 -0.1795 -0.0284  0.0898
  976W        W 3176   0.145   2.707  21.008  0.3217 -0.0293 -0.0709
  977W        W 3177   4.113   5.929  24.154  0.0134 -0.2649  0.0505
  978W        W 3178  26.122   3.263   6.989 -0.2145 -0.0403  0.1375
  979W        W 3179   3.577   3.745   9.627 -0.0746 -0.0054  0.2154
  980W        W 3180  23.483   2.249   0.204 -0.0288  0.0417 -0.4077
  981W        W 3181   2.191   1.742   9.743  0.1687 -0.1329  0.0309
  982W        W 3182  10.300   5.749   7.956  0.1037 -0.0458 -0.2770
  983W        W 3183  16.600   4.664   6.614 -0.0447 -0.0876  0.1522
  984W        W 3184  24.520   1.458  26.373 -0.0776 -0.0368 -0.0447
  985W        W 3185   7.505   1.830  25.153  0.0187  0.5718  0.0872
  986W        W 3186  25.628   6.485   0.009  0.4155  0.0059 -0.0916
  987W        W 3187   7.309   3.162  23.894 -0.0363 -0.0759  0.2376
  988W        W 3188   6.213   5.867  34.304 -0.0489  0.0339 -0.0422
  989W        W 3189  14.882   4.713  32.912 -0.2470  0.1125  0.0264
  990W        W 3190   7.396   2.846  13.563  0.0616 -0.0620  0.0695
  991W        W 3191   7.002   5.538   4.743  0.1742 -0.3004  0.2515
  992W        W 3192   1.058   1.319   9.034 -0.1024  0.0356 -0.0222
  993W        W 3193   3.055   1.637   5.893  0.1467  0.0347  0.1528
  994W        W 3194   9.209   4.250  15.610  0.1470 -0.1465 -0.1601
  995W        W 3195   0.032   3.691  31.731  0.0195  0.0341 -0.1884
  996W        W 3196  20.768   1.783   2.191  0.1062  0.1680  0.1037
  997W        W 3197  14.307   6.531  21.156 -0.1034  0.2087 -0.4615
  998W        W 3198  14.579   4.332  34.895 -0.1904 -0.0102  0.4221
  999W        W 3199  22.382   4.491  24.917  0.0938 -0.1886  0.0789
 1000W        W 3200  10.191   4.555  29.845 -0.1034  0.1320  0.0017
 1001W        W 3201   3.252   2.298  35.408  0.0242  0.0864 -0.0472
 1002W        W 3202  12.899   3.496  24.915 -0.2317  0.2743 -0.0172
 1003W        W 3203  21.651   1.566   5.240  0.0327 -0.0890 -0.1803
 1004W        W 3204   9.700   0.035   9.616  0.1400 -0.1324  0.0011
 1005W        W 3205  12.319   4.324  32.268 -0.1915  0.0113 -0.2869
 1006W        W 3206   5.148   2.346   6.029  0.0080  0.0873 -0.0914
 1007W        W 3207  20.248   0.107  27.033 -0.0523 -0.0884 -0.1843
 1008W        W 3208   3.936   3.813  26.648 -0.1944  0.0628  0.3412
 1009W        W 3209  15.119   1.069   3.686 -0.1740 -0.1387  0.1377
 1010W        W 3210   7.872   0.383   3.404  0.0059 -0.0315 -0.4033
 1011W        W 3211   6.141   4.228  10.604  0.0353 -0.3016  0.1018
 1012W        W 3212  15.830   2.135  14.882  0.0327 -0.1875 -0.1429
 1013W        W 3213  16.191   5.950  14.575 -0.1972  0.0856  0.3159
 1014W        W 3214  20.780   2.365   3.304  0.2494  0.1133  0.0649
 1015W        W 3215  16.182   2.511  11.711 -0.2409 -0.0950  0.0361
 1016W        W 3216   5.065   5.146  10.290  0.2789  0.0598  0.1916
 1017W        W 3217  15.983   0.024  28.652  0.2922 -0.2283  0.0008
 1018W        W 3218  13.951   3.760  10.552 -0.0968  0.0922  0.0195
 1019W        W 3219  25.595   1.670  10.214 -0.0686  0.0364  0.3352
 1020W        W 3220  16.219   0.389  12.888 -0.2874 -0.1468  0.0275
 1021W        W 3221  20.021   2.246   4.360 -0.0786 -0.0559 -0.0333
 1022W        W 3222   5.401   0.916  25.858 -0.1540  0.4847 -0.0880
 1023W        W 3223   7.540   3.487  15.306 -0.2952  0.3164  0.0502
 1024W        W 3224  10.569   2.679  33.678  0.0436  0.0292 -0.0836
 1025W        W 3225  24.816   0.471  36.032 -0.1269  0.0894  0.1778
 1026W        W 3226  21.701   4.515   5.955  0.0307 -0.0295  0.0806
 1027W        W 3227  11.783   3.647  31.199 -0.1784 -0.0254  0.0615
 1028W        W 3228   9.009   0.653  22.588  0.1597  0.3456  0.4674
 1029W        W 3229  12.614   2.932   4.303 -0.3844 -0.0596 -0.2161
 1030W        W 3230   9.363   6.144  11.958  0.2777  0.1844 -0.0918
 1031W        W 3231  21.161   4.935  20.629 -0.1951  0.0643 -0.1225
 1032W        W 3232  20.883   0.471  32.026 -0.1168  0.2119  0.1875
 1033W        W 3233  17.216   2.705   4.738 -0.3323 -0.3937 -0.3345
 1034W        W 3234  16.262   0.091  31.275  0.0423  0.1039  0.0297
 1035W        W 3235  21.198   5.628  32.008 -0.0497 -0.0176 -0.2469
 1036W        W 3236  11.465   0.930  31.046  0.1535 -0.0402  0.0490
 1037W        W 3237   0.284   4.610   6.048  0.0232 -0.1433  0.1681
 1038W        W 3238  10.571   6.434   4.999 -0.1676 -0.0916  0.0604
 1039W        W 3239   3.521   2.743   5.922 -0.2202  0.1214 -0.3083
 1040W        W 3240   3.739   2.324  10.929  0.1279 -0.1127 -0.0762
 1041W        W 3241   5.758   5.967  32.161 -0.1850 -0.2310 -0.1966
 1042W        W 3242  22.581   5.558  33.971 -0.2627 -0.1400 -0.2032
 1043W        W 3243  11.574   4.408  22.973 -0.2039  0.0237 -0.0425
 1044W        W 3244  11.266   3.108   6.535 -0.0484 -0.1300  0.0193
 1045W        W 3245  11.676   4.939  14.304  0.1213 -0.0577  0.1436
 1046W        W 3246  20.461   0.660   1.217  0.0472 -0.0752 -0.4201
 1047W        W 3247  12.163   0.666  14.570  0.2205  0.1207  0.0256
 1048W        W 3248   1.050   2.256   9.783 -0.0626  0.2092 -0.0293
 1049W        W 3249   2.397   3.116  23.898  0.3235 -0.0593  0.2953
 1050W        W 3250  18.590   4.361  31.992  0.0229  0.2309 -0.0670
 1051W        W 3251  12.944   4.821   9.630  0.3510 -0.3877  0.0673
 1052W        W 3252   4.175   0.096  32.706  0.1203 -0.0211 -0.0335
 1053W        W 3253   2.124   2.733  28.086  0.1364  0.1085  0.3618
 1054W        W 3254  17.041   6.191   2.217  0.1080 -0.2189  0.2327
 1055W        W 3255  16.271   2.212  31.111 -0.2036 -0.2220  0.1932
 1056W        W 3256  21.295   1.876   6.994 -0.0073 -0.2695  0.3372
 1057W        W 3257   1.710   5.228   9.674  0.2063 -0.1515 -0.0730
 1058W        W 3258  24.494   2.769  30.977 -0.0800 -0.0340 -0.0424
 1059W        W 3259   4.284   3.914  31.296 -0.0896  0.2414 -0.0726
 1060W        W 3260  21.565   1.275   6.106 -0.0279 -0.0218 -0.3650
 1061W        W 3261  22.281   4.070  30.713 -0.1514  0.2619 -0.2125
 1062W        W 3262  24.904   3.194  13.269 -0.0167 -0.0282 -0.1667
 1063W        W 3263   1.151   0.317  12.159  0.3822  0.1318  0.1819
 1064W        W 3264  17.201   6.231   1.212  0.3789 -0.2239  0.0234
 1065W        W 3265   4.657   2.025   6.705  0.2074 -0.2694 -0.0810
 1066W        W 3266   6.755   5.244  11.411  0.2540 -0.2606 -0.0461
 1067W        W 3267   4.468   0.193  11.222  0.1682 -0.0385 -0.1174
 1068W        W 3268  10.444   3.207  11.088  0.1841  0.1890 -0.0164
 1069W        W 3269   4.135   6.490  31.442 -0.0692 -0.0180  0.2755
 1070W        W 3270   9.492   0.111   6.125 -0.1050 -0.0917  0.0056
 1071W        W 3271   1.388   1.677  22.229  0.3944  0.3051  0.3030
 1072W        W 3272   1.355   5.412  21.110 -0.4448  0.0063  0.1305
 1073W        W 3273   9.316   1.506   8.973 -0.0365 -0.2225  0.1177
 1074W        W 3274   9.700   1.612  11.082  0.2897 -0.2614 -0.2483
 1075W        W 3275  22.478   4.034   4.153 -0.1319  0.0026  0.2234
 1076W        W 3276  23.425   0.139  31.020 -0.2909  0.0182 -0.2543
 1077W        W 3277  19.034   3.825  33.761 -0.0509  0.2867 -0.2757
 1078W        W 3278   7.446   3.804  13.329  0.3110 -0.3230 -0.3200
 1079W        W 3279  14.108   6.562  32.041 -0.0090 -0.0060  0.0709
 1080W        W 3280  13.360   5.460   8.516 -0.0624  0.1144 -0.2197
 1081W        W 3281   2.073   0.817  22.522 -0.1777 -0.2888  0.1991
 1082W        W 3282  19.140   3.719   0.558 -0.0819 -0.1164 -0.0227
 1083W        W 3283   5.283   5.507   0.829  0.0679  0.2260  0.1016
 1084W        W 3284   9.963   4.464   7.157 -0.0714  0.2987  0.3570
 1085W        W 3285  24.387   1.563   5.695 -0.1522 -0.2118 -0.1747
 1086W        W 3286   4.571   3.117   6.753 -0.1574 -0.0233 -0.0439
 1087W        W 3287  18.115   1.914   5.187 -0.0759  0.0141  0.0838
 1088W        W 3288   5.860   4.925  10.582  0.2439 -0.0846 -0.0451
 1089W        W 3289   5.139   2.992  34.768  0.3342 -0.2175 -0.1629
 1090W        W 3290   9.495   1.404  23.751  0.2418 -0.2819 -0.1498
 1091W        W 3291   0.782   0.488  24.552 -0.0462 -0.1608 -0.0763
 1092W        W 3292  23.923   6.523  20.050 -0.0095 -0.1159 -0.3620
 1093W        W 3293   2.665   0.148   2.806 -0.3433 -0.3222 -0.2961
 1094W        W 3294   1.788   4.310  13.987 -0.1433  0.2020  0.0492
 1095W        W 3295   0.538   2.663   5.297  0.0890  0.2490 -0.2378
 1096W        W 3296  24.460   0.734   8.413 -0.0036  0.0191 -0.0583
 1097W        W 3297  16.714   3.890  21.264  0.0693  0.3221  0.2347
 1098W        W 3298  10.589   2.679   4.470  0.1178 -0.6664  0.0611
 1099W        W 3299  25.335   2.786  35.341  0.3127 -0.0258  0.2143
 1100W        W 3300  11.072   4.413  34.104  0.0557 -0.2800 -0.3545
 1101W        W 3301  15.285   2.267  25.768 -0.0211 -0.0928 -0.3849
 1102W        W 3302  15.788   2.323  30.875 -0.4078 -0.1819 -0.0538
 1103W        W 3303  11.713   4.893   8.711  0.0956 -0.0909  0.1631
 1104W        W 3304   0.426   1.376  11.382  0.4781 -0.2386  0.0016
 1105W        W 3305  25.535   2.347   4.510  0.1107 -0.0538 -0.1523
 1106W        W 3306   1.462   4.041  34.750  0.0168 -0.5082 -0.0131
 1107W        W 3307  17.773   5.966  33.390  0.0827 -0.0251  0.2483
 1108W        W 3308  24.009   3.495   5.355  0.0654  0.0244 -0.2646
 1109W        W 3309  20.590   3.198  32.310  0.0508  0.2964  0.0607
 1110W        W 3310  12.676   2.975  30.439 -0.0308 -0.1480  0.1035
 1111W        W 3311  24.661   6.326  25.797  0.0103  0.1400 -0.0281
 1112W        W 3312   3.731   2.470  28.678  0.2789  0.0272  0.0440
 1113W        W 3313   2.535   1.363  27.993 -0.1321  0.0173  0.0060
 1114W        W 3314   6.322   4.080  35.648 -0.1491  0.1716  0.1253
 1115W        W 3315  22.657   3.205  14.330 -0.3970 -0.0731  0.1235
 1116W        W 3316  16.290   1.691   3.259  0.1373  0.0302 -0.1302
 1117W        W 3317  18.380   3.736   7.920  0.0730  0.1944 -0.2103
 1118W        W 3318   4.781   1.983  14.517  0.1066  0.2022 -0.1921
 1119W        W 3319   4.343   3.769  21.641  0.1084  0.0356  0.3204
 1120W        W 3320  21.110   5.253  30.337  0.0694  0.0200 -0.1762
 1121W        W 3321  19.473   3.104   2.727 -0.1342 -0.1583 -0.2517
 1122W        W 3322  11.391   3.252  26.690  0.0524  0.0176 -0.0136
 1123W        W 3323  15.847   0.748  25.204  0.1683 -0.2075  0.1148
 1124W        W 3324  10.160   6.006  13.763  0.1045  0.1173  0.0027
 1125W        W 3325   5.781   4.790   2.104  0.3341  0.1026  0.3121
 1126W        W 3326  24.201   6.462   6.961  0.2500 -0.1429 -0.2866
 1127W        W 3327   1.100   0.171  29.069  0.2193 -0.2826 -0.1616
 1128W        W 3328  24.654   5.866  11.256  0.0708 -0.0063  0.0092
 1129W        W 3329  22.850   1.025  30.599 -0.1446  0.3649 -0.0524
 1130W        W 3330   6.351   3.638  14.706  0.0892 -0.2195 -0.0436
 1131W        W 3331   7.441   4.096  14.204  0.2427  0.0132  0.3793
 1132W        W 3332  17.284   2.226  36.017 -0.0160  0.0652 -0.0968
 1133W        W 3333  22.713   2.682  29.997 -0.1505 -0.0590 -0.0916
 1134W        W 3334   0.146   1.213  14.849  0.3424  0.0032 -0.0057
 1135W        W 3335   8.227   0.651  21.399  0.1749  0.0268  0.1548
 1136W        W 3336  16.350   4.779  35.800  0.1398  0.1261  0.1724
 1137W        W 3337  20.661   2.372  14.875  0.2321 -0.0499 -0.1132
 1138W        W 3338   5.396   0.171  14.358 -0.0781 -0.3205  0.0102
 1139W        W 3339  19.759   4.193  35.795  0.0250 -0.0728  0.3061
 1140W        W 3340   8.347   6.446  14.113 -0.0932 -0.2149 -0.1195
 1141W        W 3341   5.985   1.934  32.350 -0.1084 -0.0206  0.1711
 1142W        W 3342  24.501   5.527   8.945 -0.2857  0.1005 -0.1209
 1143W        W 3343  10.284   0.449   7.180  0.1748  0.1453 -0.3644
 1144W        W 3344  12.460   4.431   4.113 -0.1312  0.1733  0.0061
 1145W        W 3345  21.293   3.400   4.242 -0.1769 -0.2169  0.3088
 1146W        W 3346  18.731   2.639  35.480  0.0762  0.0227  0.0615
 1147W        W 3347  16.597   4.008  34.162  0.1799 -0.0154 -0.0122
 1148W        W 3348   7.646   0.720  12.704 -0.0306 -0.0507  0.1414
 1149W        W 3349  19.109   3.123   9.655  0.0734 -0.0258 -0.3285
 1150W        W 3350  17.460   4.942  25.733  0.0233 -0.0534 -0.3373
 1151W        W 3351   2.065   0.347  21.231  0.3000 -0.0164 -0.0467
 1152W        W 3352   7.197   3.953  14.596  0.1028  0.2345 -0.3373
 1153W        W 3353  24.876   4.178   4.309 -0.0773 -0.1875  0.0364
 1154W        W 3354  17.161   2.755  30.263  0.1594  0.4206  0.3237
 1155W        W 3355  25.030   3.140   5.643  0.2121 -0.0068 -0.3214
 1156W        W 3356   6.969   0.219   7.173 -0.1736 -0.0217 -0.0402
 1157W        W 3357  18.156   2.738  21.282 -0.0336  0.0379 -0.0753
 1158W        W 3358  25.955   5.909   4.472 -0.1392  0.2408 -0.1177
 1159W        W 3359   4.042   5.816  34.747  0.1966  0.3100  0.3320
 1160W        W 3360  15.480   0.877  14.332 -0.0006  0.1242 -0.1694
 1161W        W 3361  16.101   3.727   9.511 -0.0542  0.1604  0.0812
 1162W        W 3362  10.760   5.168  24.467  0.1100 -0.0052  0.1138
 1163W        W 3363   4.653   2.335  28.574  0.2208  0.4493 -0.0556
 1164W        W 3364   2.083   4.363  23.736  0.0484 -0.1797  0.3368
 1165W        W 3365  12.424   1.027   6.726  0.0244 -0.0050  0.0877
 1166W        W 3366  12.202   1.132  30.696 -0.0318 -0.0102 -0.0572
 1167W        W 3367  18.923   1.855   1.485 -0.3867 -0.0277  0.1277
 1168W        W 3368   6.226   5.334  13.400 -0.2436  0.2672 -0.0954
 1169W        W 3369   3.086   3.708   1.920 -0.1425 -0.4360 -0.3584
 1170W        W 3370  20.929   4.745   5.304  0.4068  0.1866  0.1597
 1171W        W 3371  24.650   1.987   2.441 -0.2958  0.1227  0.2446
 1172W        W 3372  23.844   3.188  26.976 -0.0490  0.0938  0.0177
 1173W        W 3373  11.941   0.182  21.925  0.1412  0.1231  0.0468
 1174W        W 3374  23.244   3.178  29.514  0.0977  0.0882  0.0791
 1175W        W 3375   2.844   0.318   8.402 -0.0097 -0.0584  0.0660
 1176W        W 3376   2.447   3.677  21.954 -0.0660  0.0232 -0.0309
 1177W        W 3377   0.649   2.250  30.284 -0.1168  0.1466 -0.0769
 1178W        W 3378  13.118   5.255  11.739  0.2746 -0.0214  0.2465
 1179W        W 3379  17.731   2.517  13.397  0.1205  0.0214  0.0771
 1180W        W 3380   5.508   3.895  30.779 -0.3681 -0.0342  0.1834
 1181W        W 3381   5.088   0.277  23.499 -0.1361  0.1455  0.1351
 1182W        W 3382  15.856   0.763  27.719 -0.1850  0.1712 -0.3907
 1183W        W 3383  10.078   1.732  32.870  0.0458 -0.0950 -0.0568
 1184W        W 3384  14.663   4.818  27.275 -0.1643  0.2522 -0.1060
 1185W        W 3385  12.667   3.658   7.698  0.0619 -0.1923  0.1523
 1186W        W 3386   0.732   5.008   7.214 -0.3443 -0.0685  0.2301
 1187W        W 3387  11.254   1.688  30.954 -0.0130 -0.0890 -0.1735
 1188W        W 3388   6.836   2.857  29.336  0.0335  0.0025 -0.1364
 1189W        W 3389  11.577   0.517  11.627  0.0455  0.3136  0.0910
 1190W        W 3390  17.193   4.913  22.976 -0.0007 -0.0290 -0.1215
 1191W        W 3391  24.326   1.130  13.787  0.0333 -0.1817 -0.1191
 1192W        W 3392   5.760   4.863   1.587 -0.3147  0.0207  0.1041
 1193W        W 3393  25.650   4.618  21.733 -0.2011 -0.1317 -0.1023
 1194W        W 3394  23.059   4.183   8.376 -0.3339 -0.0611  0.0812
 1195W        W 3395  19.606   4.608   2.729  0.0950  0.0816 -0.2580
 1196W        W 3396  20.661   5.879  31.146  0.0285 -0.2711  0.0439
 1197W        W 3397   8.747   4.434  24.845 -0.0483 -0.0740  0.0400
 1198W        W 3398   0.847   3.908  21.345 -0.0886 -0.0513 -0.0475
 1199W        W 3399  20.281   5.981   7.317 -0.0254 -0.2174 -0.0582
 1200W        W 3400   4.100   4.711   3.816 -0.1392  0.0575 -0.2989
 1201W        W 3401  18.478   1.954   2.691  0.0298  0.2148 -0.0355
 1202W        W 3402  20.975   3.878  10.496 -0.0201  0.2322  0.2066
 1203W        W 3403  10.348   1.699  34.976 -0.2436  0.0894  0.0142
 1204W        W 3404  14.359   6.528  24.541 -0.0248  0.0411  0.2118
 1205W        W 3405   1.555   4.543   1.592  0.0458 -0.4333  0.2517
 1206W        W 3406   4.037   1.146  15.108  0.2001  0.0031 -0.1655
 1207W        W 3407  21.898   2.161   9.147  0.4438  0.0835  0.0394
 1208W        W 3408   5.910   0.779  25.936  0.3693  0.0594  0.1104
 1209W        W 3409  19.644   5.194  31.466  0.1337 -0.0801 -0.1704
 1210W        W 3410   0.486   2.163  29.370  0.0553  0.0949  0.3489
 1211W        W 3411   8.933   3.717   4.472 -0.0682  0.0545  0.3326
 1212W        W 3412   6.335   1.249   7.560  0.0350 -0.2475 -0.2876
 1213W        W 3413   9.702   5.130  11.105 -0.1724 -0.1037  0.1638
 1214W        W 3414   3.106   2.616   3.484 -0.0099 -0.1845 -0.2709
 1215W        W 3415  24.256   3.638   2.185  0.0349  0.1113 -0.0688
 1216W        W 3416  19.853   2.938  21.162 -0.0264  0.4445  0.0396
 1217W        W 3417   3.500   4.343  35.991 -0.0313  0.0094  0.0597
 1218W        W 3418  10.698   1.080  29.232 -0.1332 -0.0806  0.1978
 1219W        W 3419  25.127   0.195  22.730  0.0610  0.1338  0.0022
 1220W        W 3420   8.586   4.860  34.936 -0.2036  0.1507 -0.1466
 1221W        W 3421   4.969   4.371  23.099  0.2042 -0.1292 -0.2438
 1222W        W 3422  18.690   5.131   8.687 -0.0860 -0.0330 -0.0561
 1223W        W 3423   8.418   3.149   6.574  0.0070  0.0979  0.3176
 1224W        W 3424   6.855   6.588  11.239 -0.0979  0.0315  0.1110
 1225W        W 3425   0.508   3.942  12.030  0.1277 -0.0954 -0.1196
 1226W        W 3426  10.933   2.075   1.123 -0.0953  0.0374 -0.0567
 1227W        W 3427   2.556   2.170  13.527 -0.0643 -0.0204  0.0955
 1228W        W 3428  17.908   3.336  32.024 -0.2252 -0.2367 -0.1025
 1229W        W 3429   9.419   2.629  32.835  0.0364 -0.2965  0.0721
 1230W        W 3430  17.473   5.028   7.108  0.0596  0.0331  0.1560
 1231W        W 3431   6.586   2.285  33.837  0.1467  0.0309 -0.0237
 1232W        W 3432   5.019   2.785   0.322  0.0966 -0.3907 -0.3274
 1233W        W 3433  18.071   2.603  14.930 -0.0868 -0.0800 -0.1868
 1234W        W 3434   0.791   5.742  29.690  0.1518  0.1985 -0.2264
 1235W        W 3435  20.030   1.507  31.646 -0.1541  0.3713 -0.2389
 1236W        W 3436  10.734   5.310   6.300 -0.1264  0.1715 -0.1497
 1237W        W 3437  12.709   0.502   2.953 -0.0871 -0.1121 -0.1304
 1238W        W 3438  20.575   3.456  12.617  0.0339  0.0933  0.1733
 1239W        W 3439   5.492   2.467   7.393  0.0863 -0.1869  0.0687
 1240W        W 3440  12.875   0.682  28.999 -0.1272 -0.2745 -0.0276
 1241W        W 3441  24.959   2.769  34.895 -0.0100 -0.3111 -0.1037
 1242W        W 3442  10.000   3.279  29.456 -0.0377  0.3036  0.0479
 1243W        W 3443   6.200   4.634  35.016 -0.1468  0.0875 -0.2108
 1244W        W 3444  15.614   2.161  14.383  0.0233 -0.1504 -0.2576
 1245W        W 3445  11.924   0.279   8.237  0.3638  0.0184  0.0522
 1246W        W 3446  18.398   1.213   3.440  0.1801 -0.1995 -0.1309
 1247W        W 3447  14.720   1.988  14.925 -0.1896 -0.1414 -0.2376
 1248W        W 3448   5.659   0.170   2.312 -0.2095 -0.0340  0.1381
 1249W        W 3449  16.129   3.825  23.868  0.0037 -0.0521  0.0951
 1250W        W 3450  18.368   4.268  22.619 -0.1424 -0.4452 -0.0536
 1251W        W 3451   5.035   5.558  31.250 -0.2421  0.0237 -0.2992
 1252W        W 3452   1.224   2.909  23.111  0.3629 -0.0736 -0.0975
 1253W        W 3453  12.312   3.152   1.263 -0.2821  0.1277 -0.1137
 1254W        W 3454  23.605   3.261  13.118  0.0111  0.2853  0.0297
 1255W        W 3455  15.956   1.328  11.294 -0.0397 -0.2360 -0.2061
 1256W        W 3456  25.481   4.831  20.802  0.1551  0.1032  0.0085
 1257W        W 3457  17.409   4.469  26.151  0.0324  0.1828  0.0506
 1258W        W 3458  12.212   5.300   9.917 -0.2617  0.1651 -0.3752
 1259W        W 3459  11.640   3.118   5.590 -0.0553  0.0574  0.1870
 1260W        W 3460   8.675   2.610   7.494 -0.3171 -0.1301 -0.1820
 1261W        W 3461  18.739   1.257   8.269 -0.0106 -0.1323  0.1336
 1262W        W 3462   3.827   0.653  23.818  0.1797  0.1455 -0.1788
 1263W        W 3463  15.938   4.897  15.542 -0.0487 -0.0548 -0.0144
 1264W        W 3464   1.168   1.425   2.994  0.0200  0.1604  0.2058
 1265W        W 3465   1.640   5.324  11.787 -0.2817  0.1469 -0.1232
 1266W        W 3466   8.888   1.064  34.641 -0.2387  0.0022  0.0562
 1267W        W 3467  25.487   3.120  30.830 -0.3823 -0.2099  0.0807
 1268W        W 3468   2.111   2.436  24.837 -0.0806  0.1245 -0.3036
 1269W        W 3469  25.034   3.685   1.296  0.1820  0.1484  0.0606
 1270W        W 3470  24.828   1.053  26.350  0.0476 -0.0066 -0.0508
 1271W        W 3471  21.052   3.087  31.677 -0.0789 -0.2216 -0.0064
 1272W        W 3472  10.591   4.690   1.771  0.1839 -0.0445  0.0290
 1273W        W 3473  15.015   1.240   9.684 -0.0481  0.1918 -0.1902
 1274W        W 3474  15.268   3.029  22.951 -0.1351 -0.0433 -0.4101
 1275W        W 3475  19.221   2.784   8.071  0.0140  0.0825 -0.0974
 1276W        W 3476   8.814   0.551  14.465 -0.0045 -0.0550  0.1615
 1277W        W 3477  17.730   2.749  15.248  0.1668 -0.4606  0.1633
 1278W        W 3478  21.033   2.038   7.931  0.2414  0.1037 -0.4615
 1279W        W 3479  12.593   4.744  29.167  0.3554  0.0917  0.3976
 1280W        W 3480  18.897   2.645   8.449  0.1147  0.0142 -0.2100
 1281W        W 3481   7.470   1.034  14.838 -0.0757  0.0343 -0.2584
 1282W        W 3482  25.190   4.367  14.492  0.1481 -0.1536  0.5174
 1283W        W 3483   1.879   5.876  15.068  0.1668  0.1209 -0.0283
 1284W        W 3484   9.691   3.013  26.209 -0.2327  0.2110 -0.0813
 1285W        W 3485   1.380   6.217  22.811  0.2398 -0.1082  0.0539
 1286W        W 3486  19.066   0.160   0.236  0.0689  0.1408  0.1072
 1287W        W 3487  15.218   3.619  22.393  0.1947 -0.0494  0.2552
 1288W        W 3488  13.791   4.702   2.116 -0.1267 -0.0859 -0.2132
 1289W        W 3489  18.280   5.938   8.420  0.2993 -0.1834  0.1170
 1290W        W 3490  17.065   0.258  29.747 -0.0079 -0.1883  0.0041
 1291W        W 3491  13.836   2.072  29.661 -0.0919  0.0178  0.0766
 1292W        W 3492  20.562   4.569  28.785 -0.2610  0.0089 -0.2672
 1293W        W 3493   0.287   0.989   9.699 -0.3203 -0.0655 -0.1279
 1294W        W 3494  20.440   6.545   1.552 -0.0670  0.4881 -0.0208
 1295W        W 3495  13.302   3.992  31.607  0.0644 -0.0676  0.0530
 1296W        W 3496  23.010   2.867  22.473  0.0448 -0.0127 -0.0492
 1297W        W 3497   6.897   2.217  11.060  0.1770  0.1805  0.0580
 1298W        W 3498   6.756   5.850   7.495  0.0802  0.1271  0.3850
 1299W        W 3499  11.898   6.279   3.475 -0.0803 -0.4597  0.2290
 1300W        W 3500   2.590   6.044  25.955 -0.3342 -0.2285  0.0446
 1301W        W 3501  10.562   6.599   9.944 -0.3640  0.0608  0.0784
 1302W        W 3502   1.490   0.867  14.959  0.0519 -0.0696  0.1068
 1303W        W 3503  26.139   3.412  12.085 -0.2140  0.3603 -0.1361
 1304W        W 3504  17.051   4.425  11.467  0.0700 -0.0348  0.0615
 1305W        W 3505  23.787   4.931  33.719  0.2273 -0.1636 -0.0882
 1306W        W 3506   1.160   0.044  31.230  0.0095 -0.1989 -0.0202
 1307W        W 3507  21.112   6.404  20.489 -0.1281  0.2245 -0.3393
 1308W        W 3508  17.291   2.114  11.295 -0.0758  0.2644  0.0163
 1309W        W 3509  12.364   3.090  10.413  0.1092  0.0766 -0.2172
 1310W        W 3510  22.134   0.861  25.573  0.0593  0.1346 -0.1405
 1311W        W 3511   4.652   5.015  23.555 -0.4278  0.1242 -0.0304
 1312W        W 3512  22.662   1.508  23.334 -0.0519 -0.4601  0.0738
 1313W        W 3513   9.590   1.321  22.897 -0.3395 -0.0934 -0.0000
 1314W        W 3514   9.475   0.249  26.214  0.1420  0.1553  0.0105
 1315W        W 3515  17.826   6.328  33.040 -0.1129  0.1659 -0.0916
 1316W        W 3516   4.845   5.732   7.824 -0.3077 -0.1527 -0.1326
 1317W        W 3517  18.871   3.101   8.256 -0.2078 -0.1487  0.2229
 1318W        W 3518   5.599   4.516  11.290  0.0565 -0.0130  0.1350
 1319W        W 3519  23.677   6.388  30.605 -0.2078  0.0956  0.2971
 1320W        W 3520   7.356   1.576   9.713 -0.2898  0.2176 -0.1794
 1321W        W 3521   5.520   2.306   5.590  0.0764  0.1692 -0.3012
 1322W        W 3522  18.727   1.033  14.548 -0.0990  0.4425 -0.0596
 1323W        W 3523   5.516   0.690   9.394 -0.2987 -0.1355  0.1340
 1324W        W 3524  23.207   1.716   3.514 -0.0046  0.0250  0.0780
 1325W        W 3525   5.048   0.210  27.055 -0.2006 -0.0965  0.2445
 1326W        W 3526  10.318   3.807  31.270 -0.0171  0.1272 -0.0698
 1327W        W 3527  15.383   2.405  28.271 -0.0077  0.0941 -0.1753
 1328W        W 3528  20.598   3.106  11.153 -0.0363 -0.0874  0.2574
 1329W        W 3529  21.851   0.452  29.918  0.2051 -0.2238  0.2385
 1330W        W 3530  11.440   3.494  29.308 -0.0323 -0.3762 -0.1673
 1331W        W 3531  22.493   3.074   6.527 -0.0441  0.0637  0.0489
 1332W        W 3532  13.102   2.742   7.553  0.0430  0.1742 -0.1316
 1333W        W 3533  23.683   0.019  26.603 -0.1886 -0.0594  0.0891
 1334W        W 3534  21.713   3.029   2.600  0.0367 -0.0742  0.2087
 1335W        W 3535   7.486   5.785  10.434  0.2780 -0.1861 -0.0280
 1336W        W 3536  13.270   1.042   9.942 -0.0273  0.0691  0.0169
 1337W        W 3537  14.263   1.259  32.534  0.0946 -0.1173 -0.2553
 1338W        W 3538  19.379   6.268   4.835  0.0257  0.1640 -0.0471
 1339W        W 3539  20.772   5.307  32.197  0.0524  0.0963 -0.2124
 1340W        W 3540   5.861   2.129   7.404 -0.3623  0.0069  0.2128
 1341W        W 3541   1.908   6.385  35.789  0.0038  0.0492  0.0333
 1342W        W 3542  17.284   3.794   5.113  0.2337  0.0926 -0.0135
 1343W        W 3543  16.311   1.219   1.343 -0.2467 -0.1314 -0.3500
 1344W        W 3544   6.723   5.731  27.122 -0.0978 -0.0533  0.0100
 1345W        W 3545   8.905   5.967  31.517 -0.1489  0.2423 -0.1890
 1346W        W 3546   3.589   2.650  30.550  0.2557 -0.0752 -0.1899
 1347W        W 3547  13.168   5.665   5.941  0.0973  0.2654 -0.2189
 1348W        W 3548  13.588   0.752   5.521  0.2128  0.4322  0.0180
 1349W        W 3549  24.689   0.625  22.176  0.2730 -0.3123  0.0332
 1350W        W 3550  22.594   6.020   6.963 -0.2405 -0.2055  0.1695
 1351W        W 3551   9.730   6.532  32.653  0.0896 -0.1751  0.1089
 1352W        W 3552  22.876   5.215   5.401  0.2448 -0.2441 -0.1867
 1353W        W 3553  15.386   3.094  13.339  0.1871  0.2559  0.2986
 1354W        W 3554  16.801   0.638   7.917  0.2557 -0.2214  0.0279
 1355W        W 3555   0.790   0.949  12.281 -0.0428  0.2961  0.2606
 1356W        W 3556  26.157   6.426   7.366 -0.2409  0.0331 -0.0702
 1357W        W 3557   8.589   1.459  34.462 -0.0052 -0.0840  0.1140
 1358W        W 3558  10.582   6.109  31.076  0.0984 -0.1095  0.0688
 1359W        W 3559  26.336   2.030  27.124  0.1498 -0.3056 -0.0718
 1360W        W 3560  17.657   5.958  11.309 -0.1011  0.1304  0.0389
 1361W        W 3561   9.723   1.175  26.599  0.0382  0.0703 -0.1037
 1362W        W 3562  12.086   0.081   1.987 -0.1248 -0.3638 -0.1970
 1363W        W 3563  23.041   0.029  32.312  0.1283  0.2732  0.2685
 1364W        W 3564  16.624   0.017   9.673 -0.1000 -0.0557 -0.0365
 1365W        W 3565   3.532   1.759   6.091 -0.0077  0.2608 -0.1730
 1366W        W 3566  17.449   6.521  26.344 -0.1340  0.2992  0.3020
 1367W        W 3567  24.997   6.540  26.336  0.1121 -0.0651 -0.0156
 1368W        W 3568  21.943   3.969  26.871 -0.0862  0.0177  0.1078
 1369W        W 3569   8.008   1.851   8.370 -0.4797  0.2062  0.1759
 1370W        W 3570   7.620   3.182  22.832 -0.1638 -0.2277  0.0707
 1371W        W 3571   9.820   5.816  24.404 -0.4068  0.1696 -0.1466
 1372W        W 3572  11.803   5.176  13.209  0.1157  0.1933 -0.0571
 1373W        W 3573  11.983   6.100  21.277  0.3075  0.0529 -0.0217
 1374W        W 3574   2.954   4.482  31.737 -0.0474  0.1200 -0.0867
 1375W        W 3575   8.716   0.835   6.546 -0.0901 -0.0707 -0.0278
 1376W        W 3576   4.562   4.573  29.183  0.1175  0.0141  0.1280
 1377W        W 3577  26.299   0.219   8.687 -0.1066 -0.0238  0.3116
 1378W        W 3578   3.371   1.583  31.110 -0.0859  0.2251 -0.2855
 1379W        W 3579   7.874   2.017  34.151 -0.1648  0.1917  0.0576
 1380W        W 3580  18.454   4.334  14.444  0.0813  0.2664  0.0007
 1381W        W 3581   4.023   3.324  35.832  0.1644  0.1326 -0.0881
 1382W        W 3582   2.687   1.966  22.207  0.0291  0.2480 -0.0215
 1383W        W 3583   6.006   2.550  29.644 -0.1003 -0.1555  0.1994
 1384W        W 3584  26.358   4.885  26.361  0.1961  0.2566  0.1916
 1385W        W 3585  16.141   4.121  14.530  0.1784 -0.2160 -0.1173
 1386W        W 3586  12.735   5.522   5.087  0.0534  0.1150  0.0669
 1387W        W 3587   0.213   3.448  22.514  0.1159  0.1386 -0.1637
 1388W        W 3588  17.198   6.033  11.312 -0.0510  0.2402 -0.0423
 1389W        W 3589  12.641   4.282   2.016  0.0404  0.1686 -0.3816
 1390W        W 3590   6.963   5.218  27.405 -0.0178 -0.0123  0.2781
 1391W        W 3591  11.877   6.108  26.188 -0.1090  0.2079 -0.3010
 1392W        W 3592  13.559   4.173   7.697  0.0239 -0.0385  0.2734
 1393W        W 3593  25.630   6.576  23.343  0.0263 -0.1663 -0.2049
 1394W        W 3594  11.842   4.716   2.367  0.1387 -0.2472  0.0968
 1395W        W 3595  25.701   1.191  11.049  0.2275  0.1806  0.1188
 1396W        W 3596  19.767   2.932  20.681  0.1005 -0.4254  0.1280
 1397W        W 3597   7.748   5.102  25.608  0.1894 -0.0220 -0.0450
 1398W        W 3598  10.834   2.947  28.977 -0.0363  0.3693  0.3445
 1399W        W 3599  19.581   0.886   9.868  0.1593 -0.2469  0.2382
 1400W        W 3600   8.880   0.177  35.650  0.2195 -0.0380 -0.1506
 1401W        W 3601  23.831   2.843  33.817  0.1217  0.1298 -0.1451
 1402W        W 3602   9.881   3.050  15.209  0.0916  0.0393  0.2238
 1403W        W 3603  17.872   5.096  36.141  0.4066  0.2015 -0.2059
 1404W        W 3604  25.924   5.225  21.145 -0.0209  0.1777 -0.0412
 1405W        W 3605  16.423   6.174   9.280 -0.1160  0.2578 -0.0898
 1406W        W 3606  11.745   6.102   6.283  0.0442 -0.0711  0.2143
 1407W        W 3607  24.453   1.985  22.126  0.0062 -0.0330 -0.2274
 1408W        W 3608   6.833   4.767  32.088  0.1554  0.0388  0.2150
 1409W        W 3609  25.961   5.409   6.904  0.2412 -0.0068  0.1215
 1410W        W 3610   8.144   1.775  14.799 -0.2731  0.0351 -0.0561
 1411W        W 3611   1.210   5.155   8.505  0.0419 -0.5067  0.0596
 1412W        W 3612  14.798   6.177  21.740  0.4860  0.0137  0.1300
 1413W        W 3613  21.823   1.914  13.788  0.2911 -0.1853  0.0736
 1414W        W 3614  19.634   1.026  22.946  0.0078  0.4472 -0.2273
 1415W        W 3615   7.739   4.950  14.423  0.0037  0.2496 -0.0283
 1416W        W 3616   5.956   0.755   3.391 -0.2593 -0.2781  0.2681
 1417W        W 3617   1.642   0.465  31.301 -0.1257  0.4877 -0.0327
 1418W        W 3618  19.632   5.130   1.372 -0.0421 -0.0481  0.0811
 1419W        W 3619   3.886   2.879  36.069  0.1860 -0.1688 -0.0647
 1420W        W 3620  14.830   1.708   5.197 -0.1975  0.2279  0.0834
 1421W        W 3621  21.428   2.667  14.144 -0.2277 -0.1804 -0.1818
 1422W        W 3622  15.092   3.739  25.370 -0.2006 -0.0178  0.0795
 1423W        W 3623   8.315   2.251  26.872  0.0705 -0.0505 -0.1603
 1424W        W 3624   7.013   3.813  27.356 -0.0693  0.0674  0.0265
 1425W        W 3625   7.535   2.905   9.487 -0.0460  0.1172  0.0213
 1426W        W 3626   1.724   1.660  20.844  0.0089  0.3498 -0.0272
 1427W        W 3627  19.008   2.029  11.608  0.0341  0.1736  0.1865
 1428W        W 3628  16.565   6.191   2.372  0.2119  0.0162 -0.0042
 1429W        W 3629  11.638   5.014  34.483  0.0633  0.4517  0.0001
 1430W        W 3630  23.272   3.341  20.681  0.0893  0.3504  0.3488
 1431W        W 3631  21.452   6.046  26.056 -0.1049 -0.1254  0.2412
 1432W        W 3632  11.392   2.887   2.561 -0.1425 -0.0589 -0.0620
 1433W        W 3633  21.258   2.845   8.539 -0.1337 -0.1802  0.0482
 1434W        W 3634  21.509   3.159  10.744 -0.2406 -0.0286 -0.2239
 1435W        W 3635  12.623   1.305  15.226  0.1990  0.0599 -0.0822
 1436W        W 3636   5.618   0.720   1.380  0.1321 -0.0979  0.0437
 1437W        W 3637   9.179   5.203  14.763  0.0550  0.3932  0.1121
 1438W        W 3638   0.050   6.414  11.555 -0.0711  0.1972 -0.0596
 1439W        W 3639  11.546   3.571   6.526  0.1091  0.1528  0.1290
 1440W        W 3640   7.877   3.307  10.548  0.2062  0.2803  0.1345
 1441W        W 3641  16.333   2.779   7.844 -0.0703  0.2059  0.1229
 1442W        W 3642  10.281   4.544  12.631 -0.2547  0.0927  0.1560
 1443W        W 3643  20.096   6.483  15.062 -0.3638  0.1037  0.2205
 1444W        W 3644  19.379   4.330  26.764  0.0661  0.0896 -0.5001
 1445W        W 3645  16.572   6.250  13.774  0.0916 -0.3130 -0.0090
 1446W        W 3646  17.000   3.533  13.874 -0.0988 -0.3549 -0.1313
 1447W        W 3647  11.676   0.812   4.778 -0.1829 -0.0918 -0.4316
 1448W        W 3648  19.516   0.974  34.690  0.0410 -0.0960  0.0016
 1449W        W 3649   9.141   0.572   9.085  0.1041  0.0047 -0.2217
 1450W        W 3650   0.379   0.908  24.908 -0.2203 -0.2504 -0.0409
 1451W        W 3651  17.332   0.729  33.327 -0.1403  0.1568  0.2142
 1452W        W 3652   1.296   4.644   9.958  0.0804 -0.2388 -0.3432
 1453W        W 3653  18.411   1.430  28.457  0.0880  0.2191 -0.2435
 1454W        W 3654  10.057   3.721  31.682  0.0164  0.0173 -0.1336
 1455W        W 3655   4.649   5.548   3.574  0.1909  0.2043 -0.1459
 1456W        W 3656  20.672   3.415   9.377 -0.0480  0.2536  0.1894
 1457W        W 3657  11.739   1.812  21.780  0.1015  0.1532  0.3264
 1458W        W 3658  12.610   1.623  33.404  0.1199  0.0663 -0.0060
 1459W        W 3659  20.126   5.319   9.971 -0.0150  0.4415 -0.2669
 1460W        W 3660   6.490   5.643  33.364 -0.1902  0.0410  0.1325
 1461W        W 3661  18.139   4.847  20.837  0.1393 -0.1330 -0.1993
 1462W        W 3662  19.280   3.852  35.452 -0.2027 -0.0014 -0.1823
 1463W        W 3663  20.201   0.376  25.104  0.2382 -0.0056  0.4156
 1464W        W 3664  20.400   6.131  22.742 -0.3697  0.0446 -0.0207
 1465W        W 3665  23.586   2.917   2.885 -0.1642 -0.0022 -0.1106
 1466W        W 3666   4.088   2.886  15.777 -0.2601  0.3428 -0.1799
 1467W        W 3667  19.060   2.460   5.180 -0.0621  0.2109  0.2021
 1468W        W 3668   4.754   2.181  34.347 -0.0900 -0.2311 -0.0984
 1469W        W 3669  21.593   2.115   0.856  0.1527 -0.0876  0.1255
 1470W        W 3670  18.949   2.116   0.005  0.0207 -0.0311 -0.2194
 1471W        W 3671  22.317   5.006  28.902  0.0324 -0.4818 -0.1831
 1472W        W 3672   6.319   3.292   1.520 -0.4095 -0.0310  0.0304
 1473W        W 3673  11.384   5.606   1.387  0.0195 -0.3387 -0.0721
 1474W        W 3674   9.161   1.672  23.342 -0.0527  0.2242 -0.3079
 1475W        W 3675  12.223   2.023  30.126  0.2028  0.1304  0.3391
 1476W        W 3676  14.141   6.069  31.089  0.1793 -0.1075  0.1100
 1477W        W 3677  16.935   1.216  29.613 -0.0753 -0.3036 -0.1429
 1478W        W 3678  26.157   3.294  32.821  0.0556 -0.1057 -0.2297
 1479W        W 3679  12.419   4.724   9.057  0.1610  0.1427 -0.1739
 1480W        W 3680   6.041   0.193  35.092 -0.0852  0.0696 -0.0027
 1481W        W 3681  23.686   6.284  22.112 -0.0540 -0.1545  0.0873
 1482W        W 3682  18.795   2.352  15.264  0.2892 -0.1987 -0.2181
 1483W        W 3683  17.396   2.669  33.753  0.0875  0.5076 -0.0467
 1484W        W 3684  25.497   5.155  25.832 -0.1384 -0.0350  0.0976
 1485W        W 3685  15.882   1.523  26.572 -0.2386 -0.0393  0.0484
 1486W        W 3686   4.052   4.875   6.842 -0.0787 -0.2528  0.1068
 1487W        W 3687  23.200   6.134  32.486 -0.0052  0.1595  0.1684
 1488W        W 3688  21.600   4.453  29.049  0.2921  0.3244  0.2721
 1489W        W 3689   3.566   3.508  10.907  0.0960  0.1797 -0.2099
 1490W        W 3690   4.289   0.355  21.691  0.2711 -0.0042 -0.2563
 1491W        W 3691  22.734   2.132  32.151  0.2937  0.0612 -0.0605
 1492W        W 3692  15.402   1.160   2.058 -0.2747  0.0086  0.0283
 1493W        W 3693  21.203   4.704   8.360 -0.1972 -0.0583 -0.0804
 1494W        W 3694  12.979   2.525  27.854 -0.0818  0.2033  0.1780
 1495W        W 3695  21.486   1.470   8.800 -0.2638 -0.2399 -0.0412
 1496W        W 3696   6.696   6.508   1.155  0.1123 -0.0932 -0.0743
 1497W        W 3697   5.387   3.644  10.102  0.2045  0.3432 -0.1353
 1498W        W 3698   5.140   4.926  34.022 -0.1060  0.1749 -0.0021
 1499W        W 3699  23.853   3.136  21.563  0.1430 -0.0430  0.0816
 1500W        W 3700  23.695   3.784  26.895  0.2680 -0.0931 -0.0276
 1501W        W 3701  12.195   5.813   9.213 -0.1362 -0.0045  0.4062
 1502W        W 3702  25.804   4.432  14.205  0.1204  0.0453 -0.0001
 1503W        W 3703   5.609   3.467   8.752 -0.2057 -0.1904  0.0082
 1504W        W 3704  12.937   1.191  21.490 -0.0325  0.0033 -0.0812
 1505W        W 3705  13.377   0.651  15.182  0.0678  0.0317  0.0019
 1506W        W 3706   9.229   5.263   9.091 -0.1640 -0.1167 -0.0153
 1507W        W 3707  16.777   5.176   8.508  0.0179 -0.2770 -0.2111
 1508W        W 3708  17.431   6.498  11.281 -0.0647 -0.3426 -0.0940
 1509W        W 3709   6.306   4.421  33.643  0.2391  0.1166 -0.2740
 1510W        W 3710   6.244   5.862   5.504  0.1148 -0.1139  0.0699
 1511W        W 3711  22.463   0.595   7.556 -0.2737  0.0250 -0.0916
 1512W        W 3712  26.119   4.996   4.554 -0.0713  0.1109  0.0124
 1513W        W 3713   0.694   1.959  28.871  0.2249  0.0457 -0.0229
 1514W        W 3714  11.514   6.389  31.760  0.0378  0.1881  0.4080
 1515W        W 3715   8.808   5.336  11.479  0.0481  0.2443  0.3536
 1516W        W 3716   6.088   1.854  26.455  0.0031 -0.0176  0.1703
 1517W        W 3717   5.486   1.046  10.201 -0.1208  0.1557  0.0858
 1518W        W 3718  22.524   0.917   2.832 -0.0573 -0.1082 -0.1140
 1519W        W 3719   7.482   4.565  10.327 -0.1257  0.3020 -0.0557
 1520W        W 3720   0.496   6.115   4.129  0.2363  0.2910  0.1738
 1521W        W 3721   3.089   1.946  30.967  0.0202  0.0898  0.1169
 1522W        W 3722  23.043   1.115   8.142  0.0368 -0.1237 -0.1277
 1523W        W 3723  21.379   4.588   8.843  0.1682  0.0863  0.1734
 1524W        W 3724   2.783   4.081   9.034  0.2646  0.2095 -0.2523
 1525W        W 3725  18.935   6.238   1.041 -0.1147 -0.1704  0.0606
 1526W        W 3726   3.876   0.299   2.772 -0.1403  0.2576  0.0307
 1527W        W 3727   9.609   1.134  27.108 -0.1639  0.0328 -0.0203
 1528W        W 3728  22.166   4.004   6.988 -0.2697 -0.0237 -0.1254
 1529W        W 3729   6.282   5.112  24.190  0.4011  0.0776  0.2615
 1530W        W 3730  12.369   1.565  14.266 -0.1965 -0.1701 -0.2657
 1531W        W 3731   0.975   1.602  25.799 -0.2273 -0.2720  0.0368
 1532W        W 3732  16.035   5.209  21.830 -0.0310 -0.0020  0.0754
 1533W        W 3733   9.150   2.053  21.491  0.0498 -0.0338  0.1113
 1534W        W 3734  21.796   3.280  24.774 -0.0381  0.0323 -0.0698
 1535W        W 3735   3.542   4.758   8.455  0.1586 -0.3608 -0.1243
 1536W        W 3736  26.283   3.437  32.283 -0.2118 -0.1299 -0.0310
 1537W        W 3737   2.759   1.041  22.175  0.2403 -0.0567  0.3247
 1538W        W 3738   1.495   1.442  20.065  0.1491  0.1483  0.0939
 1539W        W 3739  12.076   6.146   3.945 -0.3513 -0.1451 -0.2623
 1540W        W 3740  22.414   1.761  32.165  0.5374 -0.1054 -0.1098
 1541W        W 3741   5.840   1.973   2.198 -0.0608  0.1476  0.4073
 1542W        W 3742  24.988   3.580  13.916  0.2797  0.3719  0.1192
 1543W        W 3743   1.778   2.128   5.035 -0.1001  0.0435  0.0863
 1544W        W 3744  16.879   0.426  11.759 -0.0480 -0.2557 -0.3040
 1545W        W 3745   5.284   4.748  28.182 -0.0832 -0.1447 -0.0784
 1546W        W 3746   5.853   4.235   1.185  0.3464  0.1163 -0.0922
 1547W        W 3747  24.285   6.232   3.074  0.3515 -0.4172  0.0658
 1548W        W 3748  12.898   1.006  12.735  0.0367  0.1448  0.2566
 1549W        W 3749   6.847   6.084  20.784  0.1547 -0.1985  0.0574
 1550W        W 3750  17.067   5.661  30.638  0.1935  0.1158  0.1453
 1551W        W 3751  10.858   2.318  35.525 -0.0547 -0.2500 -0.2836
 1552W        W 3752  21.544   0.916   4.748  0.0912  0.2319  0.1692
 1553W        W 3753  22.930   2.577  12.558 -0.0136  0.4443 -0.0170
 1554W        W 3754   5.504   0.440   6.017  0.1165 -0.0674 -0.1988
 1555W        W 3755  19.087   0.341  29.456 -0.2278  0.0026 -0.0102
 1556W        W 3756  25.195   1.678   6.490  0.1860 -0.0288  0.0399
 1557W        W 3757   0.639   0.721  10.864  0.3394 -0.1011  0.0121
 1558W        W 3758  21.884   5.531  31.216  0.0537 -0.2317  0.2205
 1559W        W 3759  24.931   5.009  14.474  0.1096 -0.3419  0.1112
 1560W        W 3760  17.213   6.506  21.704 -0.0861 -0.2319 -0.1062
 1561W        W 3761   4.929   4.944  25.501  0.1879  0.1138 -0.1827
 1562W        W 3762   9.133   3.783  30.604 -0.3821  0.1073 -0.1279
 1563W        W 3763   6.274   6.247   7.457  0.1661 -0.0347 -0.0957
 1564W        W 3764  15.030   3.184   2.554  0.1973 -0.1946 -0.0015
 1565W        W 3765  16.439   3.170  23.691 -0.1639  0.2696  0.2451
 1566W        W 3766  15.776   0.297  32.131  0.1603 -0.0196 -0.1026
 1567W        W 3767  23.118   5.091   8.391  0.0362  0.3342  0.0168
 1568W        W 3768  14.782   0.818   7.784 -0.1596  0.0796 -0.0323
 1569W        W 3769   3.700   4.641  27.806  0.2655 -0.0060  0.0398
 1570W        W 3770   5.720   5.468  13.731 -0.0126 -0.0877 -0.1288
 1571W        W 3771  19.091   1.091   0.335 -0.0585  0.3265 -0.1673
 1572W        W 3772  19.963   2.297  22.679 -0.0159 -0.0899  0.1005
 1573W        W 3773  12.596   0.558   6.261 -0.5586  0.2089 -0.4647
 1574W        W 3774   0.008   4.317  25.517 -0.1114 -0.0402  0.0273
 1575W        W 3775  24.375   6.454   6.139 -0.1618 -0.0167  0.0892
 1576W        W 3776   7.445   4.237  10.754  0.0509 -0.0956 -0.3169
 1577W        W 3777  11.233   5.017  26.381 -0.1596  0.0558  0.0499
 1578W        W 3778  12.831   4.904  27.819  0.1234 -0.1870  0.0657
 1579W        W 3779  24.073   0.849  35.915  0.0483 -0.0448  0.1577
 1580W        W 3780  22.732   2.135  29.661 -0.4683  0.2065  0.0723
 1581W        W 3781  20.497   2.915  35.674  0.1540  0.0937  0.1040
 1582W        W 3782  18.529   4.897   7.937  0.0377 -0.2588  0.0204
 1583W        W 3783   5.281   4.062   2.951 -0.1005 -0.0906 -0.0271
 1584W        W 3784  12.782   0.014  29.835 -0.1393  0.0584 -0.5786
 1585W        W 3785  14.278   5.017   2.794  0.2363  0.1293 -0.1747
 1586W        W 3786   0.850   2.361  22.115  0.1147 -0.0640 -0.2501
 1587W        W 3787  11.086   0.361   8.910  0.1943  0.0250  0.1443
 1588W        W 3788  18.545   5.407  34.873  0.1171  0.0594 -0.3125
 1589W        W 3789  11.900   5.948  15.309 -0.1557 -0.1953 -0.0702
 1590W        W 3790  13.431   2.050  11.313  0.1444  0.1274 -0.1937
 1591W        W 3791   4.551   3.140  12.970  0.0931  0.5341  0.1851
 1592W        W 3792  20.559   4.059   0.292 -0.0805 -0.1055 -0.1044
 1593W        W 3793  25.400   0.103  29.937 -0.1464 -0.0480  0.0920
 1594W        W 3794  18.433   0.487  20.744  0.1068  0.1727 -0.2930
 1595W        W 3795   5.456   4.461   3.234 -0.0244  0.2455 -0.1720
 1596W        W 3796   9.798   4.998   1.280  0.2101 -0.0351 -0.0023
 1597W        W 3797  14.881   0.342  12.639  0.0316 -0.0447 -0.1574
 1598W        W 3798   0.814   6.060  31.624 -0.0728 -0.2077 -0.0523
 1599W        W 3799  18.015   4.181  13.112 -0.2177 -0.3473  0.0783
 1600W        W 3800   3.185   0.697   8.246 -0.1773 -0.3131  0.0016
 1601W        W 3801  24.685   0.693  35.580 -0.2853  0.0616  0.0134
 1602W        W 3802  20.685   2.820  12.021  0.0621 -0.3401  0.0748
 1603W        W 3803  12.363   0.011  35.575 -0.1198  0.0357 -0.1529
 1604W        W 3804   8.638   1.658  25.824 -0.3386  0.1188  0.1676
 1605W        W 3805  18.026   5.132  26.244 -0.0639  0.0578  0.1627
 1606W        W 3806  12.164   0.801  29.461  0.0681  0.0626  0.1727
 1607W        W 3807  20.872   1.163   0.246  0.1372 -0.3326  0.1717
 1608W        W 3808  11.132   4.893   6.152 -0.1014  0.3152 -0.0330
 1609W        W 3809   0.397   2.056  27.894 -0.0706  0.3037  0.0443
 1610W        W 3810  24.248   2.863  14.486  0.1892 -0.1551  0.1895
 1611W        W 3811  22.459   3.757   1.017 -0.0005  0.1423  0.0879
 1612W        W 3812  14.518   4.090  10.146  0.1683  0.1592  0.0804
 1613W        W 3813  20.533   6.325  31.522  0.0529  0.0618  0.2706
 1614W        W 3814   5.213   4.637   5.520 -0.0043  0.0462  0.2004
 1615W        W 3815  21.160   1.989   1.211  0.1797 -0.0059 -0.1805
 1616W        W 3816   4.568   5.912  34.732 -0.2436 -0.0382 -0.1251
 1617W        W 3817  14.889   3.602  21.121  0.3382 -0.2115 -0.1706
 1618W        W 3818   5.964   6.006  26.038  0.2345  0.1512  0.2381
 1619W        W 3819  24.715   4.086   1.423 -0.1632 -0.2826  0.1040
 1620W        W 3820  12.682   2.314  26.886 -0.2560 -0.4457 -0.1525
 1621W        W 3821  24.970   5.625   5.084  0.0927 -0.1996 -0.0744
 1622W        W 3822   8.340   0.371   2.419 -0.1060  0.0310 -0.1797
 1623W        W 3823  13.636   0.953   6.053 -0.0442 -0.1464 -0.0534
 1624W        W 3824   2.858   2.747  33.802  0.0388  0.0061 -0.0665
 1625W        W 3825   9.866   5.598  24.903 -0.1469 -0.2476 -0.2538
 1626W        W 3826  23.609   3.785  21.002 -0.2275  0.1438 -0.0638
 1627W        W 3827  16.221   1.342   5.063  0.3049 -0.0129 -0.2338
 1628W        W 3828  13.108   1.855   7.334  0.0782 -0.0819  0.1319
 1629W        W 3829  12.833   2.570   8.145 -0.3512  0.0388  0.1310
 1630W        W 3830   2.357   6.253  24.892 -0.2775  0.0071  0.0080
 1631W        W 3831  22.231   5.227   8.435  0.1005  0.0686  0.0524
 1632W        W 3832  11.993   0.080   9.878  0.0700 -0.2972 -0.2123
 1633W        W 3833  18.438   2.913  36.125 -0.0035  0.0924 -0.1063
 1634W        W 3834  15.464   4.372  11.348  0.3430  0.0910 -0.0822
 1635W        W 3835  12.585   2.035  35.576 -0.1184 -0.1000  0.0731
 1636W        W 3836  21.012   0.811   0.819  0.1539  0.1389 -0.0750
 1637W        W 3837   3.733   4.152   6.740  0.2792  0.1004 -0.1113
 1638W        W 3838  20.873   4.846   7.363  0.3473  0.1190  0.0169
 1639W        W 3839  20.300   3.732  20.085  0.2759  0.0830  0.0885
 1640W        W 3840  21.541   4.678  31.890 -0.1617  0.2668 -0.0780
 1641W        W 3841  16.618   1.896   0.919  0.2186 -0.0947 -0.1609
 1642W        W 3842  20.580   3.718  23.229  0.2326  0.1504 -0.1260
 1643W        W 3843  24.802   4.403  12.644 -0.1344 -0.2366  0.0410
 1644W        W 3844  11.060   1.586  23.549 -0.1239 -0.0849 -0.0690
 1645W        W 3845  12.918   2.818  13.141 -0.1313  0.1456  0.1232
 1646W        W 3846   1.691   2.236  25.091  0.2058 -0.0243  0.1650
 1647W        W 3847   2.301   1.898  25.912  0.0632  0.2706  0.0485
 1648W        W 3848  15.660   3.011   7.671  0.0746  0.0950 -0.3283
 1649W        W 3849  15.472   3.829  14.781 -0.0011  0.0416 -0.1658
 1650W        W 3850  24.339   2.516  21.842 -0.1190  0.1469  0.0187
 1651W        W 3851  14.319   0.526  33.720 -0.0593 -0.2306  0.4741
 1652W        W 3852  14.885   2.238  12.884 -0.0593 -0.1693  0.2112
 1653W        W 3853  15.445   0.574  15.298  0.1050  0.2224 -0.1471
 1654W        W 3854  16.182   1.095   8.454  0.1019  0.1078 -0.0588
 1655W        W 3855   6.678   2.829  36.129  0.1073 -0.1610  0.1238
 1656W        W 3856   7.937   4.205  14.953 -0.2226 -0.3406 -0.0386
 1657W        W 3857  25.746   3.299  28.649  0.0084 -0.0060 -0.0983
 1658W        W 3858  17.299   5.932  12.658  0.1753  0.2091 -0.2547
 1659W        W 3859  15.256   0.469  11.735  0.0108 -0.0111  0.1671
 1660W        W 3860  25.772   6.023  21.176  0.0417  0.0854 -0.0319
 1661W        W 3861  24.024   4.018   8.491  0.0828  0.3698  0.0601
 1662W        W 3862  22.385   6.258  20.668 -0.1629 -0.1220 -0.0340
 1663W        W 3863   2.251   3.325  13.720  0.0796  0.0333 -0.2342
 1664W        W 3864   6.981   6.461   6.392  0.0133 -0.0479  0.2031
 1665W        W 3865  15.061   5.953  28.529  0.1149  0.1250  0.0377
 1666W        W 3866  12.651   0.544  25.868 -0.2017  0.0808  0.1356
 1667W        W 3867  15.970   5.651  23.234 -0.1211  0.0117 -0.1139
 1668W        W 3868  17.117   5.068  26.786 -0.1428 -0.1799  0.1833
 1669W        W 3869  10.792   4.043  33.772 -0.3447  0.3472  0.0415
 1670W        W 3870  22.146   4.547  23.519  0.1489  0.3432 -0.0767
 1671W        W 3871  13.765   2.081  32.023 -0.0988 -0.1298 -0.1074
 1672W        W 3872   1.150   5.621  25.098  0.1363 -0.0132 -0.1681
 1673W        W 3873   8.967   0.395  30.338 -0.1423 -0.1490  0.0620
 1674W        W 3874   1.360   0.515   2.027  0.0037 -0.2441 -0.1364
 1675W        W 3875   8.200   6.006  11.540  0.0931 -0.4255  0.0600
 1676W        W 3876  26.035   4.441  33.435  0.0262 -0.1125  0.2533
 1677W        W 3877  16.785   0.792  21.353 -0.0699  0.1173 -0.2654
 1678W        W 3878  11.697   2.585   0.378  0.1677 -0.0243 -0.1602
 1679W        W 3879  21.157   3.790  14.605 -0.4343 -0.1522 -0.2804
 1680W        W 3880  10.346   2.969  28.324  0.2525 -0.3949  0.0600
 1681W        W 3881  20.251   2.699  14.239  0.1291  0.1287  0.0770
 1682W        W 3882  10.644   3.360  25.826  0.0425  0.2753 -0.2279
 1683W        W 3883  12.068   2.776  21.730 -0.3033  0.2089 -0.1323
 1684W        W 3884  19.044   2.817  21.104  0.1439  0.3573  0.1525
 1685W        W 3885   9.333   5.808   5.392 -0.1320 -0.0887 -0.1579
 1686W        W 3886   1.634   1.427  29.377  0.1343 -0.1962  0.1876
 1687W        W 3887  15.540   6.317  28.530  0.1846  0.0343  0.0725
 1688W        W 3888   4.121   6.022  22.155 -0.1458  0.0371 -0.0600
 1689W        W 3889  24.641   6.439  24.178  0.1952  0.0476 -0.1778
 1690W        W 3890  18.335   5.637  13.603  0.3048  0.0581  0.1154
 1691W        W 3891  15.639   3.102  33.109  0.0903  0.0144  0.0690
 1692W        W 3892   1.049   1.479  22.560 -0.1065 -0.0223  0.2044
 1693W        W 3893  22.210   3.786   2.036  0.1217 -0.1448 -0.3018
 1694W        W 3894  26.408   4.592  13.534 -0.1891 -0.0988  0.2998
 1695W        W 3895  19.013   6.165   1.999  0.1640 -0.2265  0.1381
 1696W        W 3896   1.073   3.089  14.333 -0.0328  0.2735 -0.2281
 1697W        W 3897   5.185   2.494   0.695  0.0011  0.2458 -0.2479
 1698W        W 3898  18.279   4.283   2.790  0.0680  0.3040  0.0870
 1699W        W 3899  23.899   5.324  29.947 -0.1538 -0.0996  0.1046
 1700W        W 3900   5.673   0.565   4.104 -0.0456  0.0307 -0.1049
 1701W        W 3901  16.372   5.563  27.710 -0.3217  0.0035 -0.1561
 1702W        W 3902  13.090   3.606  21.451 -0.1445 -0.0249 -0.0638
 1703W        W 3903  19.408   3.753  25.980 -0.1023  0.0360  0.0333
 1704W        W 3904  20.012   5.345  30.518 -0.2220 -0.3090  0.0771
 1705W        W 3905  19.310   3.461  22.841 -0.0327  0.1699 -0.3664
 1706W        W 3906   7.995   3.075   9.709 -0.0958 -0.0841  0.0113
 1707W        W 3907   5.058   2.210  27.101 -0.1313 -0.0408  0.2036
 1708W        W 3908  12.689   1.952  24.016  0.0881 -0.0519  0.0983
 1709W        W 3909   3.725   1.775  27.938  0.1037 -0.0726  0.2871
 1710W        W 3910   2.721   5.099   5.388 -0.2593 -0.0780 -0.1313
 1711W        W 3911  17.253   4.863  13.697 -0.0966  0.2100 -0.1032
 1712W        W 3912  14.877   1.891  22.128  0.1665 -0.0867  0.2999
 1713W        W 3913   6.879   4.009  26.803 -0.0065 -0.1426  0.2125
 1714W        W 3914  16.948   1.010  22.662  0.2601 -0.0340 -0.1029
 1715W        W 3915  16.482   4.245   7.639 -0.0375 -0.0489  0.0361
 1716W        W 3916  25.722   1.230  26.011  0.2355 -0.1834  0.2609
 1717W        W 3917  24.453   1.101  14.664 -0.0638 -0.0218  0.1121
 1718W        W 3918  13.498   1.450  32.205  0.2716  0.2603  0.2118
 1719W        W 3919  13.597   2.403  22.077 -0.3169 -0.0431 -0.3866
 1720W        W 3920   8.264   4.148  31.956  0.1507 -0.1059 -0.2507
 1721W        W 3921   2.501   0.031  31.169 -0.1316 -0.1364  0.2786
 1722W        W 3922  18.117   1.524  13.349  0.1515 -0.2039  0.0685
 1723W        W 3923  16.159   1.893  24.453 -0.2158 -0.2455 -0.0009
 1724W        W 3924  20.335   2.837  25.845 -0.2793  0.0436  0.1852
 1725W        W 3925   7.210   4.244  25.947 -0.0196 -0.0812  0.0817
 1726W        W 3926  21.414   2.433  28.310 -0.2667  0.0416 -0.1607
 1727W        W 3927  18.328   0.717  33.249  0.0563 -0.1920  0.2016
 1728W        W 3928   8.172   6.532   0.810 -0.2294 -0.4376 -0.2726
 1729W        W 3929   3.541   3.391  36.143  0.0495  0.0250  0.2100
 1730W        W 3930   3.974   4.258  26.453 -0.1491 -0.2018 -0.0354
 1731W        W 3931  16.099   3.271  10.175  0.0582  0.0395 -0.2500
 1732W        W 3932  14.687   2.066  27.042  0.1475 -0.2485  0.3346
 1733W        W 3933  22.202   4.943  31.017  0.0302 -0.0076  0.2401
 1734W        W 3934   7.122   4.630   9.139 -0.2358  0.0837  0.3911
 1735W        W 3935   1.420   1.077  12.777 -0.0548  0.1283  0.2453
 1736W        W 3936  10.958   4.046   1.026 -0.1054  0.2278  0.1454
 1737W        W 3937   5.121   6.601   6.270 -0.1796 -0.1171  0.1279
 1738W        W 3938   9.194   1.529  12.851  0.0115 -0.1323 -0.0914
 1739W        W 3939  24.688   1.318  25.922  0.3108  0.1277  0.2193
 1740W        W 3940  12.426   4.873  10.319 -0.0351  0.0290  0.1787
 1741W        W 3941  16.306   1.913  14.196  0.1108 -0.2013 -0.1571
 1742W        W 3942   0.206   5.798  11.357  0.1713 -0.1180  0.2305
 1743W        W 3943  15.854   0.305  30.624 -0.1371 -0.2770  0.0143
 1744W        W 3944   2.826   3.190  27.505  0.0304  0.2164  0.0719
 1745W        W 3945  14.135   0.418   2.187 -0.5018 -0.2583 -0.1783
 1746W        W 3946   3.881   3.382  32.242  0.1172 -0.0263 -0.3088
 1747W        W 3947   1.889   2.543  29.788  0.0021  0.0648  0.3134
 1748W        W 3948  12.863   4.929   1.696  0.0631  0.1402 -0.3587
 1749W        W 3949  14.241   3.117  22.654 -0.2817 -0.2003 -0.1896
 1750W        W 3950   6.462   4.993   0.993 -0.4438  0.2045 -0.0035
 1751W        W 3951  18.433   0.540   5.073  0.1282  0.1711 -0.1168
 1752W        W 3952  16.023   0.171  21.117  0.0627  0.0081  0.3265
 1753W        W 3953  12.126   0.057  23.583  0.0999 -0.1401  0.1525
 1754W        W 3954   5.055   2.932  35.505  0.2273  0.1426  0.4275
 1755W        W 3955  24.146   5.873  33.686  0.0425  0.0253 -0.0495
 1756W        W 3956  21.584   0.214   2.079 -0.2415  0.1446  0.1467
 1757W        W 3957   5.578   1.667  32.565  0.0843 -0.0986 -0.4121
 1758W        W 3958  10.786   4.761  32.912 -0.0879  0.0623 -0.0347
 1759W        W 3959  13.644   3.050  35.556  0.1042 -0.1747  0.1189
 1760W        W 3960   7.859   5.160  22.831  0.0288 -0.2450  0.1297
 1761W        W 3961  14.243   3.700   7.518  0.1428 -0.1592  0.0549
 1762W        W 3962  21.379   4.032   4.786 -0.0062  0.0388  0.0593
 1763W        W 3963  11.238   1.998   3.107  0.4636 -0.1389 -0.1169
 1764W        W 3964  15.630   6.211  12.028  0.3416  0.4012 -0.0654
 1765W        W 3965  21.349   4.991  30.668 -0.1692  0.0489  0.1869
 1766W        W 3966  12.666   0.236  13.340  0.0170 -0.0701 -0.0276
 1767W        W 3967  22.045   5.838  23.793  0.0893 -0.2640 -0.0733
 1768W        W 3968  23.615   4.906  23.218  0.1015  0.1495  0.1054
 1769W        W 3969   7.474   3.847  22.773 -0.2371 -0.0512 -0.3041
 1770W        W 3970  11.452   3.435  34.823 -0.1046  0.0168 -0.0550
 1771W        W 3971  15.980   0.880   6.256  0.1424  0.0303  0.0772
 1772W        W 3972  17.582   6.098  26.647 -0.2481 -0.1026  0.3449
 1773W        W 3973   9.725   1.536   9.255 -0.0774 -0.0439 -0.0986
 1774W        W 3974   1.950   6.557  33.440 -0.1818 -0.2548  0.0472
 1775W        W 3975  14.445   5.830  12.610 -0.0878 -0.0811  0.1500
 1776W        W 3976  20.199   3.636   5.788  0.0219 -0.0647 -0.2501
 1777W        W 3977  19.748   2.253  10.506 -0.0983  0.2140 -0.0966
 1778W        W 3978   4.161   6.312   3.476 -0.2139 -0.0079 -0.3350
 1779W        W 3979  22.540   2.273  24.565  0.3093 -0.2883  0.3097
 1780W        W 3980  23.555   4.459  29.525 -0.0563  0.1975 -0.0436
 1781W        W 3981  23.466   5.651  33.253 -0.2207 -0.0248 -0.0191
 1782W        W 3982  22.071   2.363  14.110 -0.2711 -0.1424 -0.1117
 1783W        W 3983  22.362   6.032  34.346  0.1566  0.0066  0.0565
 1784W        W 3984   9.891   0.613  30.327  0.0837 -0.0756 -0.1640
 1785W        W 3985   0.343   1.603  28.982 -0.0507 -0.1048  0.1112
 1786W        W 3986  15.787   4.572   2.093 -0.0274  0.0231  0.0339
 1787W        W 3987   3.619   4.111   7.321 -0.0708 -0.0826 -0.2283
 1788W        W 3988  12.832   4.528   0.716  0.1344  0.0741 -0.0070
 1789W        W 3989  19.341   4.296  33.722 -0.0045  0.1697 -0.0794
 1790W        W 3990  12.559   5.402   7.749 -0.0517 -0.2368 -0.1919
 1791W        W 3991  10.725   4.877   2.254  0.0295 -0.0572  0.0728
 1792W        W 3992  21.389   6.397  12.663 -0.3625 -0.1055  0.0474
 1793W        W 3993   5.636   1.454   0.722 -0.1615  0.2297 -0.1626
 1794W        W 3994   3.366   2.183  26.002  0.3120 -0.2607 -0.0661
 1795W        W 3995  11.435   6.203  26.968 -0.1180  0.2601  0.0955
 1796W        W 3996   5.430   2.282   9.635 -0.1763  0.0580  0.2019
 1797W        W 3997  13.634   4.143  26.137 -0.2257 -0.0503  0.0592
 1798W        W 3998  14.252   1.851  14.640 -0.3069  0.0503 -0.1080
 1799W        W 3999  23.718   2.691   6.503 -0.1338  0.2308 -0.0770
 1800W        W 4000  24.265   0.315   5.879  0.1617  0.4541 -0.2477
 1801W        W 4001  17.043   3.426  32.776  0.2614 -0.0611 -0.0488
 1802W        W 4002  14.045   4.351  20.324 -0.0866  0.1886 -0.0916
 1803W        W 4003  11.070   6.148  33.659 -0.2989 -0.1007 -0.1450
 1804W        W 4004  22.747   0.115  11.826 -0.0036 -0.5224  0.1762
 1805W        W 4005  14.866   6.299  21.255 -0.4014 -0.1177 -0.1873
 1806W        W 4006  22.612   1.857   7.229 -0.1545  0.0257  0.0932
 1807W        W 4007  14.498   4.177  24.399 -0.0653 -0.0229 -0.0725
 1808W        W 4008   0.275   3.544  29.553 -0.0591 -0.0685  0.0931
 1809W        W 4009  12.991   4.128  26.067 -0.0989  0.1297 -0.0794
 1810W        W 4010  14.501   1.225  21.138  0.1662  0.0626  0.0564
 1811W        W 4011  18.404   1.395  30.848 -0.1081  0.0090  0.1318
 1812W        W 4012   9.159   0.103  13.749  0.0781  0.2125 -0.3267
 1813W        W 4013   3.648   2.825  24.139 -0.3455 -0.1531  0.0879
 1814W        W 4014   7.850   0.425  33.880  0.3509 -0.4018 -0.1487
 1815W        W 4015   9.590   1.245  11.912 -0.1315  0.0508  0.0025
 1816W        W 4016  12.693   3.226  28.022  0.2874  0.1193  0.1207
 1817W        W 4017   6.955   1.674  25.147 -0.0301 -0.1085 -0.0444
 1818W        W 4018  23.707   1.070  29.054 -0.3111  0.1097 -0.2611
 1819W        W 4019  12.843   5.714  32.329  0.1494  0.1589  0.1271
 1820W        W 4020  15.886   5.927  26.830  0.0917 -0.0344  0.1733
 1821W        W 4021   3.681   5.464  35.221 -0.0963  0.0443  0.0521
 1822W        W 4022   9.652   5.071   3.616  0.1436 -0.2928  0.3890
 1823W        W 4023  16.954   0.342  29.192  0.2044 -0.1791  0.0879
 1824W        W 4024  16.563   3.434  10.250  0.1583  0.2661  0.3117
 1825W        W 4025  25.276   3.327  21.360  0.3302  0.1758  0.0940
 1826W        W 4026  16.899   4.215   9.704  0.0968 -0.1439  0.0127
 1827W        W 4027  22.827   0.709   8.630  0.1400  0.2317 -0.3283
 1828W        W 4028   8.681   1.438  13.742 -0.1911  0.1907  0.3073
 1829W        W 4029  22.421   4.586  12.603 -0.1583  0.2132  0.1331
 1830W        W 4030  21.582   5.314  20.835  0.2743 -0.1650 -0.1089
 1831W        W 4031  22.061   5.286   1.732 -0.0360 -0.2302 -0.2139
 1832W        W 4032  10.260   4.095  31.937 -0.0600  0.0379 -0.1700
 1833W        W 4033  15.571   1.091   9.654  0.2800 -0.3026 -0.3423
 1834W        W 4034  18.593   0.563   0.856  0.0936  0.0532  0.5248
 1835W        W 4035  16.910   3.016   1.565  0.0567 -0.1423  0.0652
 1836W        W 4036   1.855   2.893   0.777 -0.1250 -0.2256  0.0648
 1837W        W 4037  23.660   5.323  14.173 -0.1583  0.0265  0.1287
 1838W        W 4038  23.468   3.101   3.398  0.4839 -0.1551  0.2518
 1839W        W 4039  19.217   1.254  20.012  0.2530  0.2256  0.2026
 1840W        W 4040   3.048   5.448  21.921  0.0907 -0.0281  0.2378
 1841W        W 4041   3.006   0.226  11.564  0.0379 -0.0859 -0.4803
 1842W        W 4042   2.936   4.397  35.921 -0.1634 -0.0372 -0.0351
 1843W        W 4043   9.330   4.337  23.355  0.0178  0.1130  0.1627
 1844W        W 4044  16.265   2.072  24.907 -0.1432  0.1949  0.0381
 1845W        W 4045   3.271   5.715  32.610  0.1298 -0.1667  0.0072
 1846W        W 4046  16.173   0.019  30.337  0.1746 -0.2415 -0.0190
 1847W        W 4047  14.716   1.849   2.102 -0.0896 -0.1059  0.0822
 1848W        W 4048   5.283   4.362  28.540 -0.0367  0.0902 -0.0078
 1849W        W 4049  13.277   5.422  25.907  0.2560 -0.3263 -0.0721
 1850W        W 4050   5.630   0.376   7.085  0.0537 -0.1026 -0.3335
 1851W        W 4051  17.855   6.461   2.984 -0.3250  0.0893 -0.0632
 1852W        W 4052   3.613   3.338   0.969 -0.1560 -0.0012 -0.0967
 1853W        W 4053   0.960   4.330  21.646  0.1423  0.0821  0.2786
 1854W        W 4054  18.827   6.396  25.444  0.0636 -0.0416 -0.0346
 1855W        W 4055   8.006   6.280  31.030 -0.0384 -0.2114 -0.0005
 1856W        W 4056  24.188   2.616  13.124  0.0032 -0.2231  0.0256
 1857W        W 4057  21.022   2.680   0.283 -0.1287  0.0275 -0.1250
 1858W        W 4058  12.483   3.378  33.799 -0.0842  0.1387  0.2310
 1859W        W 4059  25.128   4.764  11.571 -0.2229 -0.2101 -0.2572
 1860W        W 4060  21.079   0.263  13.188  0.0327  0.1379 -0.1252
 1861W        W 4061  17.827   3.052  14.854  0.2083  0.1364 -0.0986
 1862W        W 4062  26.059   0.623  32.639 -0.2679 -0.2194  0.6336
 1863W        W 4063  25.601   3.151  13.475  0.1243 -0.2529 -0.2691
 1864W        W 4064  21.370   1.621  32.659 -0.0536 -0.2386 -0.4652
 1865W        W 4065  19.523   0.813  32.393 -0.2332  0.1266 -0.2311
 1866W        W 4066  18.800   5.486  10.518 -0.0219 -0.4031 -0.2930
 1867W        W 4067   1.382   5.265   2.210  0.1065 -0.1965  0.0364
 1868W        W 4068   6.192   6.430  34.236  0.2358  0.0989  0.2791
 1869W        W 4069  16.365   2.347   7.345 -0.0717 -0.1138  0.3322
 1870W        W 4070  21.285   4.820  13.831 -0.1028  0.0237 -0.0089
 1871W        W 4071  20.471   3.369   1.126  0.2824  0.2812 -0.1634
 1872W        W 4072  22.079   1.617  25.068 -0.0848  0.2627  0.0222
 1873W        W 4073  16.103   4.731  27.630 -0.2758  0.0693 -0.1031
 1874W        W 4074   7.704   3.880  12.597 -0.1804  0.3976  0.0642
 1875W        W 4075   1.910   0.606  10.967  0.2161 -0.1014 -0.1121
 1876W        W 4076   2.492   1.697  21.755  0.1925  0.0218  0.1175
 1877W        W 4077  22.067   1.108  36.123 -0.1419  0.2217  0.1699
 1878W        W 4078  20.137   5.412  12.142  0.3083  0.0497 -0.2192
 1879W        W 4079   4.322   5.901  33.933 -0.2527  0.3626  0.1141
 1880W        W 4080   4.283   1.481   2.474 -0.1426  0.2299  0.1331
 1881W        W 4081  20.103   5.404  14.956 -0.0814 -0.1320 -0.2511
 1882W        W 4082   6.968   3.115  25.271  0.0507  0.0182  0.2094
 1883W        W 4083  21.015   1.226   9.092 -0.3255 -0.1066  0.1970
 1884W        W 4084   6.830   3.780   0.662  0.0166  0.0887  0.1991
 1885W        W 4085   9.020   4.911  12.836 -0.1144 -0.0626 -0.0825
 1886W        W 4086  25.073   2.635   3.787 -0.2586 -0.2317 -0.1771
 1887W        W 4087   3.456   6.069  29.371 -0.2228 -0.0904 -0.3141
 1888W        W 4088  14.424   3.807  24.111 -0.4013 -0.1916 -0.1092
 1889W        W 4089  26.013   1.516   7.621 -0.1195 -0.2296 -0.0857
 1890W        W 4090  23.606   2.184  28.058  0.1467 -0.0205 -0.0282
 1891W        W 4091  10.056   3.451   9.273 -0.1136 -0.1320 -0.2581
 1892W        W 4092  13.410   4.927  31.133  0.0263  0.0343 -0.4507
 1893W        W 4093   7.320   0.279  11.406 -0.1182 -0.3395 -0.0767
 1894W        W 4094   4.335   0.631  25.447 -0.0420  0.1394 -0.0650
 1895W        W 4095   5.110   1.747  27.789  0.0288  0.1384 -0.0591
 1896W        W 4096  24.058   0.539  14.033  0.4171 -0.0084 -0.0263
 1897W        W 4097   3.696   3.142  25.048 -0.0369 -0.1429  0.0371
 1898W        W 4098   7.936   0.711  23.304 -0.0148  0.0944  0.0655
 1899W        W 4099   9.372   1.676  27.759 -0.0021 -0.1544 -0.0584
 1900W        W 4100  22.449   4.999   6.128  0.3372  0.2668  0.1263
 1901W        W 4101  21.154   1.677   6.037 -0.3334 -0.1163 -0.1759
 1902W        W 4102  14.399   1.910  21.955 -0.0159  0.0093  0.0622
 1903W        W 4103  25.691   1.800  24.369  0.0055 -0.1999 -0.3888
 1904W        W 4104  22.366   4.737  35.711  0.0682  0.0462 -0.2461
 1905W        W 4105  24.816   2.273  23.052 -0.1925  0.0998  0.0089
 1906W        W 4106  24.268   0.095  33.917  0.1553 -0.3001  0.1105
 1907W        W 4107   8.305   2.357   0.052  0.0179 -0.0962 -0.1993
 1908W        W 4108  20.618   2.135  10.071  0.1176 -0.2245  0.1495
 1909W        W 4109   9.404   3.927  25.909 -0.1568 -0.2406  0.0206
 1910W        W 4110  17.813   2.263  33.680 -0.0212  0.1353 -0.0014
 1911W        W 4111  20.364   6.174  20.741 -0.3065  0.1528  0.2238
 1912W        W 4112  21.433   3.104  11.966 -0.3123  0.0210 -0.0941
 1913W        W 4113   3.391   0.347  31.700  0.2128 -0.1909  0.1440
 1914W        W 4114   5.125   1.794  35.030  0.1326 -0.0367  0.1814
 1915W        W 4115   2.042   6.423   2.026  0.0448 -0.1930  0.4463
 1916W        W 4116   4.917   6.157   6.045 -0.4906 -0.1952 -0.4416
 1917W        W 4117  25.078   2.224   9.613  0.1069  0.0167 -0.1211
 1918W        W 4118  26.397   6.543  22.894  0.2092  0.2470 -0.1804
 1919W        W 4119  24.771   1.142   7.888 -0.0288  0.1434  0.3446
 1920W        W 4120  14.033   1.689  26.600  0.2024  0.0606  0.1332
 1921W        W 4121  18.547   2.842  27.548 -0.1642 -0.2386  0.2116
 1922W        W 4122  21.295   4.783  10.377  0.1125  0.0489  0.1374
 1923W        W 4123  11.804   2.012  12.114  0.2170 -0.3223 -0.2044
 1924W        W 4124   7.051   0.233  25.443 -0.3227  0.4399  0.3333
 1925W        W 4125  20.156   2.523  35.718 -0.2291 -0.4216  0.0452
 1926W        W 4126  17.471   0.792  25.180  0.0193 -0.0220  0.0110
 1927W        W 4127  15.053   0.704   5.816  0.1626  0.0312 -0.1969
 1928W        W 4128   9.738   0.988   4.440  0.0579  0.0224 -0.0014
 1929W        W 4129  25.473   4.531   9.394  0.2692 -0.0756  0.1904
 1930W        W 4130  22.690   4.673  10.661  0.0167 -0.0783  0.1941
 1931W        W 4131   8.771   1.679  34.006 -0.0338  0.2442 -0.0952
 1932W        W 4132  15.072   0.927   7.350  0.0335  0.1076 -0.1138
 1933W        W 4133  13.476   0.312  15.498  0.0773  0.0816  0.1996
 1934W        W 4134  10.912   0.083  31.885 -0.1623 -0.1275  0.0524
 1935W        W 4135   1.043   3.981  15.298 -0.1916 -0.0254 -0.0133
 1936W        W 4136   6.788   2.765  31.179  0.1786 -0.1257  0.1120
 1937W        W 4137   3.060   4.139   1.289  0.2077  0.0228  0.1749
 1938W        W 4138   8.919   5.168   7.399  0.0640  0.1977 -0.0654
 1939W        W 4139  10.202   1.553  35.438 -0.1137  0.3984 -0.0023
 1940W        W 4140  18.665   0.198  12.239 -0.2220  0.0028  0.1513
 1941W        W 4141  17.097   2.086  12.892 -0.3432  0.3175 -0.0489
 1942W        W 4142  12.552   5.382  24.642  0.0690  0.2378 -0.0597
 1943W        W 4143   6.308   4.172  24.963  0.2393  0.2650  0.3485
 1944W        W 4144  14.929   1.662  22.562  0.0687  0.1916  0.2295
 1945W        W 4145  10.827   1.616  22.016 -0.0813 -0.2115  0.2196
 1946W        W 4146  19.295   2.274  33.729 -0.1840 -0.0066 -0.0870
 1947W        W 4147   6.448   2.673  22.683 -0.1740 -0.0177  0.2060
 1948W        W 4148  18.307   4.108  31.522  0.1717 -0.0960 -0.1774
 1949W        W 4149   6.966   3.339  34.797 -0.1561  0.0646 -0.1038
 1950W        W 4150   0.634   1.204  14.958  0.1479  0.1087  0.1107
 1951W        W 4151   5.603   1.635   5.152  0.0346 -0.1108  0.1218
 1952W        W 4152  24.946   5.196   5.862  0.0631  0.0273 -0.1028
 1953W        W 4153   6.779   1.995   1.912 -0.0270 -0.0198 -0.2791
 1954W        W 4154  12.193   1.440  28.324  0.2622 -0.1491  0.0144
 1955W        W 4155  14.772   5.919  13.857 -0.0548  0.1619 -0.1085
 1956W        W 4156  10.643   4.413  23.004 -0.2332 -0.0294  0.0494
 1957W        W 4157  10.371   1.687   8.039  0.0732  0.0362  0.1421
 1958W        W 4158  20.262   1.859  11.773  0.3414 -0.2874  0.0311
 1959W        W 4159  18.855   5.355   6.640 -0.1195  0.0949  0.0077
 1960W        W 4160   6.864   6.034   6.083  0.0604  0.2210  0.2547
 1961W        W 4161  21.463   3.694   1.944 -0.4009 -0.1293 -0.2627
 1962W        W 4162   9.722   1.465   7.072 -0.1311  0.1348  0.0872
 1963W        W 4163  15.431   3.646  27.681  0.1664  0.1780 -0.0901
 1964W        W 4164  13.543   5.447   2.438  0.1107  0.0622 -0.1200
 1965W        W 4165  23.144   3.827   0.287 -0.1593 -0.1399  0.0501
 1966W        W 4166   6.853   6.016  22.129 -0.4447 -0.2671 -0.2011
 1967W        W 4167   4.999   5.659  34.641  0.0391 -0.2406 -0.1168
 1968W        W 4168  16.349   4.882  25.360  0.1395  0.2183 -0.1520
 1969W        W 4169   0.719   4.588   6.470  0.1675 -0.1346 -0.1676
 1970W        W 4170  16.485   4.605  23.889 -0.2458  0.0306 -0.3063
 1971W        W 4171  18.633   0.276   1.686 -0.0719  0.2362  0.3059
 1972W        W 4172   8.760   2.793   0.029  0.1549 -0.1560  0.2080
 1973W        W 4173  22.093   3.734  22.072  0.2160 -0.0020 -0.1326
 1974W        W 4174  22.977   3.802  24.794 -0.2844 -0.2227  0.1382
 1975W        W 4175  15.235   0.918  22.534  0.3787  0.4203  0.1191
 1976W        W 4176   2.524   4.144   6.087  0.1920 -0.1619 -0.1240
 1977W        W 4177   2.291   3.093  20.694  0.1638  0.0455 -0.0769
 1978W        W 4178  21.786   3.956  10.981 -0.0100  0.1636 -0.2084
 1979W        W 4179  16.684   0.992  35.465 -0.1398  0.2758  0.1308
 1980W        W 4180  23.140   5.263  33.247 -0.0036  0.0551  0.2279
 1981W        W 4181  15.912   1.824   1.611 -0.0798 -0.1728 -0.0607
 1982W        W 4182  16.338   0.557   9.000 -0.1334 -0.0770 -0.0618
 1983W        W 4183   3.334   2.455  12.526 -0.0427 -0.1906  0.1149
 1984W        W 4184   6.817   5.423  29.582  0.1334 -0.0174 -0.0760
 1985W        W 4185  16.155   2.346   4.912  0.1330 -0.0001 -0.0937
 1986W        W 4186  25.148   1.454  12.770  0.0668 -0.2796 -0.1835
 1987W        W 4187  24.219   0.721   3.886 -0.1729  0.2478 -0.1509
 1988W        W 4188  15.626   0.040   4.618  0.2017 -0.0934 -0.0495
 1989W        W 4189   4.755   1.883  23.746  0.1462 -0.4106  0.2147
 1990W        W 4190  20.343   3.868   1.879  0.1497 -0.1840  0.0417
 1991W        W 4191   7.253   3.582  12.239 -0.2580 -0.1360 -0.3016
 1992W        W 4192  13.542   3.587   0.414 -0.1401  0.0712 -0.3058
 1993W        W 4193  15.323   1.833   6.948  0.3380 -0.2310 -0.0477
 1994W        W 4194  13.042   3.321  35.180 -0.1713  0.0512 -0.0861
 1995W        W 4195   2.209   3.653   5.285 -0.0979 -0.0182 -0.3742
 1996W        W 4196  12.521   3.559   2.808 -0.2189 -0.0582 -0.0126
 1997W        W 4197  15.574   2.490  11.620 -0.0137 -0.3052  0.0404
 1998W        W 4198  19.802   2.962   6.534 -0.0673 -0.0678  0.1639
 1999W        W 4199   0.550   2.805  13.640  0.1752  0.1151 -0.1381
 2000W        W 4200   9.435   3.900  24.721  0.2115 -0.2043 -0.2027
 2001W        W 4201  13.543   1.491  20.224 -0.0519 -0.1948  0.0508
 2002W        W 4202  24.139   1.261  20.150 -0.1245  0.1656 -0.1640
 2003W        W 4203  21.079   5.797   0.780  0.3934 -0.1184 -0.1539
 2004W        W 4204  11.712   1.645  30.131  0.2496  0.3906 -0.0451
 2005W        W 4205  13.876   1.385  22.711  0.3981  0.1814  0.0343
 2006W        W 4206  20.214   1.757   5.861 -0.1597 -0.1897  0.1163
 2007W        W 4207  16.447   4.724   4.977  0.1465  0.2707  0.0448
 2008W        W 4208   0.920   5.388   4.299  0.0299 -0.3553  0.1464
 2009W        W 4209   1.540   3.595  28.932 -0.0505 -0.0733 -0.2508
 2010W        W 4210  16.384   5.659   6.607  0.6477  0.2704  0.0431
 2011W        W 4211   3.572   3.331  29.997 -0.0873 -0.2440 -0.0080
 2012W        W 4212  12.573   2.768  27.695 -0.0923  0.1975  0.2253
 2013W        W 4213   6.445   4.140  12.199  0.0991 -0.0944  0.3917
 2014W        W 4214   9.598   1.263  36.015  0.1560  0.0161  0.1276
 2015W        W 4215  19.924   1.517   2.494 -0.4010  0.0047  0.1218
 2016W        W 4216  12.162   5.070   0.358 -0.1894 -0.1363  0.0472
 2017W        W 4217   4.565   4.010  33.572  0.0686  0.0904  0.0130
 2018W        W 4218  26.383   2.475  32.990 -0.0645 -0.1223 -0.2486
 2019W        W 4219  15.802   2.729   2.853  0.1070 -0.2186  0.0509
 2020W        W 4220  17.674   4.522  33.103 -0.1017  0.0272 -0.1806
 2021W        W 4221  21.908   0.136  27.517 -0.2810  0.1292  0.1608
 2022W        W 4222  12.319   5.937  33.823  0.0589 -0.0276  0.2262
 2023W        W 4223  16.994   4.237   5.032  0.2070 -0.0314  0.3440
 2024W        W 4224  16.652   4.179  35.131 -0.1242 -0.3150 -0.1558
 2025W        W 4225   5.430   0.197  31.724 -0.0295  0.1490 -0.2023
 2026W        W 4226  20.104   3.117  24.763  0.2436 -0.1842  0.0193
 2027W        W 4227   1.281   4.064  26.929 -0.0447 -0.3248  0.0005
 2028W        W 4228  14.776   5.482  33.533 -0.2568  0.3581 -0.2553
 2029W        W 4229  10.326   3.439  33.128  0.1885  0.2313  0.1074
 2030W        W 4230  12.372   4.787  21.697 -0.0731 -0.0089  0.1086
 2031W        W 4231  19.185   3.974   7.451  0.0248  0.0787 -0.3053
 2032W        W 4232   5.408   4.075  14.122 -0.0363 -0.0334 -0.0923
 2033W        W 4233  24.830   6.136   9.548  0.0350 -0.0985 -0.4806
 2034W        W 4234  25.661   6.584  22.832 -0.3617  0.0456 -0.0067
 2035W        W 4235  22.925   3.466  32.019 -0.2475  0.2888  0.2113
 2036W        W 4236  11.163   3.702  26.807  0.0522  0.1447  0.0860
 2037W        W 4237  23.718   2.209   6.133  0.0354 -0.1228 -0.0979
 2038W        W 4238  20.946   2.622  22.375 -0.2208 -0.3871  0.0963
 2039W        W 4239  15.667   0.264  26.895 -0.1503  0.1295  0.0549
 2040W        W 4240   5.496   5.551  14.707 -0.1755 -0.1645  0.1337
 2041W        W 4241  12.654   5.931  30.584 -0.1500 -0.3491 -0.2044
 2042W        W 4242   7.841   2.998   6.615 -0.2145  0.2104 -0.1263
 2043W        W 4243   8.699   0.055  33.637  0.1153  0.0622 -0.1087
 2044W        W 4244   1.745   2.460  32.758 -0.1570  0.0040 -0.0683
 2045W        W 4245   5.599   2.437  25.221 -0.1380 -0.0937  0.1716
 2046W        W 4246   6.538   0.810  14.673  0.0104 -0.4220 -0.0387
 2047W        W 4247  22.821   4.620  29.245 -0.2639  0.5069  0.1052
 2048W        W 4248  18.469   0.575  31.540  0.0618  0.1904 -0.0056
 2049W        W 4249   2.999   2.411  15.006  0.1580  0.4433 -0.0179
 2050W        W 4250  20.560   0.149  21.659  0.2106  0.3115  0.0549
 2051W        W 4251  13.380   5.763   4.316  0.2471 -0.5066 -0.0686
 2052W        W 4252  16.123   2.359   1.583 -0.1323 -0.2260 -0.2843
 2053W        W 4253  23.268   1.340  35.624  0.0973 -0.1576  0.0540
 2054W        W 4254  14.127   4.421  34.575 -0.3041 -0.4002 -0.0933
 2055W        W 4255   5.055   4.383  26.401  0.0092 -0.0135  0.0937
 2056W        W 4256   1.698   5.084  25.771  0.1112  0.0905  0.0433
 2057W        W 4257   5.979   4.898  11.508  0.0979 -0.1811 -0.2043
 2058W        W 4258  11.950   0.762  28.490 -0.1826 -0.0131  0.3115
 2059W        W 4259   1.988   4.024  36.186  0.0061  0.1229 -0.0709
 2060W        W 4260  17.014   3.459   9.907 -0.0072 -0.0686  0.1203
 2061W        W 4261   3.409   2.122  30.296 -0.0806 -0.1967 -0.5721
 2062W        W 4262  23.075   2.440  28.329 -0.2003  0.0410  0.0333
 2063W        W 4263   8.961   0.358  31.485  0.2084 -0.2249 -0.0702
 2064W        W 4264  15.177   6.318  33.542  0.0382  0.1890 -0.1854
 2065W        W 4265  20.335   4.080  27.780  0.2457  0.1386 -0.0392
 2066W        W 4266  25.833   5.755   6.604  0.4449  0.0253  0.1229
 2067W        W 4267  23.660   1.894  35.588 -0.1170 -0.2994 -0.1897
 2068W        W 4268   9.018   1.146  15.574 -0.2600 -0.1487  0.0204
 2069W        W 4269  12.333   0.922   9.878 -0.0233  0.2372 -0.1350
 2070W        W 4270  14.216   1.982  29.285 -0.1865  0.0985  0.2544
 2071W        W 4271  12.835   1.071  32.438 -0.0400  0.2316  0.0981
 2072W        W 4272  22.135   2.852  13.881  0.0010 -0.2287  0.2506
 2073W        W 4273  14.718   6.516  27.412  0.1187  0.1003 -0.0957
 2074W        W 4274  21.252   4.438  21.039  0.1391 -0.3118  0.3951
 2075W        W 4275  17.767   4.845   5.961 -0.0282 -0.2361 -0.3401
 2076W        W 4276   4.046   1.370  26.747 -0.0126  0.0426 -0.2278
 2077W        W 4277   8.051   1.786   1.666  0.4363  0.0547  0.1508
 2078W        W 4278  19.430   6.019  14.760 -0.5026 -0.1540  0.2508
 2079W        W 4279  19.209   2.561   3.409  0.1091 -0.0270  0.2384
 2080W        W 4280   6.550   3.178  10.582  0.0945  0.0393 -0.1180
 2081W        W 4281   3.553   5.208  30.050 -0.1891  0.0877 -0.1429
 2082W        W 4282  25.884   3.038   2.549  0.1175 -0.2504 -0.0056
 2083W        W 4283  19.174   4.125  29.790 -0.0056  0.0460 -0.1969
 2084W        W 4284  14.594   0.717  12.370 -0.1465  0.1884 -0.1632
 2085W        W 4285  10.854   0.238  29.575  0.1312 -0.1492 -0.0331
 2086W        W 4286  23.395   6.043  24.168  0.0450 -0.1913 -0.1246
 2087W        W 4287  16.338   3.988   9.129  0.0515 -0.1233  0.1493
 2088W        W 4288  14.447   2.958   7.243 -0.0903  0.1386  0.1510
 2089W        W 4289   5.036   0.619  27.307 -0.1205  0.1376 -0.1803
 2090W        W 4290   2.807   1.029  28.714  0.2324 -0.0285 -0.0176
 2091W        W 4291  18.100   0.268  12.957 -0.0263 -0.1099  0.1805
 2092W        W 4292  18.882   5.022  32.829 -0.1888  0.2671  0.0197
 2093W        W 4293   8.937   1.202  35.189 -0.3293 -0.0667 -0.2573
 2094W        W 4294  22.086   1.268   3.291  0.0373 -0.0035  0.1945
 2095W        W 4295   7.474   3.813  11.181  0.0852  0.0369 -0.0053
 2096W        W 4296   7.829   4.257  13.249  0.0271  0.0871 -0.0719
 2097W        W 4297  25.885   2.381  35.849 -0.0567 -0.3202 -0.1215
 2098W        W 4298   6.614   5.639  20.636 -0.0631 -0.2022 -0.0144
 2099W        W 4299  14.599   2.316  32.081  0.1773  0.3357  0.0409
 2100W        W 4300   5.413   4.774  28.843 -0.0504 -0.2083  0.2711
 2101W        W 4301   1.737   5.175  14.537  0.2574 -0.0990 -0.0976
 2102W        W 4302   4.294   4.807  14.300  0.0603 -0.1371  0.1665
 2103W        W 4303  10.455   0.515  30.184 -0.0305 -0.1610 -0.1421
 2104W        W 4304  11.490   0.009  11.458  0.2326 -0.2413  0.1355
 2105W        W 4305   5.450   4.726  21.953 -0.2218 -0.1037  0.0153
 2106W        W 4306  15.350   0.511  26.047  0.1220  0.0029  0.0204
 2107W        W 4307  25.357   3.182  32.273 -0.1959  0.1740 -0.0974
 2108W        W 4308  17.318   1.292  13.229 -0.0692  0.0847  0.0862
 2109W        W 4309  22.843   2.889  13.986  0.0824 -0.0997  0.3776
 2110W        W 4310   9.614   5.530  26.183  0.1420  0.0464  0.0745
 2111W        W 4311   7.209   1.185  20.645 -0.0889 -0.0334  0.1195
 2112W        W 4312   2.018   4.964   6.643  0.0077 -0.0614  0.0350
 2113W        W 4313   9.905   6.363  30.349  0.2326 -0.1584 -0.1592
 2114W        W 4314  11.073   6.109   5.051  0.0234  0.2620  0.0410
 2115W        W 4315  17.075   2.433  21.273 -0.1393 -0.0449 -0.1100
 2116W        W 4316   2.726   2.450  29.197  0.0961  0.0322  0.2100
 2117W        W 4317   4.249   6.176  27.384  0.0262 -0.4389  0.0761
 2118W        W 4318  17.921   0.336  31.478  0.0029  0.0175  0.2510
 2119W        W 4319  17.130   4.212  14.256  0.2030  0.0875 -0.1761
 2120W        W 4320  17.875   4.482   2.936 -0.0560 -0.5271  0.2218
 2121W        W 4321  17.075   5.811  31.435  0.2377  0.0561 -0.0430
 2122W        W 4322  24.545   6.313  22.463 -0.3667 -0.0212 -0.3258
 2123W        W 4323  16.737   4.196   6.617 -0.2537 -0.1360  0.2026
 2124W        W 4324  16.964   3.644  29.363  0.0068 -0.1545 -0.2396
 2125W        W 4325  15.774   0.336  32.716  0.0301 -0.2298  0.2441
 2126W        W 4326  13.255   2.814  24.226 -0.1501 -0.3321 -0.1290
 2127W        W 4327   2.678   6.160  33.646  0.1152 -0.2859 -0.3862
 2128W        W 4328   8.821   4.195  26.751  0.4506 -0.2397 -0.1268
 2129W        W 4329   9.530   0.817   7.322 -0.0705 -0.0309  0.1385
 2130W        W 4330  16.427   4.210   4.934 -0.1362 -0.1644 -0.3629
 2131W        W 4331   3.668   3.091  35.173  0.5412  0.0306  0.0924
 2132W        W 4332  26.402   5.244   0.633 -0.0764  0.3662  0.1665
 2133W        W 4333  19.445   4.290   1.674  0.0412  0.4754 -0.0093
 2134W        W 4334  22.426   4.534  34.955  0.2405  0.0148 -0.1039
 2135W        W 4335   5.315   5.996   0.684  0.0677  0.0391 -0.2808
 2136W        W 4336  23.042   4.797  34.358 -0.0413  0.0596  0.3663
 2137W        W 4337   2.843   6.217  26.821 -0.0087 -0.0531  0.2262
 2138W        W 4338  14.744   1.463  15.840  0.0113  0.0541  0.0477
 2139W        W 4339   6.850   6.177  22.955  0.4271  0.0320 -0.1933
 2140W        W 4340  11.725   5.912  27.949  0.2379 -0.1720  0.2042
 2141W        W 4341  18.534   4.665  25.159  0.1118  0.2856  0.1712
 2142W        W 4342  21.218   2.336  24.450 -0.2416  0.0618  0.1317
 2143W        W 4343  16.059   0.527  25.642 -0.1261 -0.0929 -0.1574
 2144W        W 4344   6.431   6.276   2.300 -0.0193  0.0451  0.0401
 2145W        W 4345  26.334   1.436  30.483 -0.1603 -0.2080  0.0651
 2146W        W 4346  18.441   3.343  28.428 -0.1627  0.0544 -0.0580
 2147W        W 4347   7.287   5.306  10.165  0.0597  0.3261 -0.1985
 2148W        W 4348  15.961   4.789  22.467 -0.1294  0.1043  0.0251
 2149W        W 4349   1.633   3.329  31.539 -0.2893  0.0301  0.1139
 2150W        W 4350  17.574   3.561  13.988  0.0363 -0.0997  0.4559
 2151W        W 4351   4.449   6.399   0.551  0.3845  0.1931 -0.2261
 2152W        W 4352  16.874   3.646  27.003  0.0995 -0.1873 -0.1201
 2153W        W 4353  19.563   3.295  13.107  0.0539 -0.2199  0.2879
 2154W        W 4354   8.785   4.817   2.293 -0.1480 -0.0292  0.1443
 2155W        W 4355   4.542   1.171  14.244  0.0868  0.0876  0.0361
 2156W        W 4356  13.399   3.235  21.134 -0.1037  0.1246  0.0884
 2157W        W 4357  15.119   2.435   5.053 -0.0578 -0.0309 -0.4883
 2158W        W 4358   9.275   3.021  27.975  0.2959 -0.0380 -0.0837
 2159W        W 4359  12.170   0.975  10.364  0.2610 -0.1710 -0.1455
 2160W        W 4360  10.794   2.435  29.035  0.3316  0.1008  0.2149
 2161W        W 4361  23.962   6.322  33.806 -0.3037  0.1421 -0.0217
 2162W        W 4362   7.487   5.562   8.585  0.1226 -0.1774 -0.2072
 2163W        W 4363  21.769   2.280  27.888  0.1767 -0.1078 -0.5184
 2164W        W 4364  26.122   6.567  25.533 -0.0754  0.0766 -0.4243
 2165W        W 4365  24.030   1.836  23.736 -0.0500  0.1916 -0.2110
 2166W        W 4366   7.132   4.204  22.152  0.1358  0.0205  0.2406
 2167W        W 4367   0.568   6.281  25.501  0.2382  0.0346  0.1588
 2168W        W 4368  23.201   4.748  22.867 -0.5304  0.0834  0.2418
 2169W        W 4369  18.052   1.504  31.364  0.2922  0.1493  0.1561
 2170W        W 4370  14.959   0.886  31.730  0.0196  0.2503 -0.0505
 2171W        W 4371   8.742   1.787  21.503 -0.2777  0.2012 -0.0214
 2172W        W 4372   8.293   3.964   7.849 -0.0478 -0.5209  0.1550
 2173W        W 4373   0.367   5.099   5.948 -0.0937  0.1405 -0.0647
 2174W        W 4374  22.022   2.145  12.843  0.1504  0.0515  0.2142
 2175W        W 4375   3.265   2.191   4.635  0.0787 -0.0081 -0.1553
 2176W        W 4376   6.912   3.201  28.566  0.0806  0.0795 -0.2153
 2177W        W 4377  12.383   3.076  35.784 -0.0677  0.1958 -0.0629
 2178W        W 4378   3.565   6.363  10.906  0.2702 -0.0840 -0.0653
 2179W        W 4379  22.389   1.633  33.622  0.2743 -0.1383 -0.0292
 2180W        W 4380  15.464   4.391  35.285  0.0229 -0.0739 -0.2535
 2181W        W 4381  17.487   3.430  29.343  0.1792 -0.0966  0.1613
 2182W        W 4382  13.479   6.065   9.584  0.0953  0.1796 -0.1995
 2183W        W 4383   1.828   2.881  26.877 -0.0279 -0.0801  0.0566
 2184W        W 4384  19.683   4.767   1.744  0.1037 -0.1909  0.0431
 2185W        W 4385  23.084   3.999   4.661 -0.1441  0.1182  0.0659
 2186W        W 4386  15.946   5.986  27.395 -0.0171  0.3633 -0.1612
 2187W        W 4387  13.736   4.343  36.057 -0.0221  0.1130 -0.0113
 2188W        W 4388   6.003   5.594   3.701  0.0375  0.0646 -0.0186
 2189W        W 4389   4.253   3.913   7.448 -0.1902 -0.1646  0.2174
 2190W        W 4390  18.932   0.153   0.705  0.1196 -0.0936 -0.2068
 2191W        W 4391   9.817   0.053  21.191  0.4434  0.0421 -0.1249
 2192W        W 4392   4.492   5.221  14.645  0.3527  0.2868 -0.0214
 2193W        W 4393   8.488   5.851   4.971 -0.0424  0.0877  0.0395
 2194W        W 4394  13.032   3.110  23.884  0.0157 -0.2358  0.2752
 2195W        W 4395  25.489   2.757  24.777  0.3066 -0.0861  0.2782
 2196W        W 4396  15.696   5.204  13.024  0.4777  0.1777  0.0350
 2197W        W 4397  15.737   1.631  24.321  0.1866  0.2163 -0.0013
 2198W        W 4398   3.560   3.023  23.611 -0.1147  0.0414  0.0563
 2199W        W 4399   5.585   1.726  13.410 -0.1378 -0.2434  0.2153
 2200W        W 4400   2.542   5.674  35.637 -0.1443  0.1913 -0.0890
 2201W        W 4401  20.132   5.736   1.971 -0.1316  0.0215  0.0166
 2202W        W 4402  10.759   0.748  10.034 -0.0209  0.0808 -0.1566
 2203W        W 4403   7.170   1.374  30.242 -0.2565  0.0147  0.0525
 2204W        W 4404  13.133   0.836   6.156 -0.3813  0.0319  0.2851
 2205W        W 4405   3.400   6.137   7.098 -0.0886  0.1264 -0.1873
 2206W        W 4406   2.603   4.054  26.904 -0.0232  0.2381  0.1143
 2207W        W 4407  14.939   6.518   1.126 -0.4194  0.0055  0.4149
 2208W        W 4408  15.281   5.390   1.787  0.0332  0.0692 -0.1253
 2209W        W 4409  17.322   3.198   6.998  0.2145  0.1365 -0.1601
 2210W        W 4410  23.387   4.322  28.568  0.0343  0.2903 -0.1279
 2211W        W 4411   9.922   1.884   3.370 -0.1590 -0.3340  0.3064
 2212W        W 4412  17.251   0.084  31.611 -0.1168  0.1386  0.1135
 2213W        W 4413   8.812   6.328   4.775  0.2485  0.0629 -0.2408
 2214W        W 4414  13.285   4.563   8.804  0.1237 -0.1476  0.2545
 2215W        W 4415   3.709   1.401   5.802  0.2080  0.2399  0.0888
 2216W        W 4416  13.284   3.130   3.849  0.2802  0.1522  0.1572
 2217W        W 4417   6.000   1.394   4.349  0.0040  0.1604 -0.0200
 2218W        W 4418  25.500   0.184  28.709 -0.2209 -0.1443  0.1728
 2219W        W 4419  11.086   6.369  25.100  0.1021  0.0277 -0.0757
 2220W        W 4420  12.553   4.816   0.085  0.0538  0.1800  0.1236
 2221W        W 4421  15.209   2.192  28.742 -0.2150  0.0175 -0.0577
 2222W        W 4422  17.413   4.048   0.706 -0.1221 -0.1059  0.1415
 2223W        W 4423  20.564   3.696  35.154 -0.2357 -0.0155 -0.3638
 2224W        W 4424   7.465   2.103  12.832  0.2873 -0.0318 -0.1315
 2225W        W 4425   4.169   0.664  28.764 -0.0745 -0.1218 -0.3449
 2226W        W 4426  18.752   6.203  26.467  0.1991 -0.2020 -0.0829
 2227W        W 4427  25.004   5.671  10.469  0.0002 -0.2370 -0.2580
 2228W        W 4428  15.610   3.067  21.910 -0.0332 -0.0955  0.2275
 2229W        W 4429  21.302   0.247  33.843  0.0821  0.2935  0.0291
 2230W        W 4430  21.706   0.572  27.696 -0.0585  0.2066  0.1022
 2231W        W 4431   5.969   1.106  33.282 -0.0469 -0.2094  0.0993
 2232W        W 4432  22.447   3.496  29.030  0.0126  0.0790 -0.0238
 2233W        W 4433  17.915   4.119  24.360  0.1957 -0.2642 -0.4068
 2234W        W 4434  20.989   3.343  21.280 -0.2840 -0.0749  0.1951
 2235W        W 4435   5.402   2.347   4.613 -0.1223 -0.0649 -0.0736
 2236W        W 4436  17.648   0.770  36.009  0.2819 -0.0145 -0.1049
 2237W        W 4437   0.000   2.474   6.100 -0.2232 -0.0876  0.0307
 2238W        W 4438   7.579   0.870  13.187  0.1370  0.0709  0.1315
 2239W        W 4439  11.098   3.152  15.891  0.1050  0.0251 -0.3953
 2240W        W 4440   2.468   2.591  30.521 -0.0509  0.1860  0.2803
 2241W        W 4441  19.269   1.086  25.147 -0.2478 -0.2667 -0.2343
 2242W        W 4442   9.530   5.734   8.802 -0.1285  0.4220 -0.2639
 2243W        W 4443  24.497   4.120  20.817  0.2271  0.4205 -0.0976
 2244W        W 4444  13.260   6.564  31.444 -0.1507  0.0410  0.1468
 2245W        W 4445  10.778   1.815  32.023 -0.0602  0.0851 -0.1900
 2246W        W 4446  20.401   4.061  12.092  0.0276  0.2236  0.0758
 2247W        W 4447  15.071   4.369  12.949 -0.0628  0.3157 -0.0413
 2248W        W 4448  22.763   3.425  20.715 -0.0212 -0.2487  0.2663
 2249W        W 4449  20.579   2.074   6.412 -0.3811  0.0465  0.0730
 2250W        W 4450  21.960   1.373  22.527 -0.0038 -0.1948  0.0328
 2251W        W 4451   5.965   4.910   1.050 -0.0291  0.2076  0.0456
 2252W        W 4452  18.942   4.191   1.911 -0.2178  0.1838  0.2398
 2253W        W 4453  12.887   3.326  14.825  0.1802  0.0540  0.1563
 2254W        W 4454  24.341   2.327  11.081 -0.1822  0.0064  0.0165
 2255W        W 4455   3.216   2.311  31.887 -0.3378  0.0372 -0.0831
 2256W        W 4456   3.948   4.338  23.639  0.1425 -0.0006  0.1663
 2257W        W 4457  24.583   3.490   9.785  0.0236  0.0889  0.0962
 2258W        W 4458   3.464   4.610  27.034 -0.0794 -0.3512  0.3869
 2259W        W 4459  11.233   4.701   0.016 -0.1535 -0.2892 -0.1827
 2260W        W 4460   5.865   5.953  10.206 -0.0560  0.2823 -0.2841
 2261W        W 4461  23.400   0.786  12.786 -0.1047 -0.1649 -0.0792
 2262W        W 4462   3.642   0.969  31.964 -0.0362 -0.0903 -0.2897
 2263W        W 4463  13.404   1.857   1.032  0.1523 -0.2104  0.2837
 2264W        W 4464   9.806   0.916  23.502  0.2945  0.1320  0.0818
 2265W        W 4465  15.089   0.515  11.015 -0.1537 -0.2026  0.1397
 2266W        W 4466   3.118   4.296  24.715  0.0470 -0.0475  0.0515
 2267W        W 4467  14.386   1.640   9.368 -0.1034 -0.0583 -0.0098
 2268W        W 4468   1.701   2.930  34.740  0.0383  0.0263  0.3120
 2269W        W 4469  16.916   6.412   1.598  0.0397 -0.1480  0.0499
 2270W        W 4470   3.680   1.187   4.917 -0.3064  0.0921 -0.2732
 2271W        W 4471  12.607   1.367  22.041  0.0150  0.0900 -0.1459
 2272W        W 4472   8.568   3.023  34.779  0.0443 -0.1076 -0.1396
 2273W        W 4473  13.095   5.378  32.016 -0.0672 -0.0653  0.0228
 2274W        W 4474  17.586   1.058   0.833  0.0371 -0.0036  0.1514
 2275W        W 4475  14.940   3.093  13.154  0.0696 -0.2716  0.4218
 2276W        W 4476  14.868   2.888  21.936 -0.0040 -0.1955 -0.1870
 2277W        W 4477  22.444   2.250  14.479  0.0168 -0.2124 -0.1968
 2278W        W 4478  17.198   1.354  14.268  0.0210  0.1679  0.2655
 2279W        W 4479  14.838   3.304  15.201  0.1624 -0.1128  0.1141
 2280W        W 4480  20.921   5.148   8.358  0.0386  0.1606  0.0853
 2281W        W 4481  26.211   2.697  22.559 -0.0910  0.2599  0.1885
 2282W        W 4482   4.683   5.149   3.205  0.2472  0.0546 -0.2509
 2283W        W 4483   3.017   4.436  11.727  0.1295  0.0436 -0.2296
 2284W        W 4484   6.048   3.268  25.741 -0.0006 -0.0149  0.0585
 2285W        W 4485  18.138   2.747   8.576  0.0859 -0.0836  0.2535
 2286W        W 4486   4.671   0.435  21.422  0.1898  0.2041  0.0518
 2287W        W 4487  16.461   4.284   8.710  0.3235 -0.1259 -0.1012
 2288W        W 4488   0.127   3.836  20.558  0.0182 -0.0602  0.1107
 2289W        W 4489   9.505   2.253  30.545  0.1497 -0.0855 -0.2574
 2290W        W 4490   9.666   4.709   6.530 -0.1633  0.0761  0.0660
 2291W        W 4491  20.564   6.243   5.887 -0.4446 -0.1180  0.0632
 2292W        W 4492  19.959   0.345  32.566 -0.1267  0.0577  0.0053
 2293W        W 4493  21.581   2.041   5.354  0.0607 -0.0260  0.1105
 2294W        W 4494   9.143   2.594   5.305 -0.1246  0.0050  0.3081
 2295W        W 4495  14.986   1.576  29.313 -0.0633  0.0093  0.4269
 2296W        W 4496  21.112   5.046  22.844 -0.4178  0.0134 -0.0892
 2297W        W 4497   3.080   4.806  30.299 -0.0365  0.1510  0.2576
 2298W        W 4498  23.206   1.709  34.226 -0.2461  0.0433  0.2951
 2299W        W 4499  24.603   5.001  27.684 -0.2393 -0.4548  0.0478
 2300W        W 4500   6.694   6.354  30.060 -0.0025 -0.4628 -0.4026
 2301W        W 4501  25.340   2.675  12.423 -0.2446  0.1334 -0.1672
 2302W        W 4502   7.667   5.605   6.616  0.0870  0.0931 -0.0556
 2303W        W 4503  19.476   0.304  24.692 -0.3439 -0.1749  0.0289
 2304W        W 4504   8.990   5.150  31.385 -0.2296 -0.1350 -0.0626
 2305W        W 4505   5.435   5.832  29.751 -0.1279  0.3139 -0.1842
 2306W        W 4506   5.292   5.550  26.989 -0.0562  0.1538  0.0170
 2307W        W 4507  11.339   3.956   9.916 -0.2952  0.3419  0.0317
 2308W        W 4508  22.893   1.958  20.306  0.2428  0.1083 -0.1252
 2309W        W 4509   2.589   4.665   5.237  0.1850 -0.0520  0.0277
 2310W        W 4510   9.539   6.463  29.371 -0.0406  0.1531  0.0076
 2311W        W 4511  25.042   0.629   6.395  0.3701  0.0405 -0.0737
 2312W        W 4512   0.807   1.350  30.038 -0.2590  0.0094  0.0316
 2313W        W 4513  15.214   1.348  11.044  0.1762 -0.0268  0.2074
 2314W        W 4514   7.483   4.585  27.113  0.0115 -0.0811  0.1148
 2315W        W 4515   3.771   1.175  31.469 -0.0838 -0.3489  0.3245
 2316W        W 4516  20.949   3.545  20.794 -0.1438 -0.2508  0.1179
 2317W        W 4517  11.190   0.173  35.477 -0.0412  0.2627 -0.2062
 2318W        W 4518   8.208   6.007  14.641  0.0059 -0.3009  0.0105
 2319W        W 4519  24.419   4.240   4.517 -0.1715 -0.0462 -0.1286
 2320W        W 4520  15.739   2.426  25.654 -0.0501 -0.0613 -0.0236
 2321W        W 4521  12.637   0.807  14.082  0.2667 -0.1474 -0.1717
 2322W        W 4522  12.496   0.994  29.114 -0.1916  0.2093 -0.1645
 2323W        W 4523  14.447   2.993  25.194  0.2034 -0.2563  0.0038
 2324W        W 4524   4.504   1.494  30.394  0.0881  0.2876 -0.0827
 2325W        W 4525   9.185   2.656  26.271 -0.1388 -0.2004 -0.2369
 2326W        W 4526   4.191   4.826  23.661  0.1901  0.1267 -0.0911
 2327W        W 4527   3.983   5.863  14.408  0.2718 -0.1241  0.0464
 2328W        W 4528  16.885   4.597  31.069 -0.0284  0.2955  0.3581
 2329W        W 4529  19.856   2.792  33.118  0.3269  0.0699  0.1049
 2330W        W 4530   2.135   6.306  22.884 -0.1088  0.1730 -0.0502
 2331W        W 4531   9.606   0.553   8.451 -0.1143  0.5376  0.2271
 2332W        W 4532   4.007   5.508  11.542 -0.3770 -0.2231  0.1098
 2333W        W 4533  14.172   2.456  31.596  0.3468  0.1669 -0.6338
 2334W        W 4534   3.435   5.687  27.748 -0.1925  0.1224  0.0098
 2335W        W 4535  23.202   4.319  34.507  0.2200 -0.1239 -0.2268
 2336W        W 4536  18.522   1.781  25.546 -0.1498  0.0301 -0.3024
 2337W        W 4537   8.707   2.696  26.327 -0.1492  0.0983  0.1536
 2338W        W 4538  15.909   5.198  20.441  0.0318 -0.2692  0.1969
 2339W        W 4539   0.861   5.090  24.396  0.0444  0.0898  0.0132
 2340W        W 4540   1.484   6.519   1.390  0.4086  0.0056  0.0458
 2341W        W 4541  10.125   1.187  23.141 -0.1298 -0.0183 -0.1774
 2342W        W 4542  23.423   0.862  35.822 -0.1499 -0.2106 -0.0242
 2343W        W 4543  21.532   5.830   5.355 -0.0720  0.1616 -0.0193
 2344W        W 4544  10.979   0.853  25.202 -0.1127  0.0305 -0.0689
 2345W        W 4545   0.548   3.877   5.834 -0.1991  0.0445 -0.1499
 2346W        W 4546  22.839   1.834  35.020  0.0128 -0.1962  0.0373
 2347W        W 4547   6.258   0.407   4.311 -0.0853 -0.2114  0.2418
 2348W        W 4548   8.815   3.777  23.200 -0.0681 -0.1320 -0.1668
 2349W        W 4549  21.127   0.112  24.365  0.0818  0.0169 -0.0857
 2350W        W 4550  22.816   4.761  25.149 -0.1872  0.2769 -0.1281
 2351W        W 4551  25.858   1.582  10.685 -0.2442  0.1633  0.2578
 2352W        W 4552   0.232   3.315   3.038 -0.0813 -0.2880  0.1722
 2353W        W 4553  19.958   0.633  10.720 -0.2021  0.0296  0.0276
 2354W        W 4554  18.928   3.332   9.159  0.0360 -0.2023  0.1671
 2355W        W 4555   2.204   3.623  20.716  0.0739  0.1380  0.0890
 2356W        W 4556  13.857   1.373  26.993  0.2064  0.1008 -0.0133
 2357W        W 4557   2.797   0.475  24.541  0.0739 -0.2660  0.0858
 2358W        W 4558  19.351   2.103  13.328 -0.0355  0.1409 -0.1055
 2359W        W 4559  24.833   3.126   4.546  0.0485  0.0024 -0.2791
 2360W        W 4560   2.328   4.885  23.760  0.1059 -0.0618  0.0513
 2361W        W 4561  15.262   4.360  28.416  0.1669 -0.0533 -0.1210
 2362W        W 4562   3.778   3.240  31.791 -0.1017 -0.2473  0.0446
 2363W        W 4563  26.145   3.403  34.902 -0.1528 -0.0978 -0.0789
 2364W        W 4564   4.171   1.052  28.430 -0.2002 -0.0363 -0.0306
 2365W        W 4565   9.629   6.390  22.134  0.2196 -0.2988 -0.0901
 2366W        W 4566  21.691   2.075  32.930 -0.0144 -0.0475  0.2645
 2367W        W 4567  11.102   5.415  26.642  0.2177 -0.0249 -0.1479
 2368W        W 4568  20.753   6.570  22.868  0.1480  0.1343 -0.0680
 2369W        W 4569   4.961   3.276   2.533  0.0024  0.5298  0.2858
 2370W        W 4570  19.475   6.455   3.357 -0.0898  0.0063  0.1568
 2371W        W 4571   3.002   4.474  29.976 -0.0419 -0.1249 -0.1408
 2372W        W 4572  22.280   1.639  34.122 -0.2502  0.1512 -0.1873
 2373W        W 4573   7.807   5.193  10.881 -0.0082  0.1219  0.3432
 2374W        W 4574  11.283   4.938  33.629  0.1794 -0.1206 -0.1595
 2375W        W 4575  10.703   0.396  22.882  0.1171 -0.0186 -0.1245
 2376W        W 4576   2.615   2.884   0.678  0.1259 -0.0135 -0.0033
 2377W        W 4577  23.394   0.199  29.089  0.1910 -0.0654  0.1891
 2378W        W 4578  18.153   0.342  20.263 -0.1151  0.0134 -0.0139
 2379W        W 4579   0.350   5.881  22.124  0.0005 -0.0350 -0.0528
 2380W        W 4580   7.971   0.240  23.228  0.0641  0.1749  0.5607
 2381W        W 4581   6.506   3.873   2.876 -0.0189  0.3042  0.1124
 2382W        W 4582   8.530   0.131   1.777  0.2116  0.2270 -0.1830
 2383W        W 4583   1.234   0.235  11.626 -0.0370  0.0316  0.1079
 2384W        W 4584  21.752   4.100  23.915 -0.0767 -0.0196  0.1905
 2385W        W 4585  18.844   0.118  34.328  0.0999  0.2131  0.0848
 2386W        W 4586   6.620   0.135  26.982  0.0134 -0.2009 -0.1108
 2387W        W 4587  10.941   2.416  15.227 -0.0918 -0.1881  0.0692
 2388W        W 4588  10.066   6.427  24.358 -0.0140 -0.1255  0.2453
 2389W        W 4589  23.291   4.555  25.106 -0.0465 -0.2590 -0.2345
 2390W        W 4590   9.288   0.721  32.603 -0.0498 -0.0185 -0.1977
 2391W        W 4591  20.513   0.605  27.904 -0.0182 -0.0550  0.1727
 2392W        W 4592   3.504   2.377  13.688 -0.1790  0.3673 -0.0553
 2393W        W 4593  10.187   4.378  26.882 -0.2039 -0.0476 -0.1321
 2394W        W 4594  15.397   4.440  24.342 -0.1611  0.1165  0.2217
 2395W        W 4595  22.062   0.082  26.365  0.1860 -0.1925  0.1502
 2396W        W 4596  24.040   4.547  10.889 -0.3242  0.0907  0.0715
 2397W        W 4597   3.599   0.395   5.052  0.2894  0.1096 -0.0840
 2398W        W 4598  17.580   1.513  13.583 -0.0217  0.1982 -0.1421
 2399W        W 4599  26.379   2.265  26.587 -0.0022  0.1120  0.2581
 2400W        W 4600  13.690   5.812  35.323 -0.1642 -0.0949  0.3348
 2401W        W 4601  18.036   1.532   6.422 -0.0392 -0.0261  0.1759
 2402W        W 4602  16.325   4.843  11.624 -0.1082 -0.1932  0.0288
 2403W        W 4603  23.802   2.424   2.575  0.0370  0.1786 -0.0962
 2404W        W 4604  18.577   2.318  27.758  0.0594 -0.2428  0.1403
 2405W        W 4605   1.034   5.025  35.645  0.1649 -0.0683  0.1149
 2406W        W 4606  23.603   3.534  33.151 -0.1503  0.0586 -0.0952
 2407W        W 4607  23.549   5.741  26.610 -0.0639 -0.5847  0.0140
 2408W        W 4608   7.437   0.292   5.479 -0.0004 -0.2415 -0.0219
 2409W        W 4609  15.489   3.943  30.228  0.0048 -0.0280  0.4323
 2410W        W 4610   2.685   3.165   5.975  0.2940 -0.0739  0.1426
 2411W        W 4611   3.287   0.592  13.345 -0.3757 -0.1909  0.1851
 2412W        W 4612  22.859   2.368  14.159 -0.0194  0.2303  0.2707
 2413W        W 4613   9.030   4.431   2.707 -0.0338 -0.0868 -0.2822
 2414W        W 4614  23.058   3.016  32.642  0.4371  0.0435  0.0926
 2415W        W 4615   2.409   0.754   1.724 -0.1041 -0.0842  0.2494
 2416W        W 4616   5.177   1.661   9.021  0.2367 -0.0146 -0.1240
 2417W        W 4617  13.069   4.376  27.016  0.1742  0.1331  0.4064
 2418W        W 4618  10.165   4.946  24.928  0.0113 -0.2838  0.1629
 2419W        W 4619  20.141   1.158  32.397 -0.1967  0.1362  0.2378
 2420W        W 4620   7.955   2.796  29.267 -0.0887 -0.1347  0.0304
 2421W        W 4621   4.272   2.857  12.419  0.1183  0.4146 -0.0612
 2422W        W 4622  21.409   2.526   0.666  0.1427  0.1787 -0.1223
 2423W        W 4623  15.393   1.032  27.772  0.1935 -0.0375 -0.0481
 2424W        W 4624  23.252   0.416  25.202  0.0744  0.0033 -0.0496
 2425W        W 4625   6.120   3.286  35.651  0.4183  0.2498  0.1077
 2426W        W 4626  17.027   0.024  27.082  0.0149  0.0016  0.3778
 2427W        W 4627  21.109   2.362  15.177  0.1923 -0.1315  0.0206
 2428W        W 4628   5.786   1.200  35.936 -0.0066 -0.0367 -0.2386
 2429W        W 4629  23.982   0.749  32.832  0.2628  0.1245  0.1829
 2430W        W 4630  18.255   1.246   0.843 -0.1151 -0.2261  0.0366
 2431W        W 4631  19.352   1.878  10.914  0.2030 -0.0927  0.2785
 2432W        W 4632   0.833   5.086  13.788  0.1820 -0.0392 -0.4092
 2433W        W 4633   1.909   4.573   4.864 -0.0487 -0.0906 -0.0214
 2434W        W 4634  21.084   3.072   7.449 -0.0918 -0.1813  0.1603
 2435W        W 4635  19.634   6.503   8.182  0.5243  0.0693  0.4576
 2436W        W 4636   2.227   1.421   4.992 -0.0496 -0.0075 -0.3290
 2437W        W 4637  24.637   5.022  23.599 -0.1805  0.1048 -0.0381
 2438W        W 4638  15.906   1.140  35.489  0.0157 -0.2905 -0.2090
 2439W        W 4639   6.283   3.271  29.334 -0.1561 -0.1306 -0.2007
 2440W        W 4640  19.492   2.782  27.589  0.1599  0.2598 -0.1208
 2441W        W 4641  21.271   0.294  23.173 -0.2221 -0.0965  0.0367
 2442W        W 4642  11.548   2.741   9.588  0.1709 -0.2874  0.2276
 2443W        W 4643  21.504   5.029  12.614 -0.0197  0.0369 -0.0427
 2444W        W 4644   8.313   0.005  12.194  0.0630 -0.1581 -0.1131
 2445W        W 4645  10.274   4.621  13.840  0.0196 -0.3998  0.1222
 2446W        W 4646  11.512   5.045   1.585 -0.2214 -0.0359 -0.0801
 2447W        W 4647  12.032   2.277  20.786 -0.1429  0.1581  0.0196
 2448W        W 4648  12.816   5.328   5.683 -0.2407  0.2356  0.2723
 2449W        W 4649  17.879   5.665   8.904 -0.0908 -0.1534  0.1447
 2450W        W 4650  15.937   3.239   4.878  0.0442 -0.0870  0.1517
 2451W        W 4651  10.096   1.418  13.361 -0.0490 -0.3002 -0.3963
 2452W        W 4652  22.179   0.162  13.047 -0.0243 -0.2968 -0.1431
 2453W        W 4653  10.886   4.358  35.384 -0.3075 -0.0485  0.2134
 2454W        W 4654  14.360   4.853  26.810  0.0285 -0.1243  0.3044
 2455W        W 4655   6.035   4.958  23.720  0.1084  0.0052  0.0160
 2456W        W 4656  14.267   2.711   4.475  0.4354  0.0277  0.0382
 2457W        W 4657  20.526   3.794  10.195  0.0525  0.1460 -0.1572
 2458W        W 4658  21.180   1.667   7.416 -0.2514 -0.0578  0.0683
 2459W        W 4659  22.789   2.097  22.184 -0.0156 -0.0453 -0.0462
 2460W        W 4660  16.972   2.144  29.879  0.1801  0.3580  0.0639
 2461W        W 4661  14.121   5.827  25.557 -0.3153 -0.4335 -0.3312
 2462W        W 4662  24.454   6.406  26.479  0.0430  0.2830  0.2964
 2463W        W 4663  11.753   1.275   3.193  0.1093 -0.1098  0.0981
 2464W        W 4664  14.839   1.407  26.247  0.2546  0.3767  0.0468
 2465W        W 4665   1.205   4.330   0.451  0.1309 -0.1689  0.2296
 2466W        W 4666  20.449   2.583  29.527  0.0589 -0.1250  0.4559
 2467W        W 4667  20.505   1.434  14.478  0.2842 -0.2352  0.1149
 2468W        W 4668   2.812   5.047   8.883 -0.2514 -0.1410 -0.0141
 2469W        W 4669  21.183   3.030   6.962  0.0459  0.1031  0.0460
 2470W        W 4670  10.072   2.801  26.512 -0.1621 -0.0598  0.1294
 2471W        W 4671   6.893   6.497  32.116 -0.1917  0.0892  0.1377
 2472W        W 4672   2.777   1.232   5.673 -0.1434  0.1082 -0.2463
 2473W        W 4673  17.732   6.150  29.366  0.3771 -0.1151  0.1143
 2474W        W 4674   3.309   6.000  23.098  0.0229  0.2022  0.2203
 2475W        W 4675   1.940   3.834   9.605  0.0620  0.1741 -0.1641
 2476W        W 4676  24.140   0.334   7.502 -0.2340  0.1309 -0.0978
 2477W        W 4677   9.525   2.457  35.879 -0.0461  0.1351  0.0267
 2478W        W 4678  14.217   5.742  14.491 -0.0084 -0.1163 -0.1609
 2479W        W 4679  15.554   0.125  28.258 -0.0398 -0.0225  0.0343
 2480W        W 4680   0.032   5.966  14.163 -0.0920  0.0287  0.0516
 2481W        W 4681  10.618   3.806   1.219  0.2083  0.0351 -0.0499
 2482W        W 4682   1.917   2.806   6.812  0.0936 -0.1260 -0.1023
 2483W        W 4683  12.435   4.054   1.131 -0.0772 -0.0224 -0.2816
 2484W        W 4684  22.619   5.472   5.766 -0.2996  0.0981 -0.0644
 2485W        W 4685  12.730   2.874  34.347  0.0958  0.2282 -0.1664
 2486W        W 4686  15.856   2.712  33.276  0.2168  0.0972 -0.1092
 2487W        W 4687  23.916   1.307   0.914  0.1607  0.1282 -0.1868
 2488W        W 4688  25.483   1.469  13.189 -0.0844  0.2936 -0.0759
 2489W        W 4689   4.987   4.962  27.600  0.0975  0.0289 -0.2907
 2490W        W 4690   3.693   3.442   5.549 -0.2464  0.3047  0.0215
 2491W        W 4691  15.316   2.219   0.686 -0.1673  0.2869  0.2446
 2492W        W 4692   9.714   0.950  33.532  0.0960 -0.0284 -0.0414
 2493W        W 4693  11.975   5.313  28.675  0.1567 -0.1042 -0.1223
 2494W        W 4694  13.393   5.626  14.164  0.1680  0.0827  0.3801
 2495W        W 4695  18.989   0.843  27.764 -0.1403 -0.2182 -0.0649
 2496W        W 4696   9.066   0.520  10.144 -0.4517 -0.0701  0.2506
 2497W        W 4697   9.464   3.674   4.302 -0.0132 -0.1378 -0.0831
 2498W        W 4698   4.857   1.080  10.019 -0.0208  0.1343  0.1531
 2499W        W 4699  23.370   6.112  15.060  0.2894  0.2633  0.1653
 2500W        W 4700   1.058   0.478   5.681 -0.0752  0.0619  0.2359
 2501W        W 4701   2.951   0.989  21.275  0.0354  0.0163  0.0789
 2502W        W 4702  19.536   5.485   0.886 -0.3055 -0.0018  0.2771
 2503W        W 4703   8.805   6.488  22.313 -0.1647 -0.0185 -0.1609
 2504W        W 4704   4.509   6.284  10.520 -0.2059  0.1205 -0.1802
 2505W        W 4705   5.785   2.070  22.710  0.0142 -0.2243 -0.0915
 2506W        W 4706  21.765   0.820   5.901 -0.0063  0.0483 -0.0931
 2507W        W 4707  20.560   2.289   8.591 -0.1096  0.2916 -0.0251
 2508W        W 4708  17.361   6.321   6.882 -0.2341 -0.2156 -0.0239
 2509W        W 4709   3.362   2.440  22.366  0.1054  0.4826  0.3448
 2510W        W 4710  21.069   1.482  26.311  0.1135 -0.1835  0.0699
 2511W        W 4711  23.425   1.097  15.553  0.1594 -0.0914  0.0145
 2512W        W 4712  18.041   5.408  24.476  0.2617 -0.1654  0.2692
 2513W        W 4713  18.474   0.720   1.819 -0.1232 -0.2422 -0.1541
 2514W        W 4714   5.260   2.732  10.761 -0.2249  0.1373 -0.4125
 2515W        W 4715  13.569   4.366   5.965  0.0648 -0.1639 -0.2294
 2516W        W 4716  18.498   3.226  29.053  0.1645 -0.2385  0.3096
 2517W        W 4717   5.907   2.217   0.225  0.4026 -0.0301  0.2053
 2518W        W 4718   8.880   6.014  12.689  0.2114  0.0572 -0.1376
 2519W        W 4719  23.472   6.019   4.552  0.0158 -0.1062  0.0707
 2520W        W 4720  24.361   4.142  24.457  0.0006  0.2167  0.0578
 2521W        W 4721   2.681   2.234   7.948 -0.2515 -0.2231  0.0174
 2522W        W 4722  12.432   5.588   3.321 -0.1236 -0.0871 -0.0235
 2523W        W 4723  21.884   0.376   2.657  0.0675  0.0087 -0.0771
 2524W        W 4724  25.416   0.959   0.964 -0.2338 -0.2268 -0.2400
 2525W        W 4725   2.051   6.468   6.816 -0.2858  0.3925  0.0683
 2526W        W 4726   2.465   0.961  30.676  0.0659 -0.4144  0.1019
 2527W        W 4727   7.502   3.150   4.608 -0.2406  0.1095  0.1822
 2528W        W 4728  22.732   5.362   4.547  0.1424  0.1454  0.2484
 2529W        W 4729   8.106   0.629  25.995  0.1100 -0.2524 -0.2401
 2530W        W 4730  10.334   2.119   6.069 -0.1837  0.0742 -0.0903
 2531W        W 4731  12.174   2.798   0.461 -0.0008  0.1410 -0.1219
 2532W        W 4732  24.644   2.492  29.067 -0.3432  0.1222 -0.2051
 2533W        W 4733  13.755   6.448  24.503  0.1906  0.2619  0.1523
 2534W        W 4734   4.381   4.611  27.563  0.1125  0.0709 -0.1514
 2535W        W 4735  16.724   0.823  22.094  0.0846 -0.1801  0.0828
 2536W        W 4736  21.041   4.845   9.209 -0.4526 -0.0969 -0.0047
 2537W        W 4737   2.048   3.909  11.639 -0.1211 -0.3355 -0.0330
 2538W        W 4738   8.231   1.413   4.344  0.1161  0.2866 -0.3259
 2539W        W 4739  13.940   5.928  34.910 -0.3823  0.2473  0.1332
 2540W        W 4740   6.145   5.524  27.578  0.2857 -0.2674  0.0834
 2541W        W 4741  16.473   5.269   5.789 -0.1992 -0.1089  0.2847
 2542W        W 4742  21.912   3.705  35.757  0.0369 -0.3080  0.0791
 2543W        W 4743  22.575   0.582  30.725  0.3956 -0.5741 -0.3691
 2544W        W 4744  14.750   4.520  25.437  0.1695  0.0838  0.0238
 2545W        W 4745  16.882   1.702   9.438  0.1670  0.3415  0.1518
 2546W        W 4746   9.454   5.859  27.225 -0.1913  0.1106  0.0531
 2547W        W 4747  15.738   5.552  27.261  0.1324 -0.1570  0.0653
 2548W        W 4748   2.174   5.308  34.291  0.2583 -0.3461 -0.1102
 2549W        W 4749   1.489   3.551  12.592 -0.1962  0.0322 -0.4079
 2550W        W 4750  13.626   5.372  21.173  0.0347  0.0519  0.0015
 2551W        W 4751  24.779   4.521  31.949 -0.1414 -0.0120  0.1950
 2552W        W 4752  22.412   1.657   6.804 -0.0933  0.2301  0.0834
 2553W        W 4753  18.759   2.148  14.294 -0.1517 -0.0473  0.2624
 2554W        W 4754  19.396   1.330  28.684  0.0449  0.0877 -0.0567
 2555W        W 4755  18.220   1.929  32.790  0.1442  0.0572  0.1041
 2556W        W 4756  19.166   2.302  22.275  0.1104 -0.2347  0.0398
 2557W        W 4757  19.797   4.015   8.528 -0.1106 -0.0376  0.0094
 2558W        W 4758  22.511   0.629  34.518  0.1490 -0.1984 -0.1736
 2559W        W 4759  10.326   4.282  31.124  0.0358  0.0828  0.1948
 2560W        W 4760   9.491   5.872  25.700  0.0204  0.2372  0.0678
 2561W        W 4761   3.699   0.430   7.591 -0.0400  0.3117 -0.0493
 2562W        W 4762   8.265   6.228  21.174 -0.0146 -0.0461 -0.0071
 2563W        W 4763  25.056   0.218  28.913 -0.1168  0.0147 -0.0334
 2564W        W 4764  25.392   6.212  33.102  0.0763 -0.1344 -0.0157
 2565W        W 4765  13.012   0.358  24.143  0.0607  0.1115 -0.0668
 2566W        W 4766  18.255   6.451  10.796 -0.0967 -0.1591 -0.0574
 2567W        W 4767   9.681   3.358  22.954  0.1696 -0.1352 -0.0235
 2568W        W 4768  23.843   0.161  27.633 -0.1353  0.0417 -0.1494
 2569W        W 4769  22.738   0.575  12.491 -0.0047 -0.4221 -0.0652
 2570W        W 4770  25.902   1.696   3.072  0.1039 -0.0700  0.0640
 2571W        W 4771  14.327   1.409  12.366 -0.0529 -0.0997 -0.2816
 2572W        W 4772  15.699   5.663  11.679 -0.1670 -0.0993  0.0144
 2573W        W 4773   0.838   2.026  24.866 -0.0973 -0.1432 -0.0408
 2574W        W 4774   7.270   2.074  21.207  0.0400 -0.1878  0.0417
 2575W        W 4775  26.273   1.849   0.267  0.4162  0.0430 -0.2873
 2576W        W 4776  24.462   5.933  22.049 -0.1048 -0.1291 -0.0450
 2577W        W 4777   9.194   5.343  34.930  0.1223 -0.0446  0.0393
 2578W        W 4778  10.505   0.959  28.358 -0.4675 -0.0051  0.1232
 2579W        W 4779  20.963   3.320  27.441 -0.2587  0.2228 -0.0362
 2580W        W 4780  23.972   5.361   9.272  0.1552 -0.0743 -0.1509
 2581W        W 4781   1.154   2.146   8.525  0.0966 -0.0692  0.0835
 2582W        W 4782   2.436   4.594  15.020  0.0753 -0.2818  0.0430
 2583W        W 4783   3.885   3.413  21.646 -0.2106  0.0807 -0.0403
 2584W        W 4784  13.268   5.149   9.859 -0.1648 -0.1978  0.0979
 2585W        W 4785  14.007   6.224  24.846  0.0556  0.1820 -0.3023
 2586W        W 4786   8.281   6.585   0.321 -0.1713 -0.2706 -0.1733
 2587W        W 4787  20.098   2.565   6.816 -0.0204 -0.2098 -0.1611
 2588W        W 4788  24.611   5.233  34.177 -0.1124  0.4285  0.0243
 2589W        W 4789   6.521   3.346  21.642 -0.0883  0.3264  0.1817
 2590W        W 4790   5.082   2.609   3.226  0.0738  0.2072  0.3579
 2591W        W 4791  11.967   3.321  35.654  0.0914 -0.3340 -0.1015
 2592W        W 4792  19.983   1.140  36.108  0.1756  0.1878 -0.0246
 2593W        W 4793  10.782   0.315  10.311  0.1388  0.0292 -0.1463
 2594W        W 4794   7.036   1.723  31.677 -0.1895 -0.0900 -0.0403
 2595W        W 4795  24.566   0.647  14.922 -0.2142  0.0658  0.3854
 2596W        W 4796  26.267   0.064   0.307  0.0165  0.0741  0.1227
 2597W        W 4797  11.383   2.145   3.645 -0.1144  0.1393  0.0090
 2598W        W 4798  10.689   2.253  12.336  0.1908  0.0550  0.1396
 2599W        W 4799  22.612   6.252   3.951 -0.1604 -0.3694  0.1972
 2600W        W 4800   4.592   3.572  35.161 -0.2328 -0.2633 -0.1727
 2601W        W 4801   8.844   6.514  15.214  0.1960  0.2659 -0.0683
 2602W        W 4802   9.211   2.886  32.289  0.0429 -0.0813  0.2858
 2603W        W 4803   4.485   3.088  22.126 -0.1082  0.0810 -0.1316
 2604W        W 4804   5.014   0.928   2.341 -0.0962  0.2837  0.0724
 2605W        W 4805  24.509   3.127   0.814 -0.0414  0.0110 -0.0300
 2606W        W 4806  13.120   0.656   0.936 -0.0148  0.0111 -0.1361
 2607W        W 4807   2.415   0.052  31.885 -0.5469 -0.0225 -0.1345
 2608W        W 4808  12.993   0.559  29.903  0.0154 -0.0949 -0.2373
 2609W        W 4809   4.234   1.585  29.583 -0.0518 -0.5386  0.1852
 2610W        W 4810   5.738   3.905  29.118  0.0383  0.1782  0.0799
 2611W        W 4811  24.279   1.984  26.132 -0.3985  0.0892 -0.1197
 2612W        W 4812  13.099   2.246   6.006  0.1700  0.0531 -0.3559
 2613W        W 4813  20.800   4.660  10.621  0.2957  0.2162  0.1988
 2614W        W 4814   3.174   1.708  11.710 -0.3793 -0.1394  0.1532
 2615W        W 4815   3.272   4.975  34.272 -0.1068  0.0130 -0.1760
 2616W        W 4816  12.077   3.565  12.772  0.2399 -0.0001 -0.0044
 2617W        W 4817  17.401   3.928  25.834  0.2871  0.0962 -0.0583
 2618W        W 4818  15.222   6.564   6.154  0.0239  0.0551 -0.1126
 2619W        W 4819   7.610   5.895   2.648  0.1727  0.0067  0.1972
 2620W        W 4820  21.778   6.248   3.904  0.1370 -0.0818  0.1300
 2621W        W 4821  13.291   4.488  13.490 -0.3817 -0.0224  0.2152
 2622W        W 4822  22.757   1.385   7.312 -0.2288  0.0810  0.2950
 2623W        W 4823  17.764   1.296  26.052 -0.0564  0.5270 -0.0908
 2624W        W 4824  14.416   0.281  22.320 -0.2359  0.0237  0.2093
 2625W        W 4825   5.495   0.231  24.761  0.0940  0.0042  0.0804
 2626W        W 4826   9.124   0.553  25.881  0.0664  0.1002  0.0022
 2627W        W 4827   7.660   3.083   2.911  0.0675 -0.2946 -0.0363
 2628W        W 4828  13.575   5.538  15.258 -0.3097  0.0030 -0.2819
 2629W        W 4829  23.617   4.381  27.156  0.1665  0.2166  0.1332
 2630W        W 4830  21.925   3.480  31.772  0.1298  0.0817  0.2172
 2631W        W 4831   6.661   1.432  30.860 -0.3941  0.0440  0.6151
 2632W        W 4832  15.100   5.479  25.597  0.0181  0.0178 -0.2402
 2633W        W 4833   1.621   0.133  12.060  0.0338 -0.2373 -0.1346
 2634W        W 4834   1.751   0.308   9.171  0.1165 -0.1971  0.1057
 2635W        W 4835   3.608   4.880  14.719 -0.0049 -0.0273  0.3208
 2636W        W 4836   8.411   4.095  15.185  0.0359 -0.1538 -0.1998
 2637W        W 4837  18.480   0.492  11.823 -0.1212 -0.1982 -0.0317
 2638W        W 4838  26.092   1.160  32.508  0.0133  0.0502  0.2543
 2639W        W 4839  25.958   5.421  35.617 -0.3119  0.0271  0.2406
 2640W        W 4840   6.193   4.004  23.110 -0.1432 -0.2497  0.1335
 2641W        W 4841  20.173   0.648  10.021 -0.0707  0.0561 -0.4828
 2642W        W 4842   6.562   4.893  22.757  0.1700 -0.0159 -0.1395
 2643W        W 4843   2.536   2.273  22.947  0.1789  0.2141 -0.1713
 2644W        W 4844  26.270   5.910  25.471 -0.0412 -0.1064 -0.1037
 2645W        W 4845  25.529   6.458   1.727  0.3130 -0.1382  0.1914
 2646W        W 4846  17.657   1.384  26.789 -0.0929 -0.1206 -0.1923
 2647W        W 4847  17.380   2.958  32.812  0.0500 -0.0158 -0.1821
 2648W        W 4848   2.567   5.949  12.667 -0.0909  0.1797  0.0243
 2649W        W 4849   0.559   2.013   9.769  0.1724  0.1889 -0.1461
 2650W        W 4850  22.260   3.006  24.595 -0.0101  0.0862 -0.2774
 2651W        W 4851   8.083   5.252   8.597  0.3745 -0.0685  0.1239
 2652W        W 4852  12.264   2.514  22.107 -0.1428  0.1464 -0.2026
 2653W        W 4853  17.860   2.476   4.562 -0.0660 -0.0810 -0.0040
 2654W        W 4854  19.947   2.496  23.169 -0.2367  0.0980 -0.0025
 2655W        W 4855  16.293   4.037  12.629  0.0454 -0.3477  0.0941
 2656W        W 4856   9.934   0.408  26.184  0.0683  0.2607  0.1634
 2657W        W 4857   0.569   4.412  25.623  0.0008 -0.2419  0.0052
 2658W        W 4858  26.210   5.335  32.776 -0.2220 -0.1230  0.1484
 2659W        W 4859  21.893   0.443  10.159  0.0125 -0.0538 -0.0286
 2660W        W 4860  22.589   0.253  28.967  0.2295 -0.0770  0.0085
 2661W        W 4861   3.903   2.025  29.391  0.3859 -0.0273 -0.1658
 2662W        W 4862  13.164   2.446  28.415  0.1694 -0.0899 -0.1118
 2663W        W 4863   9.915   5.128  21.913 -0.2774 -0.2776 -0.2106
 2664W        W 4864  14.874   5.832   2.739  0.1499  0.0015 -0.1084
 2665W        W 4865   7.106   2.452  30.840 -0.1953  0.2411 -0.0464
 2666W        W 4866  15.227   5.039  30.946  0.0624 -0.1403  0.2469
 2667W        W 4867  22.825   3.155  24.138 -0.0892 -0.0039 -0.1737
 2668W        W 4868   2.975   0.963  20.658  0.1493 -0.1021  0.3116
 2669W        W 4869  18.765   1.532  14.421 -0.2216 -0.1440 -0.0648
 2670W        W 4870  11.362   5.775   3.866  0.0434 -0.0808 -0.2734
 2671W        W 4871   0.761   3.716  32.031  0.1183 -0.0046  0.0122
 2672W        W 4872  23.209   2.626   3.663  0.0873  0.1621  0.2552
 2673W        W 4873   9.471   3.552  30.229  0.1701 -0.0404 -0.2317
 2674W        W 4874  21.881   0.741  23.653 -0.2743  0.0499 -0.0651
 2675W        W 4875  15.777   4.013  10.973 -0.0900  0.3181 -0.2877
 2676W        W 4876  12.197   4.438  26.235 -0.4352  0.2033  0.3045
 2677W        W 4877  17.520   4.190  23.949  0.4031  0.2046  0.2296
 2678W        W 4878   6.643   2.759   9.004  0.2230 -0.4052 -0.2052
 2679W        W 4879  18.218   1.243   3.900  0.0175 -0.1921 -0.0923
 2680W        W 4880   0.507   0.124   9.710 -0.0325  0.2700 -0.1840
 2681W        W 4881  14.878   2.341  10.171 -0.1183  0.1164 -0.2216
 2682W        W 4882  21.018   2.450  27.942 -0.0057 -0.2467 -0.0730
 2683W        W 4883  22.050   0.665  35.219  0.1088 -0.0213 -0.0890
 2684W        W 4884   7.464   4.547  13.428 -0.0257 -0.1541 -0.0157
 2685W        W 4885  22.651   5.580  27.616 -0.1496  0.1882  0.1644
 2686W        W 4886  22.962   4.613  11.789  0.0087  0.4014 -0.0865
 2687W        W 4887  16.249   2.996  15.253  0.0136 -0.1270  0.2509
 2688W        W 4888   6.304   1.803  35.609 -0.2207  0.1010 -0.0541
 2689W        W 4889  12.210   0.678  26.649  0.2436 -0.1690 -0.1449
 2690W        W 4890  11.262   4.594  23.599  0.1651 -0.1144 -0.1982
 2691W        W 4891  10.336   0.931  22.078  0.1860 -0.0485  0.0030
 2692W        W 4892  26.179   1.822  31.769 -0.0694 -0.0388 -0.4205
 2693W        W 4893   8.621   0.261  22.675  0.4212  0.1611  0.0881
 2694W        W 4894   2.469   2.333   4.920 -0.2327  0.1436 -0.0662
 2695W        W 4895  15.648   5.546   7.946  0.0538  0.1531 -0.0291
 2696W        W 4896   6.257   5.241  20.945 -0.3191 -0.1378 -0.2242
 2697W        W 4897  20.462   5.422  21.766 -0.1725 -0.1516  0.1845
 2698W        W 4898  26.082   3.916   2.168  0.0628  0.0376  0.0020
 2699W        W 4899  12.633   4.736  33.521  0.0424  0.0513 -0.0078
 2700W        W 4900  11.912   0.992  27.988  0.1539 -0.0701  0.0964
 2701W        W 4901  23.387   1.356  10.091 -0.0217 -0.2554  0.0965
 2702W        W 4902  25.262   3.691   2.299  0.0097  0.1413 -0.3268
 2703W        W 4903   7.631   0.275   7.771  0.1991  0.1030 -0.1055
 2704W        W 4904  16.549   5.783  13.358 -0.1378  0.3320  0.2401
 2705W        W 4905  19.028   2.906   8.845 -0.0213 -0.0038 -0.0575
 2706W        W 4906  21.111   1.008  21.504 -0.1242  0.1969 -0.3383
 2707W        W 4907  20.178   1.510  10.326  0.1426  0.0037 -0.0196
 2708W        W 4908  10.360   1.318   4.987  0.2629 -0.2551  0.0245
 2709W        W 4909   8.172   2.372   2.489 -0.0275  0.1071  0.2101
 2710W        W 4910   9.593   1.008  28.610  0.0305  0.1904 -0.0502
 2711W        W 4911  25.444   5.439   8.105 -0.0245  0.3413 -0.1553
 2712W        W 4912  14.819   0.945  11.064 -0.0697 -0.2160 -0.1210
 2713W        W 4913   2.177   4.159  28.398 -0.1340 -0.2417  0.0773
 2714W        W 4914  22.166   2.712  12.188 -0.2067  0.0493 -0.0671
 2715W        W 4915   0.663   2.136  12.950 -0.1464 -0.2124 -0.0763
 2716W        W 4916   8.399   5.912  14.173  0.0746  0.0696  0.1377
 2717W        W 4917   9.204   5.949  21.448 -0.0463  0.0606  0.0396
 2718W        W 4918  13.749   0.208  29.541 -0.0437  0.0951 -0.1657
 2719W        W 4919  12.536   5.105  30.992 -0.1602 -0.1618 -0.1452
 2720W        W 4920  23.011   4.634  30.838  0.2003 -0.0844 -0.1953
 2721W        W 4921  21.473   5.859  27.259 -0.0997 -0.2379 -0.2354
 2722W        W 4922   0.297   2.459   2.700  0.4544  0.0530  0.2898
 2723W        W 4923   6.238   1.516  21.568  0.0106  0.1143  0.1243
 2724W        W 4924   0.152   2.813  33.281  0.0049  0.0015  0.2031
 2725W        W 4925  20.864   3.997  12.234  0.1299 -0.0244 -0.1620
 2726W        W 4926  12.537   3.514  20.927 -0.0470  0.0098 -0.1844
 2727W        W 4927   9.157   4.033  30.173  0.1261 -0.1738 -0.1283
 2728W        W 4928   3.496   2.329   3.443  0.0264 -0.2000 -0.1778
 2729W        W 4929  24.434   4.116  12.831  0.2185 -0.1176  0.4025
 2730W        W 4930  20.605   2.664   6.853  0.1062 -0.2400 -0.2102
 2731W        W 4931   6.405   1.706  15.645  0.1242 -0.1807 -0.2996
 2732W        W 4932  17.562   5.688  12.291 -0.3753  0.1283 -0.0450
 2733W        W 4933   7.520   0.892  28.210  0.0869  0.2565 -0.0107
 2734W        W 4934  10.654   4.243   1.460  0.1218  0.0064 -0.1487
 2735W        W 4935  18.277   1.380   9.501  0.0179 -0.0308 -0.1096
 2736W        W 4936  12.226   5.309  35.649 -0.1522 -0.0172  0.1629
 2737W        W 4937   2.457   2.781  14.489  0.1169  0.0436  0.0603
 2738W        W 4938  23.190   4.615   6.072 -0.0953  0.0384 -0.3138
 2739W        W 4939   0.127   0.734  22.992 -0.0690 -0.2414 -0.3521
 2740W        W 4940  22.382   6.034  34.977  0.1083 -0.0682  0.0070
 2741W        W 4941   7.064   4.750  24.146 -0.1288  0.2056 -0.0170
 2742W        W 4942  11.346   1.323   9.946 -0.0724  0.1945 -0.2396
 2743W        W 4943  21.002   1.077  31.337 -0.0558 -0.0830  0.1681
 2744W        W 4944  20.833   0.817  13.891  0.0642 -0.1145  0.2271
 2745W        W 4945   8.135   0.354   8.583 -0.2227 -0.2007  0.1355
 2746W        W 4946   3.274   4.466  14.678  0.2253  0.1365  0.1455
 2747W        W 4947  16.789   5.128  22.383  0.1424  0.1456 -0.1367
 2748W        W 4948  20.863   3.308   2.868 -0.0308  0.1287  0.2819
 2749W        W 4949  25.303   5.405  31.205 -0.1164  0.0415 -0.1361
 2750W        W 4950  24.550   3.987  20.292  0.2162 -0.0475 -0.1072
 2751W        W 4951  17.994   4.304  35.574  0.3128  0.1172  0.1731
 2752W        W 4952  14.470   1.044  33.063 -0.1170  0.1080 -0.4096
 2753W        W 4953  10.999   6.338  27.810  0.4041  0.3007 -0.2647
 2754W        W 4954  12.670   5.967   9.484  0.0194  0.1608 -0.0520
 2755W        W 4955  23.320   0.217   6.417  0.1314  0.3617  0.2565
 2756W        W 4956  20.955   5.379  28.355 -0.1199 -0.0804  0.0910
 2757W        W 4957  23.370   3.071  14.338  0.1319 -0.2264 -0.2019
 2758W        W 4958  18.457   0.410  13.449 -0.1230 -0.5385  0.0282
 2759W        W 4959   5.634   3.386  30.820  0.1578  0.0331  0.2162
 2760W        W 4960  15.274   2.081  14.717  0.3028  0.3115  0.0005
 2761W        W 4961   6.133   0.072   3.552 -0.4810 -0.0905 -0.1224
 2762W        W 4962  25.046   4.609   0.063  0.3144  0.0281 -0.1759
 2763W        W 4963   7.793   3.025  35.215 -0.0373  0.1907  0.2212
 2764W        W 4964  11.396   3.318  14.971  0.1670  0.1392  0.1493
 2765W        W 4965  25.314   1.749  29.143 -0.1639  0.2277  0.0857
 2766W        W 4966   8.988   5.973   9.666 -0.1887 -0.0527  0.2970
 2767W        W 4967  14.432   0.225  34.555  0.2650 -0.2127 -0.2608
 2768W        W 4968  16.906   3.464  35.778  0.1339 -0.1708 -0.0461
 2769W        W 4969   0.194   4.790   0.847 -0.1530  0.0035 -0.1355
 2770W        W 4970   9.943   1.270   6.043 -0.0560 -0.1900 -0.0791
 2771W        W 4971   3.036   4.085  32.183 -0.0250 -0.1238  0.0678
 2772W        W 4972   6.331   2.878  30.829 -0.2971 -0.1368 -0.0620
 2773W        W 4973  22.867   3.488  27.114  0.1719  0.0842 -0.2409
 2774W        W 4974  12.777   0.320   2.494 -0.0394 -0.2898  0.0239
 2775W        W 4975  18.247   4.818   4.339  0.3601  0.1669 -0.1663
 2776W        W 4976  11.963   0.691   9.612 -0.1710 -0.0566  0.0867
 2777W        W 4977  26.080   5.390  33.275  0.0230 -0.4384 -0.0060
 2778W        W 4978   6.832   5.734  32.548 -0.1071 -0.1092  0.1338
 2779W        W 4979  10.944   1.046  31.952 -0.0713 -0.1476 -0.1590
 2780W        W 4980   7.236   2.590  26.753  0.3419  0.0956  0.0350
 2781W        W 4981   4.152   4.227  27.842  0.0958  0.0686 -0.2545
 2782W        W 4982   5.876   2.055  29.505 -0.0067 -0.0013 -0.2663
 2783W        W 4983  22.733   0.331   7.136  0.2175  0.0159 -0.1231
 2784W        W 4984   4.880   0.728  23.747 -0.3317  0.0757 -0.3190
 2785W        W 4985   0.642   5.458  34.265 -0.0538  0.1602 -0.0069
 2786W        W 4986  17.560   4.486  30.875 -0.0443  0.1833 -0.1151
 2787W        W 4987  16.023   3.385   8.599 -0.0778 -0.1314 -0.0522
 2788W        W 4988   8.913   4.333  22.990 -0.2737 -0.1254  0.2979
 2789W        W 4989   9.174   5.693  14.813  0.1260 -0.0703  0.0543
 2790W        W 4990   2.216   4.805  35.798  0.0958 -0.2897 -0.1334
 2791W        W 4991  15.013   3.097   9.088 -0.2991 -0.0780 -0.1528
 2792W        W 4992   1.056   0.182  24.175 -0.0064 -0.4459  0.0007
 2793W        W 4993   3.801   2.920  11.719 -0.1121 -0.1656  0.4512
 2794W        W 4994  22.179   1.475   2.866 -0.0080 -0.0181  0.1479
 2795W        W 4995  20.419   2.936  26.339 -0.0440 -0.1268 -0.0383
 2796W        W 4996  23.296   4.616  31.740  0.0635  0.2164 -0.0280
 2797W        W 4997   9.577   3.619  21.976 -0.0599  0.1018 -0.1785
 2798W        W 4998  12.676   2.944  35.319  0.2342  0.3205  0.1691
 2799W        W 4999   0.053   3.825   0.867 -0.0044  0.1822 -0.2082
 2800W        W 5000   3.421   6.539  31.934 -0.3057  0.1861  0.2093
 2801W        W 5001   0.651   1.194   2.320  0.1165 -0.0018 -0.0905
 2802W        W 5002  12.090   1.092  12.357  0.3068  0.1495 -0.1852
 2803W        W 5003   7.785   5.560  32.196  0.1439 -0.1004  0.1887
 2804W        W 5004  10.016   5.928   3.387  0.0189 -0.1545 -0.4717
 2805W        W 5005  12.595   1.449  11.797  0.0016  0.0942 -0.0480
 2806W        W 5006  13.540   3.666  28.966  0.0788  0.0915  0.1299
 2807W        W 5007  22.790   6.518  21.354 -0.1805  0.0236 -0.3658
 2808W        W 5008  19.184   1.297   4.827 -0.4230 -0.2836  0.0636
 2809W        W 5009   3.807   3.351  13.186 -0.2221  0.1319 -0.1016
 2810W        W 5010  12.003   1.287  34.982  0.0640  0.2513 -0.3140
 2811W        W 5011   5.743   3.155  36.105 -0.3410  0.0309  0.1090
 2812W        W 5012   1.807   2.070   5.661  0.1814  0.2098  0.1901
 2813W        W 5013   5.081   1.233  12.328 -0.3033  0.0316  0.0887
 2814W        W 5014  24.814   1.209  35.653  0.0420 -0.0320 -0.0907
 2815W        W 5015  14.132   0.374  12.064  0.1003  0.1265 -0.2862
 2816W        W 5016  20.780   0.368   3.247  0.0279 -0.0563  0.3651
 2817W        W 5017  16.021   0.286   5.670  0.1769 -0.1059 -0.0095
 2818W        W 5018  16.300   5.674   9.325  0.0211  0.2120 -0.3609
 2819W        W 5019  23.027   5.755   6.588  0.1233  0.0441 -0.1803
 2820W        W 5020  25.021   2.704  30.677 -0.2090 -0.1290  0.0084
 2821W        W 5021  24.823   4.456  30.192 -0.1429 -0.1419  0.3645
 2822W        W 5022  20.618   5.794  25.092  0.2571 -0.1537  0.0439
 2823W        W 5023  15.442   0.554  26.549 -0.0536 -0.2501  0.1555
 2824W        W 5024  12.377   6.256   0.865 -0.0301  0.1027  0.3978
 2825W        W 5025   0.159   2.434  27.546  0.2169 -0.3134  0.0496
 2826W        W 5026   4.956   0.402  33.889  0.4918  0.0941 -0.0202
 2827W        W 5027  15.287   4.055  12.260 -0.1896 -0.0771  0.2027
 2828W        W 5028   8.869   1.195  25.070 -0.1759 -0.1360  0.0388
 2829W        W 5029  23.014   1.091  31.029  0.3085  0.0322 -0.1985
 2830W        W 5030   0.380   4.251  35.013  0.1126 -0.1633 -0.2507
 2831W        W 5031   2.485   3.432  26.041  0.1364 -0.1232  0.2207
 2832W        W 5032  22.832   5.453  31.334  0.2014  0.1695  0.0039
 2833W        W 5033   8.501   4.236  28.453  0.0913 -0.1482  0.1956
 2834W        W 5034  23.786   2.124  12.956 -0.0597  0.1528 -0.0597
 2835W        W 5035  13.174   3.884  23.550  0.0532 -0.1754  0.2769
 2836W        W 5036   4.571   1.648  21.897  0.2811 -0.0253  0.1211
 2837W        W 5037  16.993   2.422  22.595  0.0983  0.0967  0.1302
 2838W        W 5038   2.162   6.199  22.078  0.1680 -0.0777 -0.2957
 2839W        W 5039  14.016   4.033  30.914  0.0092  0.0190 -0.0791
 2840W        W 5040   2.290   0.333   7.697  0.4074  0.0821  0.0239
 2841W        W 5041  25.340   6.202   1.170 -0.2631  0.0787 -0.2809
 2842W        W 5042   9.824   5.321  27.036 -0.1748  0.3030  0.0833
 2843W        W 5043  21.509   5.307   0.684  0.2106  0.1623  0.2230
 2844W        W 5044  22.521   0.431  33.984 -0.1814  0.2320 -0.0642
 2845W        W 5045   6.218   4.412  34.556 -0.1440 -0.0392 -0.3535
 2846W        W 5046  24.222   2.307   8.660  0.0653 -0.1227 -0.0244
 2847W        W 5047  19.482   5.349  12.671 -0.0663 -0.2538  0.0442
 2848W        W 5048  12.644   4.153   7.956  0.1143 -0.2259  0.5263
 2849W        W 5049   9.944   3.432   9.856 -0.0074 -0.3302 -0.0691
 2850W        W 5050  26.371   4.105  21.313  0.0603 -0.1330  0.0037
 2851W        W 5051  22.551   6.048   4.397 -0.1223  0.0060 -0.1448
 2852W        W 5052  19.799   5.516  10.453  0.0875  0.4258  0.1442
 2853W        W 5053   8.043   4.638  33.358  0.2814  0.1122 -0.0245
 2854W        W 5054   5.832   4.429  33.658  0.0376 -0.0155 -0.0876
 2855W        W 5055  14.948   3.171  30.167  0.2356  0.0306  0.2500
 2856W        W 5056  14.398   1.345  22.759 -0.0112  0.3535 -0.0058
 2857W        W 5057   1.423   5.272   1.677  0.0115  0.3774 -0.3047
 2858W        W 5058  14.387   6.561   1.064  0.0203 -0.0483  0.3403
 2859W        W 5059   0.454   0.307   4.936  0.3531  0.0297 -0.1617
 2860W        W 5060  20.134   3.964   5.407  0.3303 -0.0018 -0.1009
 2861W        W 5061  17.493   3.887  24.305  0.2798 -0.0896 -0.3322
 2862W        W 5062  19.935   1.234  33.109 -0.4064  0.0823 -0.1401
 2863W        W 5063  26.254   5.993  11.124 -0.0149 -0.1279 -0.1254
 2864W        W 5064   9.119   6.269  28.160 -0.0294 -0.2910 -0.2047
 2865W        W 5065  14.580   0.249  11.731  0.1124 -0.4002  0.2982
 2866W        W 5066  26.119   5.769  34.782  0.0241  0.1473 -0.1163
 2867W        W 5067  24.965   1.055  13.148  0.1758 -0.1981 -0.2241
 2868W        W 5068  18.008   4.795  26.609 -0.2100  0.2157  0.0355
 2869W        W 5069  13.238   2.099   0.611 -0.0487 -0.2399  0.1771
 2870W        W 5070  10.360   3.258  29.093 -0.2215 -0.0833  0.0748
 2871W        W 5071  20.293   4.130  24.313  0.1673  0.1304  0.0711
 2872W        W 5072  19.468   2.176   4.907  0.0141  0.1180 -0.0002
 2873W        W 5073   5.236   5.151  33.045 -0.0512 -0.0447  0.0747
 2874W        W 5074  12.475   1.005  32.774  0.2540  0.0253  0.1282
 2875W        W 5075   3.502   4.504  34.420 -0.0214  0.1278  0.2299
 2876W        W 5076   7.806   3.283   0.936 -0.2684 -0.0103 -0.0926
 2877W        W 5077  16.259   6.091  11.464  0.0808  0.2191 -0.1706
 2878W        W 5078   1.463   4.871   1.980 -0.0277  0.2018  0.0916
 2879W        W 5079   1.441   6.453  33.186  0.0521 -0.0053 -0.0742
 2880W        W 5080  11.130   1.009  28.884  0.1045  0.0207 -0.1866
 2881W        W 5081   1.189   5.224  28.140 -0.0213  0.0658 -0.0696
 2882W        W 5082  19.971   3.362   9.036  0.0709  0.0397 -0.1166
 2883W        W 5083   0.295   6.031  32.633 -0.1471 -0.1797  0.0793
 2884W        W 5084  14.477   6.056   0.966 -0.0860  0.2650  0.0389
 2885W        W 5085  23.128   5.644   2.256  0.2188 -0.1957  0.1942
 2886W        W 5086   9.761   0.775   1.118  0.1684 -0.1837 -0.1105
 2887W        W 5087   9.721   4.045  21.829 -0.0531 -0.0595  0.0071
 2888W        W 5088   7.779   3.157  24.514  0.1242  0.1785  0.3565
 2889W        W 5089   3.943   2.548  35.099 -0.0720 -0.1899  0.1864
 2890W        W 5090   0.877   1.448  28.964  0.0856  0.3185  0.3298
 2891W        W 5091   0.036   6.321  32.257  0.3754 -0.1995 -0.0407
 2892W        W 5092   0.127   6.170   7.112  0.0182 -0.0687  0.0447
 2893W        W 5093  18.395   3.646  29.424 -0.0888 -0.2552 -0.0189
 2894W        W 5094   4.403   1.143  31.618  0.1236 -0.1163  0.2191
 2895W        W 5095  25.236   5.366  14.320 -0.1356 -0.1748 -0.1506
 2896W        W 5096  17.208   0.782  11.603  0.0328 -0.0270  0.1669
 2897W        W 5097  15.429   5.671   5.938  0.1661  0.2406  0.1115
 2898W        W 5098   1.843   1.045   6.161  0.0446 -0.0397  0.0621
 2899W        W 5099  13.949   6.199   0.955  0.2713  0.2374  0.2701
 2900W        W 5100   1.536   1.477  22.686 -0.2059 -0.2140  0.1374
 2901W        W 5101  16.832   1.262  26.448 -0.1056 -0.0773  0.0963
 2902W        W 5102   2.948   0.467  26.564 -0.0770 -0.2811 -0.0585
 2903W        W 5103  13.339   2.377   3.257 -0.0158  0.0715 -0.2174
 2904W        W 5104  21.556   3.354  29.536  0.0332 -0.0147  0.0958
 2905W        W 5105   5.083   6.470  26.653 -0.1554 -0.1163 -0.3553
 2906W        W 5106   1.540   5.015  24.022  0.0155 -0.1429 -0.0497
 2907W        W 5107   9.950   0.869   5.773  0.1050 -0.4116  0.1431
 2908W        W 5108   9.321   4.914  23.544  0.0127 -0.3666  0.0379
 2909W        W 5109  12.110   4.382  33.153 -0.0671 -0.2453  0.0176
 2910W        W 5110   8.011   1.627   0.417 -0.0175  0.0785 -0.2268
 2911W        W 5111  17.691   0.545  24.315  0.4924  0.0340 -0.1006
 2912W        W 5112  12.420   6.171   3.596 -0.1344 -0.3313  0.0432
 2913W        W 5113   2.776   1.640   1.226 -0.1291 -0.1679  0.0247
 2914W        W 5114  11.534   0.768  33.335 -0.1849  0.1660 -0.2450
 2915W        W 5115  11.621   3.048  10.162 -0.1263 -0.0654 -0.0523
 2916W        W 5116  10.891   1.947  13.030 -0.1926  0.0376 -0.2557
 2917W        W 5117  22.211   5.348  26.217  0.1501 -0.1970 -0.1498
 2918W        W 5118   9.095   5.024  28.853  0.0860  0.0429  0.0233
 2919W        W 5119   6.895   4.215  12.490  0.3788 -0.1040  0.2754
 2920W        W 5120  17.190   4.714  11.838 -0.1638  0.0163  0.2363
 2921W        W 5121   4.081   4.994  14.672 -0.1277 -0.2422 -0.2874
 2922W        W 5122  16.190   0.904  34.641 -0.1318 -0.0100  0.1073
 2923W        W 5123  14.243   4.366  36.010 -0.1483  0.1078  0.1690
 2924W        W 5124  19.048   2.576  26.716  0.1550 -0.2521  0.0488
 2925W        W 5125  20.730   5.478  26.246  0.0499 -0.3546 -0.3761
 2926W        W 5126  26.322   1.129  29.813 -0.1051  0.1289 -0.0545
 2927W        W 5127  10.487   6.414  20.958  0.1985 -0.0156  0.1296
 2928W        W 5128   9.798   5.066   3.157 -0.0410 -0.1875 -0.2287
 2929W        W 5129   0.907   0.999  33.316  0.2138 -0.0619 -0.3457
 2930W        W 5130  24.166   6.436  24.436  0.2426  0.0067 -0.1082
 2931W        W 5131  19.347   3.735  25.469  0.0845  0.2446 -0.0962
 2932W        W 5132  22.018   1.463  34.554 -0.1361  0.2103  0.1296
 2933W        W 5133  19.933   2.702  24.942 -0.0263  0.2762 -0.1954
 2934W        W 5134  22.977   0.024  33.171 -0.3317 -0.2425 -0.2742
 2935W        W 5135  20.735   3.583  22.161  0.2044  0.1031  0.4154
 2936W        W 5136  15.660   1.747  11.163 -0.0295  0.3614  0.0931
 2937W        W 5137  26.316   5.147   5.307 -0.0906 -0.1873 -0.1035
 2938W        W 5138  17.876   2.788  34.783 -0.2016  0.0789  0.0830
 2939W        W 5139  15.981   3.896  30.258  0.0406 -0.2011  0.0391
 2940W        W 5140   3.034   4.561   9.275 -0.0072 -0.1455  0.0873
 2941W        W 5141  21.713   2.731  34.845 -0.1773 -0.3599 -0.2616
 2942W        W 5142   9.271   3.059  13.776 -0.1135 -0.2065  0.1731
 2943W        W 5143  16.718   6.451  12.201  0.0955  0.1446  0.0462
 2944W        W 5144   2.721   0.240   1.735 -0.1147 -0.0091 -0.1744
 2945W        W 5145  26.215   2.550  24.284 -0.2645 -0.2972  0.0546
 2946W        W 5146  12.033   1.249  29.275  0.0356 -0.1401 -0.0895
 2947W        W 5147   4.067   0.767  11.650  0.0905 -0.0978  0.1057
 2948W        W 5148  24.427   5.872  26.545  0.1123 -0.0551  0.3467
 2949W        W 5149  23.680   0.147   3.916  0.0922  0.1372 -0.0691
 2950W        W 5150   1.654   6.602  31.413  0.3284 -0.0369  0.0346
 2951W        W 5151   6.189   5.244   0.133 -0.1785 -0.1735  0.0932
 2952W        W 5152   2.541   4.434  34.537  0.5019 -0.0919  0.1306
 2953W        W 5153   7.889   5.479   9.488 -0.1083 -0.0081  0.3920
 2954W        W 5154  13.430   6.399   2.058 -0.3172 -0.0886 -0.1250
 2955W        W 5155   2.068   0.626  13.153  0.0753  0.2122 -0.2261
 2956W        W 5156  11.674   2.240   1.880 -0.0663  0.1424 -0.2053
 2957W        W 5157  14.692   4.532  24.902  0.0711  0.1490 -0.2007
 2958W        W 5158  24.678   2.636   9.375  0.0810 -0.5719  0.1640
 2959W        W 5159   2.835   5.796   0.245  0.3373  0.2133 -0.3307
 2960W        W 5160  17.211   0.444   9.030 -0.0387  0.3786  0.2577
 2961W        W 5161  12.078   6.228  14.111 -0.1147  0.1089 -0.2133
 2962W        W 5162  18.376   2.399  28.274  0.2114 -0.0510 -0.0366
 2963W        W 5163   0.706   0.117  12.272  0.3062 -0.1388 -0.0252
 2964W        W 5164  17.921   1.220   9.970  0.2150 -0.0738 -0.1960
 2965W        W 5165   6.443   2.040  10.181 -0.1150 -0.1437  0.1861
 2966W        W 5166  17.214   1.069   4.704  0.0295 -0.3422 -0.0105
 2967W        W 5167   6.898   1.195  27.499 -0.0271  0.3104  0.3011
 2968W        W 5168  13.334   1.975  28.683  0.0177 -0.0136  0.0103
 2969W        W 5169  12.600   2.018  32.534  0.1455 -0.2694 -0.0835
 2970W        W 5170  18.932   1.057  32.322  0.2095 -0.1800 -0.0661
 2971W        W 5171   7.958   5.655  11.282 -0.1508 -0.1006 -0.5404
 2972W        W 5172  15.517   1.807   8.278 -0.0589 -0.4070 -0.1255
 2973W        W 5173  23.180   0.602  30.779  0.2015  0.1470 -0.0820
 2974W        W 5174  15.565   4.586   2.984  0.0301 -0.3079  0.0237
 2975W        W 5175  17.320   3.122  13.057 -0.1729  0.2719  0.0319
 2976W        W 5176  13.073   0.970  28.207  0.1694 -0.0672  0.1719
 2977W        W 5177  26.329   3.611  22.132  0.0777 -0.1386  0.2637
 2978W        W 5178   8.776   2.865  28.799  0.0985 -0.1088 -0.1887
 2979W        W 5179   3.872   1.953  32.942 -0.2100 -0.2074  0.1681
 2980W        W 5180   4.618   6.477   5.811  0.1430  0.0916 -0.3155
 2981W        W 5181  20.096   0.888  28.194 -0.1177 -0.0691  0.2282
 2982W        W 5182   4.846   3.793  21.511  0.3169  0.0409 -0.0943
 2983W        W 5183   2.555   5.777  11.832  0.0487  0.2374 -0.0258
 2984W        W 5184  12.587   5.405  33.076  0.0345  0.1426 -0.0658
 2985W        W 5185  26.092   1.070   4.384 -0.1913  0.1459  0.3374
 2986W        W 5186  11.987   3.557  33.281  0.1855 -0.1569  0.3309
 2987W        W 5187  16.678   0.240  22.579  0.1659  0.0512  0.2568
 2988W        W 5188  16.517   4.747  32.091  0.0479 -0.1324 -0.2187
 2989W        W 5189  12.183   2.682  22.749 -0.0692  0.0137 -0.0550
 2990W        W 5190  10.799   4.240  32.857  0.0557  0.0321 -0.0665
 2991W        W 5191  25.476   5.870  34.019  0.2571  0.0331 -0.1053
 2992W        W 5192   0.112   0.873   9.053  0.0323  0.0384  0.0187
 2993W        W 5193   5.551   4.206  27.181  0.1695  0.1824 -0.2200
 2994W        W 5194  10.738   5.046   3.453  0.1574  0.3227  0.1117
 2995W        W 5195  14.631   0.811  20.822 -0.1264  0.1002 -0.1448
 2996W        W 5196  13.921   4.761  34.270  0.2628  0.1546  0.1228
 2997W        W 5197   2.607   0.794   4.197 -0.0158  0.1981 -0.2105
 2998W        W 5198  11.761   5.162  31.030 -0.1312 -0.1404 -0.1492
 2999W        W 5199  11.988   2.748  31.070  0.2163 -0.0548  0.0619
 3000W        W 5200   3.553   3.281  11.462 -0.2859  0.3279  0.1341
 3001W        W 5201   7.759   0.639   0.219  0.0632 -0.1614  0.3517
 3002W        W 5202  19.077   5.064  28.631  0.0378  0.4372 -0.0186
 3003W        W 5203   7.827   5.361  30.352  0.2263 -0.1639  0.0351
 3004W        W 5204  20.727   5.720  22.538 -0.0503  0.2137 -0.2094
 3005W        W 5205  10.820   1.852  27.845  0.0786 -0.2103  0.0329
 3006W        W 5206  22.427   5.107  24.753  0.3298  0.2897  0.1289
 3007W        W 5207  25.393   1.919   3.083 -0.0084  0.2305  0.0226
 3008W        W 5208  22.343   0.550   0.345 -0.1537  0.0358  0.0136
 3009W        W 5209   7.450   2.804   7.438  0.2101 -0.2322 -0.0208
 3010W        W 5210   7.269   4.481   8.148  0.2156 -0.1398  0.0356
 3011W        W 5211   9.291   3.742  15.641  0.2730 -0.0834 -0.1995
 3012W        W 5212  11.323   0.129  23.473 -0.1539  0.4093 -0.1759
 3013W        W 5213  21.357   6.222   0.730  0.0239 -0.1558  0.1251
 3014W        W 5214  21.311   0.659  23.627 -0.1858  0.0565 -0.1748
 3015W        W 5215  16.383   3.249  26.625 -0.0014 -0.2947  0.2292
 3016W        W 5216  11.598   0.668  34.930  0.1527  0.0423 -0.0585
 3017W        W 5217   1.974   5.853  28.304  0.2615  0.0288  0.2223
 3018W        W 5218  22.886   5.373  32.758  0.1562 -0.2147  0.0001
 3019W        W 5219   2.199   1.513   2.897 -0.1252  0.2562 -0.0958
 3020W        W 5220  11.425   3.939  30.770  0.2838  0.1415 -0.0030
 3021W        W 5221  16.284   4.730   2.683  0.0131 -0.0775 -0.0757
 3022W        W 5222   5.230   6.506  28.964 -0.0651  0.0001 -0.2980
 3023W        W 5223  18.937   0.088  32.407 -0.0816 -0.0602  0.2282
 3024W        W 5224   4.803   2.377   9.609  0.0340 -0.3172 -0.2379
 3025W        W 5225  15.563   2.967  11.166 -0.1252  0.2880 -0.0099
 3026W        W 5226  16.808   1.240  35.900 -0.2356  0.5059  0.0532
 3027W        W 5227  26.395   0.138   4.807  0.1612  0.0901 -0.2137
 3028W        W 5228   1.171   5.695   9.257  0.1303 -0.1683  0.2103
 3029W        W 5229  11.278   5.432  15.112 -0.1154  0.0512 -0.0757
 3030W        W 5230  12.201   5.902   6.698 -0.2438  0.3047 -0.1241
 3031W        W 5231  23.671   4.090  13.429 -0.1898 -0.2674 -0.3043
 3032W        W 5232   4.994   0.535   5.052 -0.0841  0.0123 -0.3854
 3033W        W 5233  17.220   2.974  25.505  0.1567  0.0927  0.2583
 3034W        W 5234   3.937   1.332   0.832  0.2653  0.2306  0.0273
 3035W        W 5235   6.330   2.423   2.703 -0.2092 -0.3163 -0.0502
 3036W        W 5236   2.641   3.883  22.677 -0.0956 -0.1144 -0.0540
 3037W        W 5237  18.656   6.600  15.654 -0.0883 -0.0558  0.2270
 3038W        W 5238  15.568   5.446  32.693 -0.0505  0.1669  0.1620
 3039W        W 5239  14.137   5.608  31.275 -0.2436 -0.1215 -0.1853
 3040W        W 5240   5.020   1.554  11.421  0.0338 -0.0111  0.1909
 3041W        W 5241   1.149   3.741  27.830  0.4106  0.0364 -0.0918
 3042W        W 5242  16.723   5.707   2.142 -0.0348  0.2557  0.1541
 3043W        W 5243  18.389   1.539  27.229  0.1105 -0.0387  0.0352
 3044W        W 5244   8.692   3.504  31.991 -0.0512  0.3249 -0.2294
 3045W        W 5245  12.252   2.228  23.024 -0.0381 -0.0975  0.0194
 3046W        W 5246  14.161   6.299  14.572 -0.1677  0.2714  0.0342
 3047W        W 5247  19.252   3.935  32.441 -0.0449  0.3664 -0.1358
 3048W        W 5248  18.037   2.906  10.185  0.0659 -0.1461  0.1502
 3049W        W 5249   6.664   5.591  21.773  0.3586 -0.0535  0.2078
 3050W        W 5250   8.666   4.467   4.611  0.1065  0.2000  0.1838
 3051W        W 5251  13.282   4.123  20.854 -0.1498 -0.2011 -0.0982
 3052W        W 5252  25.107   1.915  34.879 -0.2555  0.0038 -0.0528
 3053W        W 5253   7.814   3.941   4.137 -0.0039 -0.2970  0.1201
 3054W        W 5254  24.020   3.699   3.951 -0.0608  0.2199 -0.1007
 3055W        W 5255   9.477   3.724  32.693 -0.1047  0.1338  0.2477
 3056W        W 5256  18.925   0.384  15.545  0.0830  0.2510 -0.2027
 3057W        W 5257   1.143   3.864  30.284  0.0052 -0.1947  0.3875
 3058W        W 5258   8.596   2.694  21.076 -0.4945  0.1927 -0.3426
 3059W        W 5259  11.968   3.081   0.853 -0.0452 -0.1229  0.1063
 3060W        W 5260  18.963   2.927  31.750 -0.0062 -0.2227  0.2159
 3061W        W 5261  18.742   5.419  12.043 -0.0865  0.1670  0.0359
 3062W        W 5262   1.626   1.321  31.506 -0.2766 -0.2123 -0.0686
 3063W        W 5263   4.412   6.190  14.302  0.0376 -0.1167  0.3174
 3064W        W 5264  14.377   4.968  13.821  0.1155 -0.2471 -0.2458
 3065W        W 5265  10.987   0.726   5.293 -0.3638  0.2652  0.1787
 3066W        W 5266  23.061   0.675  25.951 -0.0885  0.1694 -0.0544
 3067W        W 5267  17.717   5.129  30.366 -0.1100 -0.0311 -0.0046
 3068W        W 5268  23.913   0.987  30.520 -0.1334  0.2544 -0.1053
 3069W        W 5269  15.662   2.963   3.978 -0.2253  0.0153  0.2404
 3070W        W 5270  16.166   4.196  22.686 -0.2300  0.0414  0.1013
 3071W        W 5271  21.914   1.066  30.340  0.2356  0.1423  0.0987
 3072W        W 5272  25.073   0.800  13.840 -0.2788  0.0188 -0.0175
 3073W        W 5273   7.141   5.567   9.019 -0.1481 -0.1542  0.0293
 3074W        W 5274  25.662   2.812   5.530  0.1270  0.1633 -0.3309
 3075W        W 5275  21.777   1.645  34.185 -0.3299 -0.1890  0.2830
 3076W        W 5276   2.205   2.633  12.314  0.5342 -0.1612  0.0646
 3077W        W 5277  13.556   6.178  29.081 -0.1874 -0.2200  0.3004
 3078W        W 5278   3.842   5.883   2.624  0.3417 -0.2103  0.0366
 3079W        W 5279   3.659   3.011   9.982  0.0966  0.2997 -0.0183
 3080W        W 5280   8.531   4.292   8.561  0.1120 -0.3510  0.1609
 3081W        W 5281  25.189   5.598  23.649 -0.1940  0.0552 -0.0541
 3082W        W 5282  14.695   5.457   3.782 -0.1759  0.1451 -0.0599
 3083W        W 5283   9.478   4.932  26.954 -0.1496  0.2108 -0.1754
 3084W        W 5284  13.047   0.260  15.259  0.1387 -0.0464  0.1113
 3085W        W 5285   4.963   0.750  10.963 -0.1383 -0.0347  0.3190
 3086W        W 5286  22.460   0.197   2.493  0.1702 -0.0687 -0.1504
 3087W        W 5287  26.326   1.161   1.878 -0.1577  0.1174  0.3967
 3088W        W 5288   0.744   5.495  31.659  0.0474 -0.0785 -0.1622
 3089W        W 5289   1.755   4.951  24.956  0.1103  0.2919  0.0810
 3090W        W 5290   8.361   4.169   1.848 -0.0027 -0.1059  0.0392
 3091W        W 5291  16.798   2.523   3.911  0.2983  0.1447 -0.0971
 3092W        W 5292  23.951   1.128  33.721  0.0992 -0.0425  0.1451
 3093W        W 5293  23.744   2.919   1.406  0.0514  0.1717  0.0087
 3094W        W 5294   0.859   5.793  13.205  0.1793 -0.1255 -0.0160
 3095W        W 5295  13.149   2.511  10.493  0.1398  0.3468 -0.2692
 3096W        W 5296  12.588   3.371   8.587  0.0217 -0.1616  0.0258
 3097W        W 5297  16.112   0.266  35.241 -0.0313  0.0110  0.1863
 3098W        W 5298   9.068   0.706  10.669 -0.1477  0.0983 -0.0202
 3099W        W 5299  21.807   2.374  27.220  0.0508  0.1395 -0.2382
 3100W        W 5300  18.610   0.727   6.049 -0.1284 -0.4294  0.2138
 3101W        W 5301  24.163   1.197  12.941  0.2481  0.3926 -0.0651
 3102W        W 5302   2.513   0.450  15.062  0.1456  0.1644  0.0041
 3103W        W 5303  22.202   1.334  26.608 -0.0279  0.1315 -0.1135
 3104W        W 5304  17.208   1.936  14.398  0.1343  0.1403 -0.3615
 3105W        W 5305   3.235   2.830  26.423  0.2313 -0.3214 -0.0973
 3106W        W 5306   7.849   6.587   5.416 -0.1089  0.2405 -0.1599
 3107W        W 5307   6.659   4.304  28.246  0.2081  0.1584 -0.1955
 3108W        W 5308  23.844   4.874  24.222 -0.0733  0.2669  0.3067
 3109W        W 5309  21.802   2.641   5.773 -0.2184  0.3257 -0.2977
 3110W        W 5310  20.283   5.551  20.042  0.0247 -0.2563  0.1969
 3111W        W 5311  22.764   6.477  28.233  0.3612  0.2497 -0.0619
 3112W        W 5312   0.147   3.536   1.313  0.3786 -0.4199  0.0553
 3113W        W 5313  17.557   5.782  31.574  0.1020  0.0145 -0.1197
 3114W        W 5314  15.015   5.163  12.449  0.3294  0.1337 -0.2382
 3115W        W 5315  20.016   3.005   2.602  0.0361 -0.1706  0.0667
 3116W        W 5316  16.109   6.084  13.558 -0.1518  0.0836  0.1460
 3117W        W 5317  11.839   5.333  35.968 -0.2504 -0.1508 -0.1492
 3118W        W 5318  14.016   5.632   8.243 -0.1253 -0.2506 -0.1095
 3119W        W 5319   3.361   1.161   9.688  0.0018  0.0545 -0.1489
 3120W        W 5320   4.127   6.295   1.320 -0.0404  0.1688 -0.0350
 3121W        W 5321   5.690   5.243  33.307 -0.2524  0.1219 -0.1146
 3122W        W 5322  14.835   0.630  11.512  0.1188 -0.0378  0.0904
 3123W        W 5323  24.602   4.614  36.003 -0.0057 -0.0550  0.0341
 3124W        W 5324   7.960   0.760  13.474 -0.0483  0.0566 -0.0071
 3125W        W 5325   3.757   2.346  14.158  0.2318 -0.2206  0.0973
 3126W        W 5326   1.520   3.833  31.648 -0.0105  0.1455  0.1836
 3127W        W 5327  15.931   4.926  30.323  0.3054 -0.3246 -0.1779
 3128W        W 5328   3.272   4.989  11.387 -0.0098  0.0034 -0.2624
 3129W        W 5329   2.222   3.180   6.470  0.3171 -0.0913  0.0173
 3130W        W 5330  19.523   5.565  27.217 -0.2327  0.1060 -0.0873
 3131W        W 5331  16.594   2.345  11.065  0.1146  0.2491  0.0606
 3132W        W 5332   4.027   3.276   2.897 -0.2267  0.1865  0.0456
 3133W        W 5333  14.780   2.459  26.093 -0.3396 -0.0034 -0.1618
 3134W        W 5334  18.091   4.637  12.321  0.0494 -0.3381 -0.0175
 3135W        W 5335  13.396   2.609  35.815  0.1487  0.2026  0.1208
 3136W        W 5336  11.000   0.897  33.173 -0.4102  0.1462 -0.3894
 3137W        W 5337  25.450   4.815   5.212 -0.2159 -0.1919  0.0460
 3138W        W 5338   1.357   6.362  24.823  0.3423 -0.1543  0.2527
 3139W        W 5339  20.171   0.608  11.215 -0.1373 -0.1424 -0.0008
 3140W        W 5340  19.377   5.027   6.748  0.0850 -0.1082  0.0110
 3141W        W 5341   2.481   6.537   8.597 -0.1789  0.0954  0.0839
 3142W        W 5342  26.068   1.603  24.616 -0.2500  0.0279  0.0380
 3143W        W 5343   1.418   2.191  15.095  0.0450  0.2482 -0.4838
 3144W        W 5344  11.340   0.178  10.292  0.1467  0.2090  0.0149
 3145W        W 5345  20.543   3.807  24.623  0.1137  0.1823  0.1274
 3146W        W 5346  11.801   3.075  31.834 -0.2611  0.0028  0.0060
 3147W        W 5347   8.975   2.965   6.698  0.1080  0.0970  0.0460
 3148W        W 5348  23.994   5.012  26.577 -0.0330  0.3122 -0.4017
 3149W        W 5349  10.434   6.175  23.708 -0.2783  0.1947  0.3150
 3150W        W 5350  16.615   4.577  25.582  0.1892 -0.2902 -0.4032
 3151W        W 5351   5.005   5.233  21.416  0.0801  0.0858 -0.1022
 3152W        W 5352  20.267   1.601  32.243 -0.1614  0.1079  0.0180
 3153W        W 5353  14.728   1.688  14.370  0.1393  0.2777  0.1644
 3154W        W 5354   8.561   1.413  14.578 -0.0695 -0.0480  0.0557
 3155W        W 5355  23.256   0.090   1.943 -0.0539 -0.1284 -0.1488
 3156W        W 5356   5.301   6.051  34.640  0.0649  0.2415 -0.0031
 3157W        W 5357  23.215   1.214  34.131 -0.1235  0.1610 -0.1552
 3158W        W 5358  25.341   4.291  31.828 -0.3185 -0.0038  0.1982
 3159W        W 5359  19.592   3.419   6.724  0.3032 -0.2041  0.1161
 3160W        W 5360   9.999   1.268  15.477 -0.2465 -0.1426  0.0892
 3161W        W 5361   3.654   4.294   3.954  0.0470 -0.5146 -0.0660
 3162W        W 5362  19.545   2.372  11.185 -0.1376  0.3151 -0.1041
 3163W        W 5363  14.961   4.844   5.018 -0.2008 -0.0321 -0.3499
 3164W        W 5364  25.773   3.653  22.087 -0.2952  0.2144 -0.2164
 3165W        W 5365   8.688   4.324   9.870  0.1402  0.1523 -0.1646
 3166W        W 5366  18.253   5.596  28.198  0.1799  0.1891  0.0483
 3167W        W 5367   8.062   1.122   0.219 -0.3137  0.1030  0.3003
 3168W        W 5368  26.105   3.735  21.681 -0.0828  0.1680  0.1661
 3169W        W 5369   9.435   4.129   8.007 -0.2175  0.1033  0.2713
 3170W        W 5370  22.140   0.923   5.499 -0.0391  0.1070 -0.2823
 3171W        W 5371   8.529   0.138  28.730 -0.0103  0.2005  0.0161
 3172W        W 5372   4.529   5.748  15.451 -0.0070  0.0460 -0.1672
 3173W        W 5373   0.551   4.747  26.579  0.0543  0.3168  0.0610
 3174W        W 5374  12.183   0.939  15.485  0.0595 -0.3499 -0.0394
 3175W        W 5375  17.329   3.127  21.079  0.1402  0.1441 -0.2444
 3176W        W 5376  10.666   6.390  25.417  0.1605 -0.0234 -0.2076
 3177W        W 5377   4.574   2.372  26.737  0.0798  0.2140 -0.0142
 3178W        W 5378   6.044   2.808  23.711 -0.2170  0.0832 -0.0051
 3179W        W 5379  21.702   3.222  31.227 -0.2717  0.0810  0.0062
 3180W        W 5380   8.345   0.246  32.283  0.0171  0.1101  0.0025
 3181W        W 5381  25.622   4.395  35.062  0.1758 -0.0192  0.3348
 3182W        W 5382  16.348   5.261   9.657  0.4769  0.2110 -0.0541
 3183W        W 5383  24.104   6.454   8.772 -0.0961 -0.1185 -0.0621
 3184W        W 5384  19.160   2.856  14.380  0.0159  0.0467 -0.0455
 3185W        W 5385   1.874   1.092  29.672 -0.0942 -0.1853 -0.5033
 3186W        W 5386   2.931   6.200   3.472 -0.0860  0.0332 -0.0370
 3187W        W 5387  15.573   5.486  25.739 -0.2166 -0.4115 -0.1284
 3188W        W 5388  24.194   6.346  14.371 -0.0549 -0.0695 -0.0636
 3189W        W 5389  18.127   0.384   7.383 -0.0607 -0.2426  0.0657
 3190W        W 5390  17.489   4.620   3.686  0.0626 -0.0093 -0.0611
 3191W        W 5391  19.219   0.941   6.036 -0.1916  0.3213 -0.1049
 3192W        W 5392  17.915   5.992  28.875 -0.0811 -0.1718  0.0879
 3193W        W 5393  11.861   0.787  26.299 -0.1248  0.1033  0.2473
 3194W        W 5394  24.058   1.311   1.704 -0.2418  0.4484 -0.0371
 3195W        W 5395  21.105   5.319  31.640 -0.1685  0.3934 -0.1160
 3196W        W 5396  22.652   4.033  20.617  0.1464 -0.0888 -0.1748
 3197W        W 5397   0.367   0.137  33.210  0.0301  0.0801  0.0420
 3198W        W 5398  18.547   5.670  29.751  0.0268 -0.1078  0.1695
 3199W        W 5399  21.430   0.526   1.699 -0.3709  0.2063  0.2047
 3200W        W 5400   4.791   2.355  24.857  0.1899 -0.3226  0.1246
 3201W        W 5401  18.883   2.622   1.163 -0.0577 -0.2689 -0.2156
 3202W        W 5402   4.585   5.832   0.071 -0.2129  0.1726 -0.1178
 3203W        W 5403  19.984   4.273  23.884 -0.3266 -0.0677 -0.0278
 3204W        W 5404  21.607   3.481  11.125 -0.0103 -0.3685  0.2473
 3205W        W 5405   3.244   0.236  22.589 -0.0452 -0.0321  0.2141
 3206W        W 5406   4.165   5.101  30.099 -0.0216 -0.1792 -0.1461
 3207W        W 5407  24.353   0.491  25.658 -0.2413 -0.1718 -0.2658
 3208W        W 5408  13.282   3.399  15.120 -0.1120  0.1789  0.3635
 3209W        W 5409   3.831   4.437   5.835 -0.1865 -0.0081 -0.1568
 3210W        W 5410  13.869   1.498  25.933 -0.1309 -0.2918  0.1198
 3211W        W 5411   9.508   3.978  24.189 -0.2916  0.1728  0.0482
 3212W        W 5412  17.679   1.801  31.565  0.0301 -0.2325 -0.1114
 3213W        W 5413   8.607   5.722  31.912  0.1112  0.0967 -0.2980
 3214W        W 5414  25.065   4.973  24.673  0.1820  0.0182 -0.3250
 3215W        W 5415   6.331   3.080   6.209 -0.1886 -0.1246 -0.1290
 3216W        W 5416  15.979   6.393  11.737  0.1553  0.1612 -0.0088
 3217W        W 5417   3.421   0.167  22.043 -0.1230  0.0756  0.0789
 3218W        W 5418   0.535   3.173  20.906 -0.0220  0.1742  0.3767
 3219W        W 5419   5.205   5.576  32.797  0.2411 -0.1475  0.1847
 3220W        W 5420   2.823   3.742  30.413 -0.2933 -0.1820 -0.0295
 3221W        W 5421  16.749   1.245   2.172 -0.0693  0.2374 -0.1565
 3222W        W 5422   8.943   1.901  22.606 -0.0663 -0.1598  0.3266
 3223W        W 5423  14.461   5.227  11.742  0.1520  0.1938  0.0510
 3224W        W 5424   0.078   0.961  13.077 -0.0200 -0.0193 -0.0980
 3225W        W 5425  12.088   5.227  13.641  0.3408 -0.0877 -0.2797
 3226W        W 5426   3.736   0.173   6.359  0.3760 -0.1570  0.0826
 3227W        W 5427  20.624   0.705  10.335  0.2856 -0.2890  0.3317
 3228W        W 5428  14.363   3.744  25.603 -0.2572 -0.3463 -0.0827
 3229W        W 5429   0.763   3.733  28.350 -0.0657  0.0904 -0.0884
 3230W        W 5430   6.846   4.829   5.065  0.1540  0.0650 -0.2739
 3231W        W 5431  22.679   3.409  11.377  0.2794 -0.0165  0.0415
 3232W        W 5432  15.380   3.786   3.730 -0.0055  0.1593 -0.0388
 3233W        W 5433  12.393   2.902  13.597 -0.1449  0.0044 -0.2277
 3234W        W 5434   9.082   2.361  11.371 -0.0270 -0.0873 -0.0178
 3235W        W 5435   6.251   3.449   2.715 -0.1045 -0.1017  0.5959
 3236W        W 5436  24.998   0.330  32.433 -0.3374 -0.0470  0.2901
 3237W        W 5437  12.559   3.887  21.695  0.0814 -0.0078 -0.0702
 3238W        W 5438   2.254   4.358  29.931 -0.0572  0.1842 -0.3160
 3239W        W 5439   1.237   4.894  15.591 -0.2077  0.2988  0.1157
 3240W        W 5440  17.743   5.467   4.100  0.3330  0.1329  0.0217
 3241W        W 5441  10.536   6.506  27.988  0.0379 -0.0657 -0.3317
 3242W        W 5442   8.098   4.059  22.311  0.1829 -0.2460  0.0751
 3243W        W 5443  11.505   4.507   3.838 -0.1142 -0.2146 -0.0433
 3244W        W 5444   7.698   2.387   2.699 -0.2189 -0.0636  0.0111
 3245W        W 5445  13.357   0.737   6.615 -0.1611 -0.1979 -0.2434
 3246W        W 5446   3.176   5.628   4.351 -0.1360 -0.0717 -0.1534
 3247W        W 5447   3.540   1.260  27.066 -0.0482  0.0121 -0.1331
 3248W        W 5448   4.875   2.701  10.352  0.0175 -0.0541 -0.1987
 3249W        W 5449  11.422   4.993  22.262  0.1475  0.1335 -0.2151
 3250W        W 5450  23.675   1.549  23.407 -0.1534  0.0321  0.1098
 3251W        W 5451  18.331   1.866   4.684  0.2616  0.1004 -0.0261
 3252W        W 5452  18.077   3.782  24.649  0.1113 -0.0290 -0.0722
 3253W        W 5453  21.394   1.693  24.990 -0.2107  0.0711  0.0595
 3254W        W 5454  20.014   3.627  27.197 -0.4706  0.1002 -0.1933
 3255W        W 5455  18.790   0.501  26.455  0.1223  0.1079  0.1972
 3256W        W 5456  12.397   1.111  14.441  0.3989  0.0800  0.0839
 3257W        W 5457  25.824   5.650  32.917 -0.0921  0.4945  0.0878
 3258W        W 5458  19.715   5.524  32.433  0.1225 -0.2212  0.0359
 3259W        W 5459  15.963   2.713   9.870  0.0487 -0.0408  0.2424
 3260W        W 5460  24.338   3.197  20.853 -0.2524 -0.0235 -0.1133
 3261W        W 5461   9.930   5.961  29.466 -0.1003 -0.1661 -0.1137
 3262W        W 5462   6.214   2.217  22.530  0.2259  0.2951 -0.1218
 3263W        W 5463   4.274   0.112  10.718 -0.1284  0.1383  0.0351
 3264W        W 5464   3.508   2.228   1.045  0.2429 -0.0473 -0.1883
 3265W        W 5465   1.475   5.406   4.845  0.2536 -0.2656 -0.0435
 3266W        W 5466  18.776   6.151   9.919  0.0086  0.3766  0.0395
 3267W        W 5467   1.086   2.842  11.933 -0.0473  0.0190 -0.0851
 3268W        W 5468  17.617   4.586  30.316 -0.0728  0.2656 -0.1234
 3269W        W 5469  23.134   2.037   5.556 -0.2580  0.0292  0.0563
 3270W        W 5470   5.144   6.447   3.071  0.2885 -0.2078  0.1159
 3271W        W 5471  23.392   3.990   6.874 -0.3229  0.0652 -0.2977
 3272W        W 5472   6.828   6.355   7.360 -0.0340  0.0598  0.2902
 3273W        W 5473  16.324   4.833  10.941  0.0970 -0.1351 -0.1507
 3274W        W 5474  19.119   1.229  27.099 -0.1054  0.2468  0.1250
 3275W        W 5475   5.281   1.277  24.454  0.1369 -0.1964 -0.0328
 3276W        W 5476  10.393   1.155  11.811  0.0505  0.2871  0.3568
 3277W        W 5477   8.526   1.859   5.395 -0.0288 -0.1291  0.0023
 3278W        W 5478   8.879   6.346  23.152 -0.0443 -0.0939 -0.0621
 3279W        W 5479  21.257   0.401   0.717 -0.2088  0.0325 -0.2141
 3280W        W 5480  19.903   5.421  23.054 -0.0389 -0.1224 -0.0552
 3281W        W 5481  24.950   1.591  25.425 -0.2828 -0.0421 -0.0289
 3282W        W 5482   5.400   5.237  29.018 -0.0743  0.1079  0.1411
 3283W        W 5483  22.329   0.032   1.593 -0.2249 -0.0295  0.0706
 3284W        W 5484  21.747   1.513  34.976  0.1794  0.3276  0.0510
 3285W        W 5485   0.278   4.801  13.160  0.0809  0.0084 -0.0728
 3286W        W 5486   7.837   3.006  23.300 -0.1135  0.4860 -0.0614
 3287W        W 5487  20.352   5.668  23.305  0.0933  0.2073  0.1152
 3288W        W 5488   7.932   2.064  10.343 -0.2012  0.0642  0.2345
 3289W        W 5489  14.701   3.641   6.288 -0.0153  0.4771 -0.1257
 3290W        W 5490   4.273   0.045  15.515 -0.1979  0.3178  0.1672
 3291W        W 5491  12.383   3.055  29.991  0.0409  0.0234  0.2210
 3292W        W 5492  26.379   1.263  20.644  0.1606  0.4406 -0.3370
 3293W        W 5493   9.976   3.806  28.532  0.0414  0.0742  0.1124
 3294W        W 5494  14.893   4.490   3.371 -0.0694 -0.0630 -0.0847
 3295W        W 5495   2.850   3.170  31.773  0.2501 -0.0625 -0.1047
 3296W        W 5496  13.684   5.438   0.548 -0.0841 -0.0540  0.0178
 3297W        W 5497  19.708   3.629  10.759  0.5464 -0.0819 -0.3373
 3298W        W 5498   6.750   6.545   0.224 -0.0668 -0.0953  0.1434
 3299W        W 5499  14.847   6.321  34.286 -0.1404  0.1169 -0.1054
 3300W        W 5500   4.792   0.432  25.437 -0.0898 -0.0161 -0.1988
 3301W        W 5501  20.056   2.343   9.268 -0.3970  0.0666  0.1664
 3302W        W 5502   1.413   3.999   1.506 -0.0894  0.1819  0.2943
 3303W        W 5503   9.634   1.790  24.766 -0.2698 -0.0150 -0.2383
 3304W        W 5504   1.317   6.556   8.226 -0.2409  0.0163  0.1077
 3305W        W 5505  16.441   6.227   0.964  0.0571 -0.0406 -0.1754
 3306W        W 5506  16.082   2.227  14.511  0.1660  0.1244  0.1138
 3307W        W 5507   8.100   5.395   1.407  0.1877 -0.2754  0.0295
 3308W        W 5508  17.380   2.072   8.435 -0.2008 -0.0931 -0.0118
 3309W        W 5509   4.190   5.315  35.492 -0.1000  0.0615  0.2950
 3310W        W 5510  25.193   5.477  24.707  0.1679 -0.0394  0.2705
 3311W        W 5511   7.876   5.250  15.794 -0.1983  0.1286  0.0602
 3312W        W 5512  19.164   0.773  23.012 -0.1671  0.0717  0.0749
 3313W        W 5513   8.286   5.007  35.734  0.2376  0.2061  0.3337
 3314W        W 5514  10.279   4.060   8.448 -0.1474  0.0022  0.0677
 3315W        W 5515  23.586   0.723  23.180 -0.1907  0.1939  0.3642
 3316W        W 5516  17.655   4.201  35.903  0.0067  0.2069  0.1027
 3317W        W 5517  21.419   5.039   7.448  0.2910  0.3356  0.0051
 3318W        W 5518  25.410   2.656   3.390  0.1604  0.0599 -0.2113
 3319W        W 5519  11.768   2.187  33.591  0.1233 -0.0511 -0.0106
 3320W        W 5520  20.914   5.046  23.367  0.0214  0.2758 -0.1015
 3321W        W 5521   5.250   0.816  29.260 -0.2092 -0.2460 -0.3046
 3322W        W 5522  22.961   5.358  24.001 -0.1240  0.0087 -0.0493
 3323W        W 5523  21.878   6.189  30.298  0.1500  0.0269 -0.0209
 3324W        W 5524  15.678   5.981  34.416 -0.2401 -0.0137  0.6771
 3325W        W 5525   4.226   2.786  33.803  0.0002  0.0162  0.0424
 3326W        W 5526  20.521   0.089  15.356 -0.2633 -0.1712 -0.2584
 3327W        W 5527   4.551   2.119   4.358  0.0627 -0.1952  0.0620
 3328W        W 5528   5.253   2.913  28.455 -0.4188  0.1285 -0.1987
 3329W        W 5529  13.614   0.961  14.268  0.1927  0.0716 -0.1355
 3330W        W 5530   6.139   5.955  30.418 -0.0565 -0.0782 -0.1198
 3331W        W 5531  16.869   6.542  20.908 -0.0614  0.0583  0.1448
 3332W        W 5532  20.603   2.796   7.547 -0.0190 -0.2292 -0.1320
 3333W        W 5533  20.860   3.657  13.346  0.3499  0.1229 -0.0759
 3334W        W 5534  24.924   0.988  30.373  0.1755 -0.2108 -0.0866
 3335W        W 5535   8.367   6.077   0.907  0.2502 -0.2547  0.0119
 3336W        W 5536  11.018   5.853  26.333 -0.0656  0.1555 -0.4103
 3337W        W 5537   9.533   3.598   5.433  0.1237 -0.0150 -0.0196
 3338W        W 5538   4.080   3.213  12.224 -0.1928 -0.0096  0.0125
 3339W        W 5539  13.830   0.629   1.213 -0.1603 -0.2564 -0.1824
 3340W        W 5540   4.377   4.559   2.345 -0.1724  0.0182  0.0524
 3341W        W 5541  17.907   5.841  24.270 -0.1111 -0.1551 -0.5676
 3342W        W 5542   4.993   1.270   8.177  0.1434  0.0647 -0.0003
 3343W        W 5543   5.185   2.444  35.243  0.0704 -0.1736  0.2765
 3344W        W 5544   2.771   4.013   1.656 -0.0187 -0.2428 -0.0727
 3345W        W 5545  23.917   3.611   7.513 -0.2243  0.1853 -0.3153
 3346W        W 5546   0.368   4.022   7.083  0.1688 -0.1992  0.1682
 3347W        W 5547  20.325   0.427  12.011  0.0289 -0.4087 -0.1876
 3348W        W 5548   3.240   5.971   6.064 -0.1245  0.2066 -0.0923
 3349W        W 5549  13.363   1.890  22.074 -0.0083  0.0474  0.0388
 3350W        W 5550  25.468   2.565  25.912 -0.2495  0.3124  0.0013
 3351W        W 5551   9.239   2.389   8.385 -0.0907 -0.1479 -0.0462
 3352W        W 5552  10.761   3.157   2.695 -0.2269  0.1177  0.0885
 3353W        W 5553  25.143   1.706  23.846  0.0183  0.2324 -0.1452
 3354W        W 5554  15.075   2.810   9.501  0.0433  0.2090 -0.0123
 3355W        W 5555  11.648   4.747  31.335 -0.2290 -0.0616  0.2208
 3356W        W 5556  24.398   4.071  26.595  0.0092 -0.0769  0.1342
 3357W        W 5557  16.313   3.787   8.656  0.0062  0.1387 -0.1375
 3358W        W 5558   7.693   6.044   8.606  0.0839 -0.0748  0.1064
 3359W        W 5559   3.330   6.333  22.368 -0.3000 -0.1801 -0.0484
 3360W        W 5560  20.606   5.469  24.624  0.1055 -0.2163 -0.2622
 3361W        W 5561  17.830   3.425   2.912 -0.1280 -0.0302  0.0860
 3362W        W 5562  21.311   2.987   1.102 -0.2233  0.2139 -0.1459
 3363W        W 5563   9.888   1.925   4.479  0.0097 -0.0877  0.1468
 3364W        W 5564  15.799   4.774   6.883  0.2377  0.1170  0.0135
 3365W        W 5565   7.548   0.861  15.399 -0.1262  0.1936 -0.1766
 3366W        W 5566  18.481   6.319  11.293 -0.1910  0.3119 -0.0432
 3367W        W 5567  11.272   2.536   1.483 -0.0839 -0.1474 -0.0716
 3368W        W 5568   7.418   5.462  29.731 -0.2812  0.0990  0.0279
 3369W        W 5569  16.555   0.218  11.368  0.1412 -0.3179 -0.1313
 3370W        W 5570   0.456   1.397  10.474 -0.1725  0.0179 -0.1290
 3371W        W 5571  17.424   5.508   5.405 -0.0364 -0.2548 -0.0130
 3372W        W 5572   5.157   5.612  21.085 -0.2657  0.2221  0.0905
 3373W        W 5573   6.700   4.220  21.898 -0.0791 -0.0420 -0.1814
 3374W        W 5574  18.467   3.955  12.803 -0.0994  0.0700 -0.0816
 3375W        W 5575  26.099   5.724  29.332 -0.2755 -0.4886  0.1630
 3376W        W 5576   8.332   0.536  28.341  0.0659  0.0810  0.0698
 3377W        W 5577   0.654   3.640   1.329  0.1706 -0.3008  0.1749
 3378W        W 5578  19.776   4.016  13.616  0.1437 -0.2006  0.0753
 3379W        W 5579   1.589   3.304  10.443  0.0545 -0.2330 -0.0473
 3380W        W 5580  13.579   6.243  23.064 -0.0116 -0.1272  0.0214
 3381W        W 5581   1.130   2.813  35.955  0.0945 -0.0834 -0.2583
 3382W        W 5582  12.952   0.907  15.012  0.5183  0.0510 -0.1201
 3383W        W 5583   5.063   5.392  29.335  0.0179 -0.2670  0.3599
 3384W        W 5584  10.547   5.492  31.317 -0.2570 -0.1287  0.0513
 3385W        W 5585   1.316   3.147  30.230  0.4238  0.2103  0.0184
 3386W        W 5586   3.564   6.291  20.983 -0.0117  0.0370  0.1112
 3387W        W 5587   5.071   6.500  31.702  0.3118  0.1166  0.3790
 3388W        W 5588  25.745   0.056  20.965  0.0791 -0.2588  0.1511
 3389W        W 5589   9.930   1.108   2.749 -0.2319 -0.0396  0.3190
 3390W        W 5590   9.700   0.247   4.040 -0.1526  0.1397  0.2360
 3391W        W 5591   2.620   3.318  23.459 -0.2349  0.0620  0.4780
 3392W        W 5592   1.059   5.448   7.004  0.0316  0.1421 -0.1192
 3393W        W 5593   3.850   4.677  31.829 -0.1756 -0.2463 -0.1008
 3394W        W 5594  21.034   5.227  27.129  0.2350  0.0131 -0.0689
 3395W        W 5595  15.039   6.477  23.998  0.2274  0.1576 -0.1386
 3396W        W 5596  18.983   6.602   3.453  0.2519  0.0321  0.0254
 3397W        W 5597  10.096   5.442  23.380 -0.0398  0.4126 -0.1487
 3398W        W 5598  10.558   6.035  14.677 -0.0149 -0.1784 -0.4019
 3399W        W 5599  26.109   3.839  27.858 -0.2722  0.0250 -0.1544
 3400W        W 5600   1.442   5.292  13.074  0.2627 -0.1467  0.0055
 3401W        W 5601  21.457   6.018   2.131 -0.0566 -0.1385 -0.0072
 3402W        W 5602  22.288   0.966  34.852 -0.0711  0.1396 -0.2274
 3403W        W 5603   1.739   0.922  35.927  0.3108 -0.0854 -0.0534
 3404W        W 5604  22.669   3.325  13.374 -0.1472  0.0766 -0.1049
 3405W        W 5605  10.148   3.170  23.585  0.0694 -0.0128  0.1506
 3406W        W 5606  23.708   3.038  30.070  0.1185 -0.2648  0.2478
 3407W        W 5607  22.831   4.447  26.007  0.1026  0.0859  0.1332
 3408W        W 5608  25.767   3.123  33.556 -0.1879 -0.0228  0.0289
 3409W        W 5609  24.644   5.053  21.220 -0.1324  0.0770  0.1151
 3410W        W 5610   5.689   6.381  32.972  0.1362 -0.0287  0.0020
 3411W        W 5611  23.799   0.027  11.962  0.1538  0.3055  0.1636
 3412W        W 5612   6.087   1.893   6.963 -0.1658 -0.2042  0.1172
 3413W        W 5613   9.833   2.145  23.255 -0.0656  0.2782 -0.1658
 3414W        W 5614  18.529   1.946   1.782  0.0085 -0.1077  0.1525
 3415W        W 5615   8.911   3.193  14.951 -0.1661  0.2026  0.2709
 3416W        W 5616  11.796   4.484   1.104  0.2618 -0.0907 -0.0136
 3417W        W 5617  21.366   5.012  29.388  0.0592 -0.0779 -0.0171
 3418W        W 5618   1.151   1.711  26.394 -0.1988  0.1959 -0.0170
 3419W        W 5619   1.086   5.149  29.344  0.1276 -0.1920  0.1820
 3420W        W 5620   9.725   3.405  22.439 -0.1065  0.0447 -0.3771
 3421W        W 5621  20.830   3.639  10.926 -0.1386 -0.1719 -0.1771
 3422W        W 5622  10.999   3.897   9.539  0.0106 -0.1443 -0.0512
 3423W        W 5623  15.999   0.280  10.495 -0.2846  0.0542 -0.1682
 3424W        W 5624  26.294   4.785  34.202  0.0081  0.1036 -0.0510
 3425W        W 5625  12.231   3.837  35.473  0.0559  0.4369  0.2905
 3426W        W 5626  17.109   0.024   9.802 -0.2474  0.1313 -0.1313
 3427W        W 5627  14.876   1.707  28.720  0.1341  0.0209 -0.2298
 3428W        W 5628  16.653   2.277   9.965  0.3286  0.0454 -0.1600
 3429W        W 5629  12.921   6.082  11.855 -0.2514 -0.3321 -0.1352
 3430W        W 5630  21.057   1.606  27.984 -0.1616  0.2013 -0.0330
 3431W        W 5631  13.412   2.192   2.313  0.2658  0.1536 -0.1078
 3432W        W 5632  23.328   0.826  20.281 -0.0379 -0.0264  0.0728
 3433W        W 5633   6.446   1.719  13.279  0.0636  0.0578 -0.0573
 3434W        W 5634  15.298   4.307  21.163 -0.2743 -0.1648 -0.1915
 3435W        W 5635   3.751   2.601  22.053  0.2495  0.0382  0.0824
 3436W        W 5636  16.479   2.795  31.935 -0.2645  0.1058  0.0796
 3437W        W 5637  26.102   6.435  10.352  0.1528 -0.0599  0.1987
 3438W        W 5638  21.398   5.296  25.770 -0.0072 -0.1762  0.0677
 3439W        W 5639   3.496   0.871   7.137  0.2162  0.1416 -0.0338
 3440W        W 5640  14.647   4.217  33.716  0.3107 -0.0730 -0.0397
 3441W        W 5641  23.829   0.966  35.509 -0.3535 -0.2665  0.0451
 3442W        W 5642   3.589   5.187  26.959  0.1092  0.0255 -0.2772
 3443W        W 5643  13.915   3.311  21.112 -0.1091  0.0199  0.0892
 3444W        W 5644  15.680   5.795   9.949 -0.2964 -0.0164 -0.2063
 3445W        W 5645  23.657   4.337  24.043  0.1390  0.0175  0.1208
 3446W        W 5646   5.814   3.688  24.145 -0.1485 -0.0037 -0.2174
 3447W        W 5647  13.250   3.503  13.816 -0.3519  0.0255 -0.1626
 3448W        W 5648  25.356   4.071  36.182  0.0794  0.2377 -0.1702
 3449W        W 5649  21.218   1.515  35.677  0.0784 -0.2523 -0.2518
 3450W        W 5650  13.136   4.998   3.129 -0.1630  0.1732  0.1843
 3451W        W 5651   0.521   2.958   2.049 -0.2625 -0.2084  0.2092
 3452W        W 5652   1.096   1.333  12.429 -0.0546 -0.1455 -0.1282
 3453W        W 5653   5.969   3.192  24.391 -0.2574  0.3190  0.0544
 3454W        W 5654   2.165   5.691   7.958  0.0099 -0.1618  0.0263
 3455W        W 5655  22.645   6.005  10.904 -0.0239  0.2240 -0.0481
 3456W        W 5656  25.888   2.540  32.921 -0.1906 -0.0553 -0.0478
 3457W        W 5657  14.455   1.817  23.469  0.4312 -0.1780  0.0606
 3458W        W 5658  22.085   0.572   2.166 -0.0587 -0.2643 -0.0210
 3459W        W 5659  24.156   5.025  10.043 -0.1597 -0.1943  0.4386
 3460W        W 5660  23.840   5.719   3.775  0.0380 -0.0524 -0.0222
 3461W        W 5661  14.642   6.232  23.458  0.1612 -0.0480 -0.2500
 3462W        W 5662   9.983   5.242  14.396 -0.3861  0.1540 -0.0025
 3463W        W 5663   0.973   4.997  22.803  0.1302  0.0585  0.2408
 3464W        W 5664  12.214   2.374  33.851  0.0019 -0.0513 -0.0490
 3465W        W 5665  26.119   2.042  24.381 -0.0340 -0.1241  0.2324
 3466W        W 5666  19.012   4.187  14.112  0.3801 -0.1922  0.1565
 3467W        W 5667  19.308   6.495  34.927  0.2624  0.1208  0.0039
 3468W        W 5668  16.900   4.251  26.394 -0.0441 -0.0729  0.0490
 3469W        W 5669  11.373   0.669  26.374  0.0686 -0.0528  0.0456
 3470W        W 5670  10.584   3.277  13.066  0.2171  0.1109 -0.1822
 3471W        W 5671   5.208   4.523  14.489  0.1028 -0.0334 -0.1053
 3472W        W 5672  15.399   1.011   5.587 -0.0667  0.4941  0.0483
 3473W        W 5673  23.699   6.056  26.991  0.2499  0.0956  0.0039
 3474W        W 5674   8.253   2.637  33.762  0.1014  0.1300  0.1576
 3475W        W 5675  18.387   6.471  33.717  0.1265  0.1795 -0.0802
 3476W        W 5676   6.628   0.884   4.517 -0.1845 -0.2034 -0.3821
 3477W        W 5677  24.635   2.370  27.431  0.0326 -0.1256  0.0924
 3478W        W 5678  16.797   5.058  28.537  0.1097 -0.2752 -0.2303
 3479W        W 5679   7.185   3.769  10.699  0.1548  0.1533  0.0113
 3480W        W 5680   6.881   1.652   5.311 -0.0720 -0.4132  0.1632
 3481W        W 5681   9.796   3.169   3.327  0.1059 -0.2379 -0.1117
 3482W        W 5682  14.450   0.613  26.255  0.0041  0.1295 -0.1696
 3483W        W 5683   3.733   6.279  29.732 -0.1381 -0.0118 -0.1133
 3484W        W 5684  13.741   6.447  23.476  0.2047  0.2663 -0.0881
 3485W        W 5685   6.334   3.064   0.176  0.2117 -0.1329  0.4592
 3486W        W 5686  10.292   0.361  34.506  0.0410 -0.0653 -0.0388
 3487W        W 5687  24.266   4.692  25.074 -0.0201 -0.0082 -0.0736
 3488W        W 5688  25.648   0.909   4.307 -0.0166  0.3193 -0.0769
 3489W        W 5689  13.822   5.193   5.661 -0.2950 -0.0099 -0.0565
 3490W        W 5690  17.907   6.491  33.493 -0.2423 -0.1452  0.0614
 3491W        W 5691  25.775   0.874  14.503 -0.2893 -0.2944 -0.2328
 3492W        W 5692  25.980   2.322  26.905  0.0171 -0.1965  0.0503
 3493W        W 5693  12.414   2.853  11.985  0.1856  0.6411  0.0704
 3494W        W 5694   6.357   0.293   1.587  0.2146  0.1960 -0.5885
 3495W        W 5695   4.143   5.990  35.509  0.1015  0.1314 -0.0376
 3496W        W 5696  14.421   0.956  35.047 -0.1362  0.0111  0.0965
 3497W        W 5697   5.998   3.056  25.264  0.0791  0.2674 -0.4249
 3498W        W 5698   8.310   4.471  23.994 -0.0047  0.0076  0.0108
 3499W        W 5699  19.365   4.365  35.419  0.0119 -0.0103  0.0666
 3500W        W 5700   7.276   5.405  24.610  0.1856 -0.1361 -0.0768
 3501W        W 5701  24.956   5.433  11.893 -0.1756 -0.3539 -0.1560
 3502W        W 5702  11.237   2.858  24.461  0.0365 -0.1307 -0.2744
 3503W        W 5703  25.720   4.449  28.396 -0.0575  0.0755 -0.1212
 3504W        W 5704   5.740   0.055   5.849 -0.0368  0.0871  0.0896
 3505W        W 5705   8.611   2.984   8.936  0.0245  0.4275 -0.2866
 3506W        W 5706   6.491   3.930   6.224 -0.0024 -0.0518 -0.0421
 3507W        W 5707   7.296   2.315   1.166  0.4816 -0.0894  0.3561
 3508W        W 5708  19.448   4.790  26.629  0.0136 -0.1704 -0.0668
 3509W        W 5709  19.574   0.062  26.357  0.3499  0.0030  0.0520
 3510W        W 5710  24.916   5.505  34.422  0.0296 -0.1301  0.1428
 3511W        W 5711  23.019   5.707  29.726 -0.0468  0.0411  0.1156
 3512W        W 5712  18.581   4.915  12.458 -0.0314  0.1519  0.2362
 3513W        W 5713   4.414   3.620  11.269 -0.3234 -0.0197  0.1537
 3514W        W 5714  16.057   5.269  11.734 -0.0628 -0.1463  0.0896
 3515W        W 5715  18.408   3.312  34.281  0.0181 -0.0934  0.0112
 3516W        W 5716   3.435   1.719  30.628  0.0965  0.0857  0.0570
 3517W        W 5717   0.040   2.029  21.173 -0.0040 -0.2150 -0.0766
 3518W        W 5718   8.890   5.247  30.882 -0.2856  0.1007 -0.1244
 3519W        W 5719   4.748   0.296   0.846 -0.1219  0.0240  0.2924
 3520W        W 5720  14.033   0.252   6.057  0.0103  0.2758 -0.2765
 3521W        W 5721   9.132   0.771  13.485 -0.1514 -0.0231  0.0741
 3522W        W 5722   9.472   5.066  35.533 -0.0282 -0.0559 -0.3047
 3523W        W 5723  18.060   4.850  10.682  0.1735  0.0614 -0.0280
 3524W        W 5724  12.024   5.109  22.875 -0.1779  0.2142 -0.1551
 3525W        W 5725  10.357   3.728   7.884  0.0873 -0.1478 -0.0068
 3526W        W 5726  24.032   4.569   8.247  0.3597  0.0883 -0.2805
 3527W        W 5727   5.661   0.659   2.030 -0.2260  0.0992  0.0852
 3528W        W 5728  14.194   1.663   6.216  0.0096  0.0226  0.0382
 3529W        W 5729  24.009   1.761  15.397 -0.0594 -0.0608 -0.2533
 3530W        W 5730   5.954   4.278  25.850  0.3578 -0.1698  0.0236
 3531W        W 5731  17.104   3.105   5.592 -0.2024  0.1106  0.0260
 3532W        W 5732  26.311   2.901  13.860  0.0112  0.0799  0.1860
 3533W        W 5733  23.723   0.198   8.774  0.0585 -0.2247  0.1490
 3534W        W 5734   4.032   3.567   9.904 -0.2205  0.0316  0.1631
 3535W        W 5735   5.949   3.501  23.006 -0.2386 -0.1153  0.2037
 3536W        W 5736  19.631   4.947  25.343  0.1325 -0.1598  0.0847
 3537W        W 5737  25.727   0.940  26.504  0.1534 -0.0446 -0.3367
 3538W        W 5738  16.045   6.267   8.414 -0.3806 -0.0586 -0.0490
 3539W        W 5739  26.100   6.025   8.354  0.1213  0.0797 -0.0553
 3540W        W 5740  10.494   1.361  22.347  0.0028 -0.3401 -0.1435
 3541W        W 5741  15.913   2.720  32.806  0.1099 -0.0537 -0.0857
 3542W        W 5742  10.925   5.239   5.738 -0.0729 -0.0558 -0.2367
 3543W        W 5743  16.452   1.841  36.080 -0.3160 -0.0317  0.0027
 3544W        W 5744  17.047   0.740  35.247  0.1368  0.2866 -0.3203
 3545W        W 5745  22.865   6.573  22.423  0.2414  0.1120  0.0620
 3546W        W 5746   9.051   4.700  15.724  0.0557  0.0957 -0.0496
 3547W        W 5747  11.135   6.209  33.073  0.0365  0.1750  0.0641
 3548W        W 5748  20.351   4.122   4.906 -0.1676 -0.1894  0.3922
 3549W        W 5749  11.198   4.123  34.971 -0.1228 -0.1043  0.0168
 3550W        W 5750   6.571   3.486  13.477  0.0917 -0.2648  0.0386
 3551W        W 5751   3.159   1.769  32.124 -0.1595  0.0165  0.1608
 3552W        W 5752  16.947   0.291  27.532  0.0655 -0.0584 -0.0449
 3553W        W 5753  18.873   6.550   6.514 -0.0538  0.1210 -0.0756
 3554W        W 5754  18.492   3.939  10.864 -0.0546 -0.0391 -0.1241
 3555W        W 5755  24.040   4.106  12.508  0.1421 -0.0119 -0.2303
 3556W        W 5756  10.270   2.718  13.840  0.2414  0.2228 -0.3011
 3557W        W 5757   2.456   2.476   8.792 -0.2086 -0.0912 -0.1424
 3558W        W 5758   2.699   3.927  35.974 -0.3847  0.1506  0.0834
 3559W        W 5759  23.933   1.644  31.759 -0.1765  0.1320  0.0237
 3560W        W 5760   4.271   2.053  30.851 -0.1740  0.1507  0.2856
 3561W        W 5761  22.968   5.972   4.643  0.2163  0.0130 -0.2440
 3562W        W 5762   0.399   5.289  24.574 -0.1587 -0.0319 -0.1600
 3563W        W 5763  12.688   5.732  35.449 -0.2409 -0.2632 -0.2209
 3564W        W 5764  19.859   6.533  28.971 -0.0455  0.0433  0.1926
 3565W        W 5765  17.600   2.772   7.010 -0.2819 -0.2064  0.1388
 3566W        W 5766   8.469   1.789  34.839 -0.0909 -0.0951 -0.0271
 3567W        W 5767   1.168   4.893   1.363 -0.0331  0.0409 -0.3403
 3568W        W 5768  11.613   6.380  30.498 -0.1496  0.0767  0.1337
 3569W        W 5769  17.765   0.501   6.921 -0.0700  0.1145 -0.3557
 3570W        W 5770   1.737   5.907  22.160  0.3744  0.0442  0.2983
 3571W        W 5771   5.204   1.827  34.069 -0.0573  0.0781  0.0561
 3572W        W 5772   7.723   2.019  21.002 -0.1880 -0.2554 -0.2689
 3573W        W 5773  16.754   0.551  14.131 -0.2332 -0.1669  0.2985
 3574W        W 5774   3.083   6.186   0.566  0.0639 -0.1999  0.2913
 3575W        W 5775   3.843   5.445  28.470  0.4030  0.3894 -0.1442
 3576W        W 5776   2.954   2.395   5.024 -0.0565 -0.1161  0.0271
 3577W        W 5777  10.520   5.352   3.759  0.0202 -0.1402 -0.0235
 3578W        W 5778  10.922   5.072  11.151  0.2073  0.0535  0.0684
 3579W        W 5779  20.789   3.184  24.098  0.0462 -0.0168 -0.1992
 3580W        W 5780   4.405   3.711   1.090  0.0941  0.2962 -0.0666
 3581W        W 5781   5.790   2.105  31.070 -0.2650 -0.0020  0.0262
 3582W        W 5782  21.140   0.744  14.299  0.2401  0.0451  0.0779
 3583W        W 5783   0.913   2.988  29.918 -0.2904 -0.1041 -0.0318
 3584W        W 5784  19.512   2.686  14.729 -0.2650 -0.1651  0.1218
 3585W        W 5785  25.439   1.047  12.906 -0.2626  0.0276  0.1852
 3586W        W 5786  22.545   5.023  34.703  0.1756 -0.3454  0.0456
 3587W        W 5787  26.141   0.750  25.796  0.0633 -0.2150  0.1082
 3588W        W 5788   1.913   4.771   8.133 -0.1828 -0.0851  0.1391
 3589W        W 5789  17.942   6.568  12.519 -0.0305 -0.0580 -0.2622
 3590W        W 5790  17.872   4.700  25.512  0.2565  0.1206 -0.2233
 3591W        W 5791  14.066   4.571   3.039 -0.0544  0.0644  0.1731
 3592W        W 5792  23.146   2.417   1.064  0.0978  0.2050  0.1360
 3593W        W 5793   4.110   2.385  34.234  0.0108  0.3602  0.1693
 3594W        W 5794   7.273   0.421  24.467  0.0719 -0.0685  0.2691
 3595W        W 5795  17.537   0.368  13.485  0.2173  0.0285 -0.0641
 3596W        W 5796   4.649   3.513  21.948  0.1131  0.1776 -0.1032
 3597W        W 5797   5.480   5.628   5.020  0.1966  0.1721  0.1310
 3598W        W 5798  10.319   3.174  12.453  0.0453  0.1231 -0.0752
 3599W        W 5799   2.240   5.926  23.857 -0.2635  0.2229  0.2059
 3600W        W 5800   7.163   3.137  22.739 -0.2545 -0.2853 -0.1882
 3601W        W 5801  15.060   3.470  35.287 -0.1047  0.2227  0.1097
 3602W        W 5802  12.990   4.477  21.109 -0.1167 -0.0478  0.2918
 3603W        W 5803  15.349   6.077  12.457 -0.4656  0.0021  0.1179
 3604W        W 5804  12.409   4.945   9.531  0.1390  0.0428 -0.3770
 3605W        W 5805  18.734   5.506   5.017  0.1024 -0.0600 -0.1554
 3606W        W 5806  11.454   1.074   7.777 -0.0771  0.1063 -0.0072
 3607W        W 5807   1.804   3.227  21.457  0.4342 -0.0208 -0.1121
 3608W        W 5808  23.126   3.780   2.835  0.0013 -0.0944  0.0777
 3609W        W 5809  17.180   5.558  31.870  0.0797 -0.0256 -0.0984
 3610W        W 5810  25.477   3.780  31.736  0.0159  0.1267  0.1451
 3611W        W 5811  13.971   0.158  24.904  0.0046 -0.0943  0.1690
 3612W        W 5812  13.024   1.984  13.401  0.2212  0.2041  0.1905
 3613W        W 5813  11.920   0.522  10.609 -0.1108 -0.0493  0.3649
 3614W        W 5814   7.767   2.755  33.623 -0.2986 -0.0108  0.0505
 3615W        W 5815   1.485   4.717  22.768 -0.0001 -0.2484  0.0211
 3616W        W 5816  20.826   6.150   1.618 -0.0360 -0.2102  0.3391
 3617W        W 5817  23.686   3.966   6.432  0.0287 -0.0775  0.1696
 3618W        W 5818   9.418   3.257  33.665  0.0547  0.1195  0.5878
 3619W        W 5819  15.803   2.437  13.687  0.1195 -0.2507 -0.1793
 3620W        W 5820  23.352   3.305   5.745 -0.4117 -0.2614 -0.2333
 3621W        W 5821   8.648   3.603  26.198 -0.0674 -0.2067  0.3740
 3622W        W 5822  22.697   1.130   3.987 -0.1542  0.0780 -0.1677
 3623W        W 5823  23.977   0.696   5.769  0.2064 -0.1875  0.1869
 3624W        W 5824   2.552   1.165   7.353 -0.2920  0.0286  0.0311
 3625W        W 5825  15.166   2.926   7.438  0.2107 -0.1590 -0.0725
 3626W        W 5826   0.783   3.412  22.724 -0.1193  0.1452 -0.2644
 3627W        W 5827  26.343   3.827  30.546  0.2005 -0.0774  0.0596
 3628W        W 5828  12.274   5.562   0.492 -0.1011 -0.2787  0.1181
 3629W        W 5829  13.332   4.083   1.524 -0.0578  0.0074 -0.1317
 3630W        W 5830  15.075   1.984  11.879  0.3691  0.1450  0.0854
 3631W        W 5831   0.814   3.566   6.157  0.1502  0.0828  0.1170
 3632W        W 5832   2.064   0.015  13.853 -0.1089 -0.0578 -0.1957
 3633W        W 5833  14.238   1.204  26.746 -0.2179  0.0754 -0.0819
 3634W        W 5834  13.166   4.840  32.147  0.0311 -0.0460 -0.1394
 3635W        W 5835   1.570   4.286  36.116  0.0938 -0.4671 -0.0340
 3636W        W 5836   1.058   0.764  11.888  0.2288  0.0393  0.1379
 3637W        W 5837   2.613   2.375  25.976  0.2897  0.1022 -0.0791
 3638W        W 5838  12.663   1.527   2.983  0.1047  0.0715  0.1397
 3639W        W 5839  12.248   3.442  28.268 -0.2397 -0.0583  0.0617
 3640W        W 5840   0.585   0.045  24.263  0.1485 -0.2308 -0.1699
 3641W        W 5841  21.769   5.703  26.788 -0.1122 -0.0877  0.1418
 3642W        W 5842   8.065   3.209  23.692  0.2379  0.0349 -0.1564
 3643W        W 5843  18.587   4.938  31.892 -0.2148  0.3660 -0.2280
 3644W        W 5844  11.659   2.403  10.751 -0.0123  0.0866 -0.1566
 3645W        W 5845   3.096   6.213  15.058  0.0865  0.0615 -0.3604
 3646W        W 5846   9.976   3.043  30.010 -0.0730 -0.2788 -0.0443
 3647W        W 5847  14.563   3.801  20.366  0.4672  0.0805  0.0509
 3648W        W 5848  23.941   1.775   1.880  0.1142  0.0035 -0.3316
 3649W        W 5849  26.317   1.157  28.336  0.1205  0.0972  0.1252
 3650W        W 5850  21.696   5.260  22.421  0.0747  0.0400 -0.0972
 3651W        W 5851  10.766   3.896  11.126  0.1098  0.0961 -0.2039
 3652W        W 5852   0.711   1.696  23.854  0.0733 -0.2852 -0.0305
 3653W        W 5853  12.648   5.927  27.784 -0.1269  0.4290  0.0718
 3654W        W 5854  15.113   1.438   4.873 -0.1036 -0.0580  0.2610
 3655W        W 5855   3.020   1.117  30.394  0.0776  0.2554 -0.0900
 3656W        W 5856  14.903   3.951  13.225  0.1867  0.1101 -0.0363
 3657W        W 5857   6.985   1.681  33.311 -0.3193  0.0994 -0.2615
 3658W        W 5858  10.650   4.779   9.008 -0.0587 -0.2736  0.1404
 3659W        W 5859  14.912   3.577  14.115 -0.1368  0.0436  0.2568
 3660W        W 5860   1.087   5.634  33.954  0.1060  0.0022 -0.1038
 3661W        W 5861   3.560   5.745   1.778  0.3093  0.1137 -0.0534
 3662W        W 5862   2.875   5.093   2.439 -0.1219  0.1817 -0.2075
 3663W        W 5863   2.182   5.639  12.573  0.0948 -0.1383  0.1618
 3664W        W 5864  11.436   1.523  27.342 -0.3724  0.4723  0.0577
 3665W        W 5865  25.619   1.871  23.857 -0.2209  0.2093 -0.2188
 3666W        W 5866  23.239   2.685  35.143  0.0253  0.3748 -0.2315
 3667W        W 5867   7.226   5.955   2.948 -0.2643  0.0400 -0.3454
 3668W        W 5868  11.142   1.152  12.892 -0.0620 -0.1192 -0.0929
 3669W        W 5869   6.858   2.350  26.558 -0.0359 -0.0907 -0.0930
 3670W        W 5870  19.241   1.083   8.470  0.0248 -0.1405  0.0904
 3671W        W 5871  25.498   0.482  26.654  0.2961 -0.0434 -0.0644
 3672W        W 5872  12.653   4.353   0.169 -0.1927  0.0346 -0.1575
 3673W        W 5873   4.798   0.981   6.468 -0.2235 -0.1212  0.2244
 3674W        W 5874  20.405   2.810  11.508  0.1761 -0.0346  0.1196
 3675W        W 5875   3.823   6.042  11.219  0.1305 -0.0520 -0.2776
 3676W        W 5876  20.461   4.533  26.111  0.0731  0.1221  0.1877
 3677W        W 5877  14.673   1.971   8.099 -0.0662 -0.3268 -0.1149
 3678W        W 5878  10.125   5.725   5.300  0.2001  0.2157 -0.0178
 3679W        W 5879   3.413   4.143  21.757 -0.0220 -0.0888  0.2304
 3680W        W 5880   9.058   3.041   0.729 -0.0936  0.0191  0.0043
 3681W        W 5881  14.388   5.800   9.109  0.1084 -0.0846 -0.1183
 3682W        W 5882  10.464   2.424  11.712  0.4073  0.1313 -0.0398
 3683W        W 5883  26.195   2.367  30.670 -0.1768  0.1700  0.1456
 3684W        W 5884   0.144   3.833   2.136  0.1898 -0.0122 -0.2348
 3685W        W 5885   2.859   2.972   6.880  0.3536 -0.0312 -0.0465
 3686W        W 5886  19.212   2.808   1.508  0.2660 -0.0876 -0.2241
 3687W        W 5887  24.506   4.442  30.649 -0.0804  0.2611 -0.1181
 3688W        W 5888  18.467   2.933   7.421 -0.1593  0.3590  0.1623
 3689W        W 5889   6.022   3.101  22.474  0.0871 -0.1519 -0.1596
 3690W        W 5890  11.983   0.461   8.688 -0.0327 -0.0619  0.0008
 3691W        W 5891  16.658   1.600   3.626  0.3235  0.0990 -0.0098
 3692W        W 5892   8.186   4.112  28.137 -0.0303 -0.1089  0.1156
 3693W        W 5893   8.521   1.886   3.267  0.2125  0.1609 -0.0450
 3694W        W 5894  25.054   6.599   1.788 -0.3557  0.3182  0.0284
 3695W        W 5895  21.594   0.408  31.378 -0.0038  0.3098  0.0898
 3696W        W 5896  12.434   0.349  29.699  0.5150 -0.0700 -0.0949
 3697W        W 5897   8.643   4.236  27.942  0.1580 -0.0510  0.1233
 3698W        W 5898   6.570   2.574  35.052 -0.1729  0.1108 -0.2769
 3699W        W 5899  15.652   3.580   7.859 -0.1140  0.0587 -0.4550
 3700W        W 5900  23.759   5.461  25.135  0.0437 -0.1678  0.1635
 3701W        W 5901   6.545   3.963  34.369 -0.1199  0.2876  0.0102
 3702W        W 5902   1.017   5.426   3.391 -0.0613  0.1425  0.3833
 3703W        W 5903  14.740   2.231  23.350 -0.2092  0.1110  0.0168
 3704W        W 5904  14.861   0.043   6.902 -0.1480  0.1238 -0.4791
 3705W        W 5905  20.074   3.331  22.858  0.0099  0.2947  0.2601
 3706W        W 5906  23.040   5.042  12.952  0.1078 -0.0280 -0.0305
 3707W        W 5907  19.934   1.533   4.993 -0.2576  0.0197  0.2184
 3708W        W 5908  16.299   2.677  12.921 -0.1689 -0.1203  0.0442
 3709W        W 5909   5.330   4.075   5.486 -0.1369  0.2975  0.0067
 3710W        W 5910   9.285   2.859  23.256  0.1115  0.2450 -0.0174
 3711W        W 5911  13.238   0.065  30.891  0.0086  0.2859 -0.3036
 3712W        W 5912  24.105   6.369  11.455 -0.0942  0.0352  0.0892
 3713W        W 5913   9.144   5.689   6.047  0.2675  0.1320  0.0349
 3714W        W 5914   8.290   2.593  11.063  0.0383 -0.5558  0.0608
 3715W        W 5915   7.370   5.573  14.677  0.1205  0.1524  0.1597
 3716W        W 5916  14.268   2.356  29.882  0.1683  0.1388  0.0718
 3717W        W 5917   1.432   4.687   2.961  0.0524 -0.0864 -0.2071
 3718W        W 5918   5.291   6.200   4.956 -0.0195 -0.0217  0.3673
 3719W        W 5919   1.275   6.595  14.767  0.1164  0.1476 -0.0524
 3720W        W 5920   0.649   5.606  11.361 -0.1288 -0.0487 -0.0852
 3721W        W 5921   3.013   6.423  31.051  0.2654 -0.1494 -0.0651
 3722W        W 5922   5.648   0.109   2.839  0.0568  0.1834 -0.0861
 3723W        W 5923   2.911   5.250  35.605 -0.2991 -0.1970 -0.4584
 3724W        W 5924   8.926   0.971  26.067  0.0913  0.3082 -0.1468
 3725W        W 5925  10.942   2.502  10.689  0.0247 -0.1126  0.3371
 3726W        W 5926  21.244   6.450   8.036  0.2331  0.0735  0.1207
 3727W        W 5927  18.705   0.156  13.880 -0.1031 -0.0705  0.2865
 3728W        W 5928  23.132   1.968   4.984  0.2967 -0.2184  0.1810
 3729W        W 5929   7.996   2.687  24.334 -0.2295 -0.1685 -0.0484
 3730W        W 5930  23.713   4.866  10.693  0.0785  0.0736 -0.1264
 3731W        W 5931  13.985   3.037   5.270 -0.0801  0.0487  0.0939
 3732W        W 5932   5.798   1.490  10.218  0.0869  0.1021  0.1573
 3733W        W 5933   6.893   3.501  24.754  0.4158 -0.1218  0.2045
 3734W        W 5934  12.171   5.677  27.920 -0.3631 -0.0546  0.0641
 3735W        W 5935   6.063   5.556   4.966  0.2444  0.2043 -0.0352
 3736W        W 5936  24.917   3.984  23.141  0.4204  0.2570  0.0651
 3737W        W 5937  16.222   1.776   6.515  0.1714  0.1752  0.0050
 3738W        W 5938   4.829   3.944  34.014 -0.0151 -0.1970  0.0146
 3739W        W 5939  23.098   1.460  30.567  0.2214  0.1875 -0.0724
 3740W        W 5940   1.385   2.194   0.245  0.1275  0.0234  0.2923
 3741W        W 5941   0.551   3.977   0.936 -0.0473 -0.1274  0.0468
 3742W        W 5942  17.854   2.274   9.323 -0.1228  0.1979  0.2259
 3743W        W 5943   4.553   0.476   1.560  0.2036 -0.1596 -0.0838
 3744W        W 5944  14.406   5.099   1.556 -0.4578 -0.1993  0.1039
 3745W        W 5945  18.513   3.563  24.583  0.0475 -0.1157 -0.1343
 3746W        W 5946   5.806   6.234  29.067  0.1836  0.1427  0.0050
 3747W        W 5947   0.121   4.301   2.240  0.0876 -0.1883 -0.2153
 3748W        W 5948  21.222   6.438   3.261 -0.0209 -0.0066 -0.1044
 3749W        W 5949  24.563   5.076  36.013  0.1177 -0.2650  0.0441
 3750W        W 5950  20.176   4.507  14.080 -0.3855 -0.1251 -0.1236
 3751W        W 5951   7.585   0.853  23.652 -0.2491 -0.2904  0.0748
 3752W        W 5952  15.673   0.739   5.292 -0.0140  0.1406 -0.1417
 3753W        W 5953  18.811   0.961  25.120  0.0742  0.0144 -0.1538
 3754W        W 5954  14.157   2.509  32.116  0.0568  0.0622  0.2298
 3755W        W 5955  25.445   5.763  27.652 -0.3370  0.1198 -0.0375
 3756W        W 5956   1.190   2.615  33.779  0.3175  0.0271 -0.0107
 3757W        W 5957  11.879   2.303   6.684 -0.1069 -0.0141  0.0259
 3758W        W 5958   6.946   4.049   7.369  0.0303 -0.2831 -0.0092
 3759W        W 5959   8.027   0.960  15.306 -0.1580  0.1709 -0.1701
 3760W        W 5960  19.133   4.863   7.686  0.0480  0.0970 -0.0447
 3761W        W 5961   0.623   2.465  28.598  0.1040 -0.0779 -0.0991
 3762W        W 5962   0.093   5.606  10.220  0.0066 -0.1312  0.0128
 3763W        W 5963  23.544   5.253  32.354  0.1537  0.0506 -0.0186
 3764W        W 5964  21.023   2.968   2.541 -0.1248  0.1488  0.0979
 3765W        W 5965  12.666   0.551  31.138  0.0597 -0.1996  0.0408
 3766W        W 5966  19.551   5.035  35.799  0.5300 -0.3607  0.0380
 3767W        W 5967   0.910   4.051   4.140  0.0055 -0.2145  0.2527
 3768W        W 5968   3.823   2.505  28.131  0.2804  0.1250  0.0188
 3769W        W 5969  24.780   2.604  14.026  0.0488 -0.2133 -0.1549
 3770W        W 5970  25.115   4.773  27.737 -0.1239 -0.2295 -0.0639
 3771W        W 5971  13.560   2.776  10.653  0.2185  0.1669  0.2336
 3772W        W 5972   4.946   4.442  30.215  0.1453 -0.2642 -0.1482
 3773W        W 5973  20.317   6.009  21.230  0.0558 -0.2141 -0.3193
 3774W        W 5974  13.813   4.880  23.415  0.1175  0.0659 -0.1909
 3775W        W 5975   4.608   6.513   6.304 -0.0929  0.1686  0.2157
 3776W        W 5976  21.030   4.310  32.892 -0.0956  0.0406 -0.2895
 3777W        W 5977   5.183   0.838  33.193 -0.3347 -0.1797 -0.1552
 3778W        W 5978   5.257   6.403  24.736  0.0806 -0.0130  0.2040
 3779W        W 5979  17.258   4.356  24.491 -0.0672 -0.1751  0.0466
 3780W        W 5980  20.812   3.037   3.257 -0.1496  0.0975  0.1859
 3781W        W 5981  25.796   5.086   3.238  0.2111  0.1143  0.0555
 3782W        W 5982  10.112   4.262  15.568 -0.0050 -0.0692  0.2423
 3783W        W 5983  15.223   0.004  25.988 -0.0401  0.3283 -0.2952
 3784W        W 5984  13.983   1.754  22.259  0.2122  0.1226  0.1203
 3785W        W 5985   4.499   6.319  23.478  0.1475  0.1650  0.2314
 3786W        W 5986  15.062   0.551  30.933  0.0321  0.0833  0.1407
 3787W        W 5987  21.792   0.987  26.557 -0.0332 -0.0457  0.1064
 3788W        W 5988   6.504   2.047  12.866 -0.1303 -0.0798 -0.1456
 3789W        W 5989  14.852   3.168  11.551 -0.0530 -0.0966  0.3321
 3790W        W 5990  15.511   1.801  15.096 -0.1952 -0.0002  0.4566
 3791W        W 5991  21.545   5.933  12.625  0.0195  0.0974 -0.0688
 3792W        W 5992  16.871   3.504  28.459 -0.0062  0.0367 -0.3702
 3793W        W 5993  24.339   3.822  21.326  0.2147  0.2079 -0.0304
 3794W        W 5994  26.376   4.285  10.224 -0.4333  0.0860  0.1697
 3795W        W 5995   7.513   6.600   4.352  0.0458  0.0178 -0.0690
 3796W        W 5996   7.790   4.510   1.696  0.0076  0.0431  0.1803
 3797W        W 5997  17.422   2.693  22.900 -0.0185  0.0236  0.3514
 3798W        W 5998  11.912   0.306  34.889  0.0629 -0.0609 -0.0434
 3799W        W 5999   8.531   3.408  30.073  0.1317  0.0238 -0.2548
 3800W        W 6000  18.918   1.903  10.006 -0.1020 -0.0770 -0.3705
 3801W        W 6001  10.354   1.416   7.618  0.4151  0.1341  0.0837
 3802W        W 6002   7.611   3.569   8.124 -0.0799  0.0139 -0.3504
 3803W        W 6003  22.098   3.486  26.195  0.2596 -0.0204  0.2309
 3804W        W 6004  15.658   3.114  14.647  0.2279 -0.2200  0.4234
 3805W        W 6005   5.179   1.355   4.141  0.2030  0.0446 -0.0585
 3806W        W 6006   6.852   4.952   7.074 -0.3585 -0.2357  0.1787
 3807W        W 6007  16.858   5.747  12.511 -0.3050 -0.2406 -0.3702
 3808W        W 6008  20.754   3.808  27.687 -0.1751 -0.1226 -0.1319
 3809W        W 6009  11.863   1.545  26.843  0.1102  0.0501  0.0279
 3810W        W 6010  22.655   3.786  14.373  0.0388 -0.1083 -0.0295
 3811W        W 6011   7.685   5.669  22.966  0.1977  0.1084  0.0386
 3812W        W 6012  10.623   5.291  22.599  0.1666  0.1095 -0.0831
 3813W        W 6013  22.787   5.667   3.428 -0.0243 -0.0156  0.2408
 3814W        W 6014   9.578   4.740  26.415 -0.1616  0.0058  0.1185
 3815W        W 6015  16.077   3.966   4.123  0.1373  0.1605  0.0112
 3816W        W 6016  24.535   1.611  14.087 -0.0758  0.4410  0.0895
 3817W        W 6017  16.038   1.756  15.167  0.0341  0.1218 -0.1100
 3818W        W 6018  16.585   0.483   6.885  0.2314 -0.1568 -0.1951
 3819W        W 6019  26.242   5.752  15.127  0.1131 -0.1424 -0.0342
 3820W        W 6020  10.816   5.997   7.778  0.0287 -0.2713 -0.1255
 3821W        W 6021  24.988   2.376  14.452 -0.0741 -0.0514  0.1206
 3822W        W 6022   1.445   6.061  15.034 -0.1435 -0.2851  0.0189
 3823W        W 6023  12.994   4.181  11.792 -0.0684 -0.1131  0.1679
 3824W        W 6024  19.793   6.287   4.594  0.0595 -0.0679  0.2699
 3825W        W 6025  18.558   2.320   4.704  0.1503  0.2409  0.3669
 3826W        W 6026   2.872   0.883   0.090 -0.1268  0.1138  0.1264
 3827W        W 6027  21.355   3.975   2.757  0.0550 -0.0911  0.1390
 3828W        W 6028  12.622   6.508  30.374 -0.0344 -0.1856 -0.4585
 3829W        W 6029  15.500   0.878  29.589 -0.0124 -0.0530 -0.0392
 3830W        W 6030  24.896   6.038   1.083  0.0220  0.1291 -0.5490
 3831W        W 6031  21.732   1.994   0.020  0.0239  0.1778  0.0970
 3832W        W 6032  17.289   0.226  10.857  0.1494  0.0200 -0.0826
 3833W        W 6033  24.036   1.374  34.988  0.2804  0.4404  0.1537
 3834W        W 6034  11.280   1.348  31.297  0.2710  0.1894  0.1606
 3835W        W 6035  12.876   6.442   2.584 -0.2078 -0.0060  0.1472
 3836W        W 6036   2.030   5.536   3.641  0.1264 -0.1293  0.1400
 3837W        W 6037   4.488   1.424   9.201  0.1576  0.1631  0.0429
 3838W        W 6038  19.185   5.328  22.416  0.2491  0.2674  0.0440
 3839W        W 6039  20.514   0.696  11.605 -0.0571  0.1332  0.1267
 3840W        W 6040  13.474   4.930  29.600  0.0706  0.2137 -0.0318
 3841W        W 6041  13.668   5.510   4.964  0.1831  0.0130 -0.0843
 3842W        W 6042   4.783   5.091   0.465 -0.0110  0.1030  0.0869
 3843W        W 6043  25.232   0.172  20.920 -0.2575  0.1910 -0.0252
 3844W        W 6044   0.472   6.062   0.292  0.0387 -0.1859 -0.3104
 3845W        W 6045   6.768   0.493  23.941  0.0771 -0.0917  0.1852
 3846W        W 6046  10.118   5.705  33.321  0.0837  0.1675 -0.1276
 3847W        W 6047  13.413   0.647  25.977 -0.0022 -0.0247 -0.0969
 3848W        W 6048   0.888   4.803  32.955 -0.3969 -0.0533  0.1350
 3849W        W 6049   9.261   0.672  15.658  0.0582 -0.3811  0.0458
 3850W        W 6050   6.453   0.852  24.387 -0.1228  0.0443 -0.1825
 3851W        W 6051  15.856   3.806   5.030 -0.2398 -0.1454 -0.0249
 3852W        W 6052  13.023   0.940  15.972  0.0226  0.4682 -0.3803
 3853W        W 6053  17.949   0.377  26.221  0.0254  0.2745  0.2313
 3854W        W 6054  13.320   2.103  11.970 -0.1620  0.0490  0.4131
 3855W        W 6055  15.624   2.200   1.672 -0.2147  0.1435 -0.0011
 3856W        W 6056  11.318   2.213  35.662  0.1533  0.4146  0.1186
 3857W        W 6057  26.144   0.138  23.803 -0.2774 -0.1788 -0.0272
 3858W        W 6058  11.494   0.041   3.363 -0.2730  0.3311 -0.0351
 3859W        W 6059  20.292   3.340  35.632 -0.2352 -0.0146 -0.0040
 3860W        W 6060  26.113   0.627   5.854 -0.0551  0.0195  0.1135
 3861W        W 6061   5.884   6.158  33.957 -0.0010 -0.3786 -0.1135
 3862W        W 6062  14.483   1.009   9.539  0.1780 -0.0983  0.0791
 3863W        W 6063  18.943   0.804   8.168 -0.0004 -0.2415 -0.1743
 3864W        W 6064  21.586   5.401  27.523  0.2695 -0.2875 -0.0550
 3865W        W 6065   5.742   4.539   6.305  0.2197  0.0613 -0.1056
 3866W        W 6066  19.537   1.994  21.087 -0.1216  0.0365 -0.0125
 3867W        W 6067   8.677   6.537  30.446 -0.1983  0.0787 -0.1379
 3868W        W 6068   6.390   2.579  12.064 -0.0331 -0.2392  0.1206
 3869W        W 6069  21.731   2.766  22.117 -0.0333  0.1072  0.0410
 3870W        W 6070   9.394   2.685   4.438  0.0046 -0.0564  0.0746
 3871W        W 6071  21.167   4.673   4.036 -0.2086  0.0642 -0.0138
 3872W        W 6072  26.311   3.953   7.176  0.0799  0.1128 -0.1369
 3873W        W 6073   4.802   1.500  26.531 -0.0468 -0.0440  0.1316
 3874W        W 6074  11.350   1.519   2.933 -0.2328 -0.1180 -0.0278
 3875W        W 6075  10.131   0.442  22.258 -0.2884 -0.1222 -0.1942
 3876W        W 6076  18.194   5.141  12.214  0.0456  0.2341 -0.3178
 3877W        W 6077   5.779   5.324   9.272 -0.1148 -0.0275  0.3112
 3878W        W 6078  15.140   5.372  11.178  0.2721  0.1148 -0.0425
 3879W        W 6079  23.309   4.606  13.085 -0.0461 -0.0717 -0.0312
 3880W        W 6080  13.643   3.334  21.559 -0.0064 -0.3264  0.0197
 3881W        W 6081  11.934   4.491  14.370 -0.2236  0.0292  0.2412
 3882W        W 6082   6.055   1.813   0.914  0.1665 -0.0638  0.0563
 3883W        W 6083   7.179   4.566   0.851 -0.0066 -0.1207 -0.1340
 3884W        W 6084   9.509   5.856  36.172 -0.2185 -0.0437 -0.0869
 3885W        W 6085  13.150   0.649   3.145 -0.2346  0.1688 -0.2886
 3886W        W 6086  15.132   3.365   2.125  0.0900 -0.0652  0.0437
 3887W        W 6087   3.919   6.241  23.771 -0.1680  0.2103 -0.0493
 3888W        W 6088   3.381   1.193  30.767 -0.0325  0.0275  0.2025
 3889W        W 6089  11.666   5.163   0.268  0.2910  0.0964  0.0137
 3890W        W 6090  18.223   6.193  30.670 -0.3156  0.1222 -0.4219
 3891W        W 6091  13.200   0.954  22.393  0.0400 -0.1023 -0.0721
 3892W        W 6092   9.416   1.119  34.514  0.1957 -0.1066  0.0832
 3893W        W 6093  20.095   4.749   2.087  0.3207 -0.0360 -0.1537
 3894W        W 6094   0.387   3.692  26.112  0.2507 -0.0810 -0.1101
 3895W        W 6095  21.290   0.349   3.352  0.2514  0.1243  0.1369
 3896W        W 6096  16.616   4.305  10.144 -0.0912 -0.1626 -0.0483
 3897W        W 6097   9.704   1.712   5.865 -0.1517 -0.0236 -0.0580
 3898W        W 6098  16.686   2.093  13.681 -0.1356  0.0456  0.2996
 3899W        W 6099   1.898   2.937  28.519 -0.0050 -0.0521 -0.0003
 3900W        W 6100  12.720   5.153  28.274 -0.0888 -0.0989  0.3643
 3901W        W 6101  10.631   1.203  10.238 -0.0533  0.0734  0.1531
 3902W        W 6102   8.011   1.495  31.395 -0.1580  0.0628  0.1281
 3903W        W 6103   2.704   6.120  35.206 -0.0494  0.2834 -0.0200
 3904W        W 6104   5.891   1.505  10.709 -0.0155 -0.1114 -0.0375
 3905W        W 6105  18.330   5.590   0.529  0.4519 -0.2085  0.0769
 3906W        W 6106   9.278   2.432   3.371 -0.1081 -0.2765 -0.1237
 3907W        W 6107  14.522   2.861  26.075 -0.2492  0.2291  0.0122
 3908W        W 6108   6.757   3.864  31.204 -0.2131 -0.0940 -0.3429
 3909W        W 6109  14.736   3.609  28.284 -0.0751  0.0433  0.0850
 3910W        W 6110  19.867   4.160  27.979 -0.0170 -0.2427  0.2788
 3911W        W 6111  16.024   3.573  12.273  0.3603  0.1030 -0.2972
 3912W        W 6112  13.590   2.663  27.060 -0.0001 -0.0967 -0.0193
 3913W        W 6113  12.188   0.249  10.934  0.2840  0.1192  0.0995
 3914W        W 6114  19.730   2.563  35.404 -0.2118 -0.0027 -0.0224
 3915W        W 6115   7.436   1.781  29.033  0.0136 -0.1008 -0.2363
 3916W        W 6116  11.695   4.440  13.848 -0.1665  0.0944  0.2252
 3917W        W 6117   4.297   6.386   4.911  0.1887  0.2699 -0.1489
 3918W        W 6118  23.098   0.868   3.954 -0.2012  0.1139  0.5485
 3919W        W 6119   0.485   0.200  28.001 -0.2325 -0.0211  0.1525
 3920W        W 6120   7.820   6.236   5.817 -0.0411 -0.2768 -0.2444
 3921W        W 6121  15.136   2.026  30.438 -0.1744  0.0971  0.0716
 3922W        W 6122  17.937   5.831  20.930 -0.0258 -0.1202 -0.2707
 3923W        W 6123  22.280   4.186  23.087  0.1037 -0.0342  0.1299
 3924W        W 6124  25.482   0.593  23.895  0.1200  0.0812 -0.2472
 3925W        W 6125  11.652   1.929   1.456 -0.2019 -0.2007 -0.1563
 3926W        W 6126   4.567   2.615  15.127 -0.0953 -0.1761  0.0103
 3927W        W 6127   5.353   0.202  12.979  0.2844  0.2095 -0.0050
 3928W        W 6128  24.991   0.939  11.647 -0.1650  0.3508 -0.0924
 3929W        W 6129  13.160   5.790   5.074  0.0041  0.1963 -0.0825
 3930W        W 6130  24.504   0.017  25.476 -0.1974 -0.0870 -0.0371
 3931W        W 6131  23.928   6.096  23.774  0.0698  0.0671  0.1205
 3932W        W 6132   2.258   0.141   6.297 -0.1426 -0.1002  0.0720
 3933W        W 6133  25.125   1.774  23.015  0.0928 -0.1494  0.0017
 3934W        W 6134  23.607   6.375  32.711  0.2438  0.0868  0.0468
 3935W        W 6135   0.493   3.071  28.609  0.0001 -0.1959 -0.0632
 3936W        W 6136  14.884   1.094  27.948  0.1673  0.2170  0.0728
 3937W        W 6137   1.950   3.978  30.047 -0.0258  0.2596  0.2828
 3938W        W 6138   4.370   1.143  29.019  0.1749 -0.2144  0.1156
 3939W        W 6139   2.475   4.893  32.471  0.0881  0.1791  0.2607
 3940W        W 6140  22.373   1.038  23.933 -0.0692  0.1743 -0.1449
 3941W        W 6141  16.737   2.957  21.865  0.3718  0.0361 -0.2214
 3942W        W 6142   8.875   5.120  22.670  0.2920 -0.1639 -0.1889
 3943W        W 6143   0.388   4.812  28.992 -0.1411 -0.1647 -0.1268
 3944W        W 6144   4.855   0.852  30.169 -0.0714  0.1330 -0.0488
 3945W        W 6145  19.938   3.584  15.631  0.1198 -0.2749  0.0997
 3946W        W 6146   3.058   1.984   0.958  0.3456  0.2754  0.0830
 3947W        W 6147  24.591   1.187   4.728  0.0772 -0.0856  0.1325
 3948W        W 6148   2.784   0.451  20.748 -0.0412  0.0478 -0.1266
 3949W        W 6149  15.554   5.337   1.060 -0.0733  0.1157  0.2382
 3950W        W 6150   4.940   3.458  24.646 -0.0015 -0.0441  0.1030
 3951W        W 6151   2.462   4.878  14.131  0.0532  0.1689 -0.1225
 3952W        W 6152  24.159   2.401  30.795  0.2012 -0.1949 -0.0011
 3953W        W 6153  20.940   5.158  14.010  0.0881 -0.0376  0.1773
 3954W        W 6154   0.734   5.235  28.269  0.0563 -0.0790  0.1738
 3955W        W 6155  25.976   2.430  29.389 -0.0536  0.0684  0.1902
 3956W        W 6156  14.888   5.188  29.041 -0.2621  0.0986  0.2047
 3957W        W 6157   6.386   5.502  26.731 -0.1344 -0.1328 -0.0335
 3958W        W 6158  14.442   0.045  14.309 -0.0449  0.1049  0.0269
 3959W        W 6159  15.833   3.275   5.887  0.2524  0.0473  0.3439
 3960W        W 6160  18.202   5.017  33.035  0.1792 -0.0575  0.0225
 3961W        W 6161  15.526   5.185   9.839 -0.0269  0.0121 -0.0757
 3962W        W 6162  23.577   5.268  12.857  0.0092 -0.0004  0.2102
 3963W        W 6163  10.871   5.576  29.983 -0.1521  0.0649  0.1317
 3964W        W 6164  22.737   5.582   7.185  0.0713 -0.0577 -0.1475
 3965W        W 6165  26.305   4.763   6.935 -0.0625  0.0616  0.2863
 3966W        W 6166  10.910   2.158  21.797  0.1971  0.0609  0.3096
 3967W        W 6167  20.672   4.801   0.628 -0.1338  0.1004  0.3770
 3968W        W 6168  22.973   6.432   7.730  0.0332  0.2095  0.3585
 3969W        W 6169  16.443   0.107  10.902 -0.1393 -0.0100  0.0757
 3970W        W 6170  13.651   3.361   9.332 -0.1559  0.2171 -0.2132
 3971W        W 6171  23.006   2.106   0.707 -0.1906  0.2345  0.1806
 3972W        W 6172   2.469   5.384   0.415  0.1584  0.1000 -0.2745
 3973W        W 6173   8.924   2.969   5.041  0.0163 -0.1789  0.0940
 3974W        W 6174  25.934   3.009   1.971  0.0397  0.1002  0.0105
 3975W        W 6175  11.113   5.512  35.334  0.1142  0.1617  0.0046
 3976W        W 6176  22.273   2.361   5.178  0.3018  0.4329  0.5257
 3977W        W 6177   2.766   4.887  35.907 -0.1308  0.1651  0.0117
 3978W        W 6178  23.060   3.162  21.201  0.0779  0.0776  0.1654
 3979W        W 6179  11.393   4.634  24.922 -0.3192 -0.0347  0.0204
 3980W        W 6180   1.248   3.766   6.561  0.0497  0.3484  0.2032
 3981W        W 6181  15.422   4.870  30.195 -0.0220 -0.1723 -0.1150
 3982W        W 6182  19.031   5.300   9.955  0.1720  0.1028  0.1684
 3983W        W 6183   4.635   1.590   0.988 -0.0000  0.1435 -0.1483
 3984W        W 6184  25.533   5.876  32.187  0.0029  0.2022 -0.0007
 3985W        W 6185   9.118   3.724  28.633  0.0776 -0.0411 -0.1047
 3986W        W 6186   5.151   4.393  12.198  0.1525 -0.1138 -0.0845
 3987W        W 6187  10.848   0.617   5.876 -0.1744  0.1314  0.0716
 3988W        W 6188  20.812   6.186   2.339  0.0811 -0.1133 -0.0971
 3989W        W 6189   2.680   1.748   6.950  0.1529 -0.0374 -0.4658
 3990W        W 6190  12.324   4.442  28.788  0.0056 -0.1216  0.1456
 3991W        W 6191  13.647   2.161  10.346  0.0991 -0.2070 -0.0526
 3992W        W 6192   7.523   5.401  28.171  0.1957  0.2664 -0.4005
 3993W        W 6193   3.465   5.970  35.608 -0.3217 -0.1813 -0.0820
 3994W        W 6194  21.437   4.485   3.567  0.1560 -0.0789  0.0923
 3995W        W 6195  26.316   1.393   8.010 -0.1254 -0.0259  0.1683
 3996W        W 6196   1.558   4.110   9.788 -0.2230  0.0155 -0.0918
 3997W        W 6197  20.068   4.177  26.978 -0.3040  0.3864 -0.2045
 3998W        W 6198  10.955   1.674  24.133  0.0244  0.2389  0.2163
 3999W        W 6199   1.347   5.241   9.342 -0.2114 -0.3883  0.3528
 4000W        W 6200   4.414   5.842  28.448 -0.2545 -0.0220 -0.0426
 4001W        W 6201  11.833   5.165   4.474  0.1691 -0.0427  0.2093
 4002W        W 6202  22.142   2.144  33.073 -0.2395 -0.1581  0.0301
 4003W        W 6203   5.182   3.995  30.284  0.0047  0.1085 -0.0063
 4004W        W 6204  20.755   0.371  29.234 -0.2705  0.2424 -0.1498
 4005W        W 6205   0.046   1.236  22.204 -0.1660  0.2646  0.3698
 4006W        W 6206  15.335   4.447  31.126  0.1920 -0.3473 -0.1140
 4007W        W 6207   5.324   4.174   7.466  0.0437  0.1144  0.2536
 4008W        W 6208   7.160   3.551  26.923 -0.3215 -0.1654  0.0135
 4009W        W 6209  26.127   5.535   9.079 -0.0197  0.0125 -0.0644
 4010W        W 6210  11.022   4.994  23.828  0.1856  0.2018  0.2759
 4011W        W 6211   6.268   6.223  28.697 -0.1697  0.0991  0.1338
 4012W        W 6212  14.535   2.637  12.997 -0.0780 -0.0796  0.0577
 4013W        W 6213  15.724   3.605  33.080  0.2773 -0.0443 -0.3710
 4014W        W 6214   2.575   3.949  29.273  0.1357 -0.0724 -0.0381
 4015W        W 6215   5.823   6.154   0.794  0.0255 -0.0602  0.0415
 4016W        W 6216  11.889   3.495  36.126  0.1365  0.3706 -0.2861
 4017W        W 6217  16.607   1.433  11.247  0.1214  0.1635  0.0934
 4018W        W 6218  10.175   6.180   4.400  0.1213 -0.5072 -0.0315
 4019W        W 6219   6.656   6.123  10.644  0.1307 -0.2401 -0.0703
 4020W        W 6220   2.107   2.293   0.143 -0.6344 -0.1495  0.2445
 4021W        W 6221  17.082   4.765  22.073 -0.2929  0.0202  0.2419
 4022W        W 6222   6.171   2.310  29.204  0.0847  0.2393 -0.0303
 4023W        W 6223   2.934   6.526  22.150 -0.1632 -0.0362 -0.2826
 4024W        W 6224  13.383   2.049  15.227 -0.1266 -0.0703 -0.4509
 4025W        W 6225  16.179   5.921  34.765  0.0146  0.3145 -0.0289
 4026W        W 6226  12.493   1.296  12.490  0.0065  0.0307 -0.2772
 4027W        W 6227  21.833   2.500  31.810  0.0107  0.0398  0.2306
 4028W        W 6228  20.823   4.115  31.038 -0.0325 -0.1548 -0.1529
 4029W        W 6229  23.129   6.314  31.948  0.2380 -0.3637 -0.4338
 4030W        W 6230  10.940   1.302  21.482  0.0500 -0.0919  0.3417
 4031W        W 6231  10.966   0.764  12.678 -0.2019  0.1055  0.1463
 4032W        W 6232   9.846   3.314  31.965 -0.0780  0.2919 -0.1768
 4033W        W 6233   8.081   3.278  31.475 -0.3512  0.1003 -0.0255
 4034W        W 6234   8.191   6.235  13.232  0.2416  0.0202  0.2614
 4035W        W 6235  23.963   5.805  14.235  0.0782  0.2195  0.2207
 4036W        W 6236   9.195   2.458   6.150 -0.0289  0.0475  0.4869
 4037W        W 6237  24.635   4.788  12.403  0.0931  0.1972 -0.1646
 4038W        W 6238   7.804   1.421  28.852 -0.1605 -0.2334 -0.2152
 4039W        W 6239  13.011   0.843   3.638 -0.3568  0.1239  0.1655
 4040W        W 6240   9.697   2.313  28.476  0.0347 -0.0276 -0.2132
 4041W        W 6241  15.946   3.694  31.017  0.0856 -0.1624  0.1005
 4042W        W 6242  17.694   0.081  25.882 -0.0655 -0.1973 -0.2112
 4043W        W 6243  14.238   0.179   9.453 -0.0660 -0.0772 -0.0049
 4044W        W 6244   5.683   1.271  21.686 -0.1070 -0.1822 -0.3876
 4045W        W 6245   9.037   6.504  25.248  0.2885  0.0658 -0.1586
 4046W        W 6246  11.752   4.451   8.442 -0.0074  0.1889  0.0545
 4047W        W 6247   0.716   5.739   7.816  0.2876 -0.0903  0.2538
 4048W        W 6248  16.299   1.407  30.698  0.0771  0.0513 -0.0372
 4049W        W 6249  21.796   6.070  34.493  0.2062 -0.0862  0.0682
 4050W        W 6250  20.149   1.941  33.962  0.0266 -0.0043 -0.3194
 4051W        W 6251  22.676   1.221  25.702 -0.1766  0.1576  0.0418
 4052W        W 6252   1.483   1.027   7.355  0.2169  0.0234 -0.2323
 4053W        W 6253   4.422   3.708  27.830  0.1928  0.0770  0.1085
 4054W        W 6254   7.118   0.187  26.419  0.1127 -0.2410  0.3052
 4055W        W 6255  22.119   0.688   7.183  0.0864  0.1227 -0.1384
 4056W        W 6256   7.554   1.852  31.950  0.1162 -0.1467 -0.0618
 4057W        W 6257  12.371   3.568  34.703 -0.0106  0.1699 -0.2085
 4058W        W 6258   9.191   1.552   0.723 -0.1069  0.0826  0.0359
 4059W        W 6259  21.675   0.409   6.156 -0.0096  0.0083  0.0907
 4060W        W 6260   4.226   4.214   7.956 -0.2930  0.0270  0.2924
 4061W        W 6261  23.067   6.163   4.205 -0.1891 -0.2158  0.1334
 4062W        W 6262  12.790   2.343   3.350 -0.2353  0.0282 -0.0219
 4063W        W 6263  12.722   2.937   1.191  0.0673 -0.0644 -0.0688
 4064W        W 6264  14.460   0.871   3.387  0.4397 -0.3182  0.3185
 4065W        W 6265   3.652   3.278  29.068  0.3840  0.0217 -0.0690
 4066W        W 6266  22.310   4.250  35.781  0.0816 -0.0630  0.0637
 4067W        W 6267  10.326   0.391  32.751 -0.1219 -0.2277  0.1954
 4068W        W 6268   6.325   6.360   0.852 -0.1453  0.2723 -0.3997
 4069W        W 6269  18.852   5.973  35.520 -0.1957 -0.1893 -0.0881
 4070W        W 6270  11.710   0.824  14.585 -0.1759 -0.2020 -0.0535
 4071W        W 6271   3.325   1.458  32.578 -0.0733  0.0864 -0.1100
 4072W        W 6272  13.000   3.839   9.962  0.0052  0.1416 -0.0821
 4073W        W 6273  22.964   5.397  13.660  0.1337  0.0184 -0.2486
 4074W        W 6274  16.424   4.076  13.452  0.4899  0.0451  0.1069
 4075W        W 6275  10.749   1.661  14.116  0.0389 -0.2385  0.0541
 4076W        W 6276  22.619   5.288  22.422  0.0244  0.0584 -0.1517
 4077W        W 6277  13.831   1.347   7.970  0.1249 -0.1449  0.0782
 4078W        W 6278  13.412   6.083   7.060 -0.1558  0.0528 -0.1449
 4079W        W 6279   9.420   5.394  11.478 -0.2316 -0.2427 -0.0528
 4080W        W 6280  24.794   2.772  33.504 -0.1267 -0.0667  0.1190
 4081W        W 6281   7.390   6.370   8.327 -0.0615  0.0595 -0.0475
 4082W        W 6282  14.704   1.683  13.628  0.5187  0.1173  0.1925
 4083W        W 6283  14.415   3.165   8.565 -0.0929  0.2171  0.2127
 4084W        W 6284   5.642   1.604  26.117 -0.0399  0.4156 -0.0938
 4085W        W 6285   7.028   2.872  34.850 -0.0525 -0.3291  0.0261
 4086W        W 6286   8.294   4.567  21.200 -0.4387  0.1058 -0.2307
 4087W        W 6287  17.537   1.837  12.695  0.4901 -0.1902  0.0027
 4088W        W 6288   2.959   1.335  13.315 -0.1381  0.1124 -0.2499
 4089W        W 6289  10.334   1.832   0.025 -0.1233 -0.2105  0.0355
 4090W        W 6290  18.091   5.429  23.138 -0.0786 -0.0893 -0.2058
 4091W        W 6291  12.242   3.844  12.371 -0.0433 -0.2258  0.2804
 4092W        W 6292  16.169   4.005   6.594  0.0490  0.2821  0.1429
 4093W        W 6293  17.566   5.124  15.079 -0.2344 -0.1407  0.3207
 4094W        W 6294   8.409   2.672  22.979  0.1708 -0.2402 -0.0246
 4095W        W 6295   2.324   3.431  19.900 -0.1826 -0.1594 -0.1343
 4096W        W 6296  11.450   6.144  23.690  0.2706  0.0486  0.0829
 4097W        W 6297  18.721   3.336  29.661 -0.0941  0.1739 -0.0520
 4098W        W 6298   4.004   4.476  29.999 -0.0320  0.2509  0.2557
 4099W        W 6299  25.388   4.213  28.833 -0.0331 -0.1472  0.0329
 4100W        W 6300  11.519   3.120  26.145 -0.0617 -0.1611  0.1246
 4101W        W 6301   3.939   1.728   2.802  0.2684 -0.0339  0.1191
 4102W        W 6302   0.149   4.991  27.176 -0.2222  0.1266 -0.2095
 4103W        W 6303  25.146   6.272  12.945  0.0122 -0.3280 -0.1172
 4104W        W 6304   0.968   1.008  13.696 -0.1831 -0.0784 -0.2725
 4105W        W 6305   4.236   5.552  13.027 -0.2424 -0.0555  0.0856
 4106W        W 6306  20.461   3.325  30.750  0.1441 -0.0212 -0.2125
 4107W        W 6307  23.714   0.043  24.565 -0.1218  0.0092  0.0247
 4108W        W 6308   5.115   2.763   6.382  0.0917 -0.0830 -0.0615
 4109W        W 6309  24.062   6.420   9.613  0.1259  0.2672 -0.0780
 4110W        W 6310   5.567   1.545  12.169  0.1105  0.3433 -0.0296
 4111W        W 6311  19.956   3.195   0.311 -0.0753  0.0232 -0.1193
 4112W        W 6312   0.333   5.189  21.542 -0.1795  0.0467  0.0634
 4113W        W 6313  13.074   2.477  34.088 -0.0096  0.0306 -0.3492
 4114W        W 6314  14.603   2.151   7.607 -0.2330 -0.0566  0.0042
 4115W        W 6315  20.102   3.485  22.376 -0.1346  0.0406 -0.0813
 4116W        W 6316   1.348   2.981   2.944 -0.0716  0.1043 -0.1357
 4117W        W 6317  15.360   4.761   1.684  0.0232  0.1093 -0.2780
 4118W        W 6318  23.578   1.984   1.608  0.1282 -0.0438 -0.1026
 4119W        W 6319  12.305   5.255  14.808  0.1201 -0.0986 -0.2037
 4120W        W 6320  24.015   2.919  31.055  0.0840 -0.1860 -0.3479
 4121W        W 6321  20.179   3.561  29.042  0.1811  0.1066 -0.0074
 4122W        W 6322   9.595   4.587   9.498  0.2209 -0.1752 -0.0560
 4123W        W 6323   1.286   1.754  33.910  0.1380 -0.0260 -0.1302
 4124W        W 6324  16.454   5.080  24.837 -0.2495 -0.1789 -0.2740
 4125W        W 6325  13.633   2.602   6.028 -0.0780  0.2704 -0.0101
 4126W        W 6326  25.545   0.011   4.710  0.0281 -0.2498 -0.1007
 4127W        W 6327   4.866   0.257  34.542 -0.1660 -0.2081 -0.3506
 4128W        W 6328  22.050   3.760  12.727  0.3405 -0.1354  0.2189
 4129W        W 6329  18.048   6.046  31.779  0.0050  0.0788 -0.0258
 4130W        W 6330  14.436   1.668  24.520  0.2460  0.0776  0.3287
 4131W        W 6331  18.549   4.359  31.192  0.1607 -0.1737  0.0130
 4132W        W 6332   5.491   2.186  34.912  0.0023  0.1884 -0.1108
 4133W        W 6333  23.840   4.094   0.941 -0.0117 -0.1300  0.2095
 4134W        W 6334   4.159   0.450   5.178 -0.0367  0.1108 -0.0387
 4135W        W 6335   3.464   1.308  35.576 -0.0709 -0.4180 -0.0065
 4136W        W 6336  23.779   3.504   2.051 -0.2851 -0.4100 -0.1308
 4137W        W 6337   0.338   6.196  26.821  0.0073 -0.0995  0.3251
 4138W        W 6338  25.886   6.125   6.257  0.0428  0.2372  0.0730
 4139W        W 6339  18.815   1.635   4.764 -0.0713  0.1332  0.1348
 4140W        W 6340  16.831   3.500   4.473 -0.4429  0.0966 -0.1947
 4141W        W 6341  23.568   6.161  24.635 -0.1502  0.2586  0.2618
 4142W        W 6342   3.328   0.597  13.816 -0.0522  0.0539 -0.1747
 4143W        W 6343  17.135   4.476   6.722  0.2463 -0.0580  0.1380
 4144W        W 6344  13.654   3.152   2.703  0.0487  0.2288 -0.1396
 4145W        W 6345  12.646   5.176   4.764  0.0799 -0.2231  0.0444
 4146W        W 6346  10.252   3.669   4.417  0.0914 -0.0840 -0.3845
 4147W        W 6347  18.191   4.745  34.169 -0.0537  0.2516 -0.1884
 4148W        W 6348   4.339   2.869   4.990 -0.1492 -0.0261 -0.1880
 4149W        W 6349  13.947   2.465  31.099  0.0283  0.0807 -0.0776
 4150W        W 6350   7.301   5.973  34.303 -0.0936  0.0969 -0.0847
 4151W        W 6351   4.785   0.002  23.805 -0.0641 -0.2750 -0.1254
 4152W        W 6352  23.949   1.471  32.276  0.0135 -0.2601  0.0418
 4153W        W 6353  16.604   0.485  35.253 -0.1702 -0.3106  0.1020
 4154W        W 6354  14.213   0.885  14.170  0.0221  0.0661 -0.1226
 4155W        W 6355   4.009   6.172   0.231 -0.0029 -0.0673  0.1432
 4156W        W 6356  16.186   6.008  20.990 -0.2551  0.1060  0.5388
 4157W        W 6357  21.653   0.035   3.586  0.2657 -0.1357  0.2137
 4158W        W 6358  14.893   5.019  33.297 -0.0797 -0.0573  0.1668
 4159W        W 6359   7.965   1.655   7.464  0.1704 -0.0494  0.1357
 4160W        W 6360   6.961   1.551  35.539 -0.1151  0.1219  0.0705
 4161W        W 6361  24.909   1.441  28.470  0.2505 -0.3573 -0.1935
 4162W        W 6362   9.154   4.830  34.186  0.3161  0.1618 -0.1688
 4163W        W 6363   3.273   4.839  29.816  0.2908 -0.0179  0.0029
 4164W        W 6364   1.463   6.091   1.128 -0.0844  0.1626  0.0549
 4165W        W 6365   7.999   3.223  25.420 -0.2011 -0.0992  0.1612
 4166W        W 6366  11.866   2.627   5.326  0.2030 -0.3150 -0.0362
 4167W        W 6367  10.588   5.326  31.808 -0.0115 -0.0922  0.0447
 4168W        W 6368   3.189   3.336  22.180 -0.0248  0.0192  0.0495
 4169W        W 6369  25.254   3.927  23.704 -0.0402 -0.0624 -0.2010
 4170W        W 6370   2.411   2.092  29.309 -0.0741 -0.0074  0.0064
 4171W        W 6371   0.713   5.969  34.024  0.1286  0.1780 -0.0750
 4172W        W 6372  18.391   5.043  24.706  0.0417  0.0842 -0.3319
 4173W        W 6373  16.215   4.964  33.303  0.2273 -0.0763 -0.3003
 4174W        W 6374   2.789   6.443  25.208 -0.1661 -0.1013  0.0917
 4175W        W 6375  22.460   6.459  15.083  0.0395 -0.2618 -0.0642
 4176W        W 6376   7.086   5.900  14.956  0.3440 -0.0563  0.2260
 4177W        W 6377  15.126   3.730  15.269 -0.0561 -0.2824  0.0593
 4178W        W 6378  22.903   5.931  13.448 -0.1706 -0.0830 -0.2381
 4179W        W 6379  13.285   1.314  14.554  0.0408 -0.1659 -0.0972
 4180W        W 6380  13.156   0.534  31.059  0.2598 -0.3966 -0.2978
 4181W        W 6381  18.545   2.189  10.009 -0.0499  0.0879  0.3596
 4182W        W 6382   7.757   4.943  21.848 -0.2503 -0.1065 -0.1079
 4183W        W 6383   1.839   5.092   7.408  0.0230 -0.1500 -0.1416
 4184W        W 6384  23.885   5.816  22.893 -0.1517 -0.1585  0.0682
 4185W        W 6385  14.853   2.660  34.140 -0.0673  0.5022 -0.0491
 4186W        W 6386  15.444   3.473  36.048 -0.0461  0.0801  0.1424
 4187W        W 6387   5.681   0.920  22.057 -0.0013 -0.0938 -0.0746
 4188W        W 6388  17.376   1.415  24.107 -0.1766 -0.0799  0.1010
 4189W        W 6389   0.355   0.666  28.880  0.3590 -0.0159  0.1086
 4190W        W 6390   6.320   3.079  27.778  0.1227 -0.0804  0.2256
 4191W        W 6391  23.994   3.558   3.415 -0.0149 -0.2278  0.3664
 4192W        W 6392   9.292   2.039  15.728  0.0053  0.1190 -0.1157
 4193W        W 6393  17.403   3.141   3.000 -0.2564 -0.1040  0.0025
 4194W        W 6394  15.946   1.701  11.737  0.1338  0.1868  0.3014
 4195W        W 6395  21.510   4.867   5.189  0.0578 -0.0100 -0.3522
 4196W        W 6396   7.679   2.842  27.262  0.2713 -0.2803  0.1921
 4197W        W 6397  21.310   2.284   9.833  0.1690  0.1557  0.0623
 4198W        W 6398   0.288   5.850  33.280 -0.2078  0.2924  0.0516
 4199W        W 6399  11.687   3.156  14.527 -0.3258 -0.0437  0.3574
 4200W        W 6400  20.242   0.085   6.027  0.1669  0.3715 -0.0443
 4201W        W 6401  16.888   6.476  10.347  0.1572  0.0409  0.0380
 4202W        W 6402   6.785   4.412  23.812 -0.2793  0.1072 -0.0552
 4203W        W 6403   7.462   5.846  28.565  0.2427 -0.1169  0.1910
 4204W        W 6404  15.302   5.499  28.459  0.1691 -0.0984 -0.1566
 4205W        W 6405  12.621   1.569   1.603 -0.0654 -0.1718  0.2436
 4206W        W 6406  23.389   1.120   4.973  0.2304 -0.0630 -0.3258
 4207W        W 6407  22.262   1.480  13.411 -0.0394  0.1981  0.3971
 4208W        W 6408   3.695   5.306  12.914  0.1433 -0.3718 -0.1746
 4209W        W 6409  25.799   5.717   8.728  0.1221  0.0067 -0.0661
 4210W        W 6410  12.298   5.588  24.173 -0.2431 -0.0252  0.1011
 4211W        W 6411   8.734   0.263  26.767  0.0767 -0.1662  0.1709
 4212W        W 6412   1.460   0.039  22.379  0.5073  0.2736  0.1265
 4213W        W 6413   2.620   0.636  27.205 -0.1427 -0.1600 -0.1312
 4214W        W 6414   2.632   2.097  34.211  0.0611 -0.0212 -0.2930
 4215W        W 6415   5.500   2.177   2.516  0.1428 -0.1552 -0.0295
 4216W        W 6416   0.295   4.129  11.290  0.0584  0.3878  0.3236
 4217W        W 6417   8.408   3.698   4.577  0.2628  0.1603 -0.0058
 4218W        W 6418   9.247   4.925   5.790  0.0044 -0.0848 -0.1705
 4219W        W 6419   1.845   2.401  28.473  0.1130  0.2818 -0.3108
 4220W        W 6420  24.658   4.887  30.610 -0.2212 -0.0224  0.2310
 4221W        W 6421   2.701   3.833   6.423  0.1355  0.1659  0.1485
 4222W        W 6422   0.417   2.346  23.117  0.1273 -0.1708 -0.0036
 4223W        W 6423  24.397   2.308   1.396  0.1147  0.0953 -0.1245
 4224W        W 6424  25.250   3.709   6.109  0.2117 -0.0102 -0.2367
 4225W        W 6425   5.331   2.287   6.514  0.0840  0.1084  0.1262
 4226W        W 6426   3.296   4.556   7.317  0.0287 -0.2679 -0.1031
 4227W        W 6427  15.519   1.785  30.085 -0.0560  0.1318 -0.1211
 4228W        W 6428   8.948   0.146  10.534  0.2855 -0.2508  0.0709
 4229W        W 6429   7.144   1.739  23.740 -0.2227  0.0246 -0.0453
 4230W        W 6430  13.359   1.882  32.324  0.0280  0.1678  0.2891
 4231W        W 6431  17.375   0.596  24.711 -0.2262 -0.3012  0.0437
 4232W        W 6432  14.183   6.473  20.677  0.2910  0.0460 -0.3147
 4233W        W 6433   3.655   4.331   2.936 -0.2049 -0.4670  0.0163
 4234W        W 6434  13.205   2.821  25.584 -0.2945  0.3638 -0.2059
 4235W        W 6435  24.309   3.894  14.711 -0.0520  0.0059 -0.1003
 4236W        W 6436  26.058   2.128   8.349  0.0158 -0.3796  0.0271
 4237W        W 6437   1.276   6.200   4.053 -0.0252  0.1969  0.0140
 4238W        W 6438  17.943   1.996  34.038 -0.0716  0.0861 -0.0862
 4239W        W 6439  24.568   6.499  13.529 -0.0635  0.0043  0.0233
 4240W        W 6440  14.046   2.043   3.946 -0.0867  0.0314  0.0220
 4241W        W 6441  19.379   2.485  34.200 -0.0786  0.0538 -0.0796
 4242W        W 6442  25.141   1.310  29.917  0.3323  0.4136  0.0767
 4243W        W 6443  10.452   2.019  35.487  0.0659 -0.0701  0.0191
 4244W        W 6444  22.682   5.512  35.985 -0.0867 -0.1186 -0.0219
 4245W        W 6445  16.326   6.556   5.963  0.0566 -0.0645  0.1132
 4246W        W 6446  10.471   2.007   9.924  0.0344 -0.0458 -0.0799
 4247W        W 6447  18.707   1.401   3.825 -0.2083 -0.2752  0.1333
 4248W        W 6448  19.232   1.330  21.356 -0.1851  0.3183  0.1294
 4249W        W 6449   7.227   4.694  22.139  0.0164  0.2283  0.1981
 4250W        W 6450  14.106   3.594  21.724 -0.2199 -0.0125 -0.0539
 4251W        W 6451   2.643   4.368  31.179 -0.0666 -0.1298 -0.0229
 4252W        W 6452   3.005   1.947  10.759  0.2228  0.2339  0.0315
 4253W        W 6453  13.991   4.850  25.578  0.0767 -0.2467 -0.2361
 4254W        W 6454  19.361   6.376  21.686 -0.1465  0.1722 -0.2212
 4255W        W 6455  20.546   1.715  23.582  0.0098  0.0696  0.0574
 4256W        W 6456   7.447   0.869   4.413  0.1593 -0.0541  0.1843
 4257W        W 6457   4.021   3.308  11.259 -0.0739  0.1237 -0.2358
 4258W        W 6458   7.487   2.833  33.159  0.0449  0.1498 -0.4365
 4259W        W 6459  14.840   4.263  14.213 -0.1445  0.2778  0.3884
 4260W        W 6460  21.430   6.127  30.531 -0.1539 -0.0069  0.0376
 4261W        W 6461   3.103   1.286   2.621  0.0797 -0.3133  0.0104
 4262W        W 6462   5.754   6.505  36.050  0.0336  0.0285  0.0729
 4263W        W 6463  23.370   3.644   0.767 -0.1230 -0.0410  0.0474
 4264W        W 6464  12.870   3.089  13.652  0.0709  0.0307  0.1748
 4265W        W 6465   9.752   1.070  15.074 -0.0868  0.0698 -0.0173
 4266W        W 6466  17.490   0.924  23.999  0.0387  0.1241  0.0729
 4267W        W 6467  18.932   4.205   3.908 -0.3637  0.4508 -0.1770
 4268W        W 6468   5.785   5.161  24.144 -0.1814  0.0050  0.1299
 4269W        W 6469   6.766   2.169  23.369  0.0940 -0.0039 -0.1276
 4270W        W 6470  18.707   0.145  21.262  0.0534 -0.2971 -0.0769
 4271W        W 6471  12.100   2.285   0.273  0.1874 -0.0258  0.1200
 4272W        W 6472  17.272   3.994  14.857 -0.1388 -0.0376 -0.1702
 4273W        W 6473  22.447   6.358   2.196 -0.3134 -0.1782 -0.0327
 4274W        W 6474  17.466   6.076  24.802  0.0758 -0.0426 -0.2570
 4275W        W 6475   6.749   5.901  15.398 -0.1508  0.0238 -0.1365
 4276W        W 6476   2.477   2.976  29.632  0.1530 -0.0528  0.0058
 4277W        W 6477  10.508   2.734  27.451 -0.0625 -0.0080 -0.0336
 4278W        W 6478   3.079   5.868  34.463  0.1276  0.0881  0.1331
 4279W        W 6479  24.550   0.692   7.776 -0.0375 -0.1329  0.2005
 4280W        W 6480   6.269   3.527  36.145 -0.0247  0.0416  0.2162
 4281W        W 6481   1.118   3.094  26.725 -0.0121  0.1178  0.1395
 4282W        W 6482  15.594   0.250   3.535 -0.0587  0.1376  0.0309
 4283W        W 6483  11.105   5.745  10.129  0.1507  0.0340 -0.2224
 4284W        W 6484  23.555   4.701  32.785 -0.1995  0.3387  0.1049
 4285W        W 6485   4.236   1.847   9.355 -0.2983 -0.3499  0.0647
 4286W        W 6486  16.468   6.340  32.214  0.0328  0.1615  0.2073
 4287W        W 6487  24.211   1.969  33.661  0.0752 -0.1409  0.0371
 4288W        W 6488  20.426   5.863   8.488 -0.1928  0.2330 -0.0953
 4289W        W 6489  18.844   5.777  31.327 -0.0918  0.3799 -0.0134
 4290W        W 6490   6.114   1.280   0.121  0.1120 -0.0312  0.1750
 4291W        W 6491  21.046   2.380   1.578 -0.1827 -0.0149  0.0562
 4292W        W 6492   6.643   4.505   9.258  0.1817  0.0016 -0.2080
 4293W        W 6493  17.454   2.289  20.345  0.1265  0.3355  0.0730
 4294W        W 6494  20.222   3.669   0.334 -0.1047  0.1759  0.2291
 4295W        W 6495   0.673   0.833  31.169 -0.0731  0.1143 -0.0122
 4296W        W 6496  13.445   4.989  31.678  0.0722  0.1568  0.0978
 4297W        W 6497  17.297   2.922   9.126 -0.0195  0.3584 -0.0816
 4298W        W 6498  25.753   3.018  32.575  0.0747  0.0021 -0.2013
 4299W        W 6499  15.485   3.416   6.309 -0.1843  0.0765  0.2082
 4300W        W 6500  15.741   1.316  28.756  0.0440  0.0164 -0.1098
 4301W        W 6501  25.341   3.803  33.216 -0.0674 -0.0191  0.0184
 4302W        W 6502  23.653   2.620  23.070  0.2502  0.0369  0.1714
 4303W        W 6503  10.783   0.130  32.779  0.0876  0.0641 -0.4493
 4304W        W 6504  19.309   0.613  30.079  0.3805 -0.0092 -0.1147
 4305W        W 6505   9.117   6.400  15.686 -0.1596 -0.1196  0.1877
 4306W        W 6506  23.750   5.373   5.904  0.1635 -0.2261 -0.1062
 4307W        W 6507  14.202   2.270  13.694  0.0259 -0.0059  0.0768
 4308W        W 6508  12.033   3.134   7.981 -0.2374 -0.0551 -0.2152
 4309W        W 6509  24.663   3.719  14.310 -0.1041  0.1793 -0.0728
 4310W        W 6510   6.947   4.159  10.923 -0.0108 -0.0668 -0.1287
 4311W        W 6511   6.173   1.815  25.985  0.0125  0.0821  0.0811
 4312W        W 6512   2.277   1.527  23.970  0.0901 -0.1090 -0.0650
 4313W        W 6513   7.531   4.134  31.932  0.2304  0.2327  0.1825
 4314W        W 6514  24.897   1.846  14.922  0.2135 -0.3311 -0.4322
 4315W        W 6515  25.699   3.351  21.672  0.0859  0.1534  0.2024
 4316W        W 6516  17.504   2.476  32.828 -0.1561 -0.0954  0.2258
 4317W        W 6517   9.612   2.316   6.283 -0.0788  0.4669  0.1002
 4318W        W 6518   7.085   0.206  33.869  0.1840  0.0752  0.3193
 4319W        W 6519   4.966   4.953  14.205 -0.1400  0.2711 -0.0695
 4320W        W 6520  20.482   5.215   7.665 -0.2036 -0.0684 -0.2522
 4321W        W 6521   8.619   5.531   6.297 -0.1507  0.0057  0.1181
 4322W        W 6522   3.410   3.880  27.443 -0.2769  0.0642  0.2541
 4323W        W 6523  20.616   0.470  33.054  0.1131  0.1019  0.0223
 4324W        W 6524  16.497   0.361   0.219  0.2206  0.0348  0.3328
 4325W        W 6525  12.171   5.490  15.378 -0.2991 -0.0739 -0.0320
 4326W        W 6526   0.265   4.529   6.833 -0.1634  0.1106  0.0532
 4327W        W 6527  25.919   2.050  26.501  0.1685 -0.0009 -0.0830
 4328W        W 6528  12.404   4.896  22.214 -0.1310  0.2392  0.2210
 4329W        W 6529  14.573   5.644  25.548  0.1675 -0.1784  0.1368
 4330W        W 6530   4.651   5.459  22.308  0.0913  0.1904  0.0804
 4331W        W 6531  25.172   1.130   6.645  0.3298 -0.2300 -0.0753
 4332W        W 6532   8.632   5.716  25.076  0.0096 -0.0146 -0.1565
 4333W        W 6533   4.376   0.817   4.191  0.0266  0.0372 -0.1111
 4334W        W 6534  23.999   0.490  29.609 -0.3495  0.1034  0.1662
 4335W        W 6535   3.159   4.759  23.472 -0.0411  0.0499 -0.0329
 4336W        W 6536  19.776   4.057  24.793  0.0911 -0.0165  0.0721
 4337W        W 6537  24.728   5.437   1.697  0.2463 -0.2244  0.0073
 4338W        W 6538   0.116   1.998   2.357 -0.0527 -0.0375  0.0813
 4339W        W 6539  17.225   3.769   9.491 -0.1970  0.0980  0.2146
 4340W        W 6540  17.574   4.065  29.484  0.1295  0.2026  0.0638
 4341W        W 6541  20.230   3.807  35.562  0.0452  0.0393  0.3496
 4342W        W 6542  17.954   4.590  27.583  0.1096  0.1920  0.2317
 4343W        W 6543  24.090   5.042   1.360  0.4738 -0.0498 -0.1116
 4344W        W 6544  10.721   3.816  21.556  0.5848 -0.0668 -0.1187
 4345W        W 6545  22.154   3.728   2.581  0.1083  0.0394 -0.1227
 4346W        W 6546  25.249   6.044  26.323 -0.3228 -0.1563  0.3212
 4347W        W 6547   5.187   3.653   9.628 -0.1334  0.0397 -0.2290
 4348W        W 6548   6.791   0.018  25.024 -0.2448 -0.2845 -0.1287
 4349W        W 6549  17.570   0.767   7.308 -0.1962 -0.2843  0.2936
 4350W        W 6550  24.281   1.806  11.552 -0.1852  0.4218 -0.0136
 4351W        W 6551   4.920   3.590  35.728  0.0935 -0.0641 -0.0904
 4352W        W 6552   9.562   6.577  12.331  0.0670  0.0190  0.1416
 4353W        W 6553   0.525   1.240   3.342  0.0964 -0.0331  0.1572
 4354W        W 6554  26.186   1.996  22.524  0.0784 -0.0157 -0.0066
 4355W        W 6555   9.899   4.342  35.779  0.2966  0.1442  0.3486
 4356W        W 6556  16.572   5.927  31.426  0.0602 -0.0974  0.3117
 4357W        W 6557   9.385   5.184  21.037  0.0487  0.0304  0.0377
 4358W        W 6558   0.793   1.936  21.104 -0.2216  0.0386  0.1694
 4359W        W 6559  15.829   5.863   6.285  0.1028 -0.3584  0.1168
 4360W        W 6560   0.630   1.802  13.413 -0.2111  0.1029 -0.0830
 4361W        W 6561  21.357   1.926  29.956 -0.0357  0.2336 -0.1484
 4362W        W 6562  17.960   4.342   9.771  0.0963  0.1699  0.1162
 4363W        W 6563  10.834   0.960   6.296 -0.2036  0.3503  0.1715
 4364W        W 6564   7.328   4.221  27.390 -0.2038  0.1737  0.1396
 4365W        W 6565  17.234   0.247  24.424 -0.1141 -0.1437 -0.1901
 4366W        W 6566  23.208   5.704  31.100 -0.0941  0.0620  0.1652
 4367W        W 6567   1.049   4.706  34.511 -0.2075 -0.1173 -0.0053
 4368W        W 6568  17.022   0.040  26.093 -0.0729  0.2872  0.0016
 4369W        W 6569  10.721   1.023  31.444 -0.0987  0.2200 -0.0945
 4370W        W 6570  21.283   1.865  30.480 -0.0529 -0.1500  0.0295
 4371W        W 6571  25.514   5.725  28.169  0.1359  0.0144  0.0948
 4372W        W 6572  24.026   3.739  11.580  0.3426  0.0178  0.0717
 4373W        W 6573  19.694   1.537   4.571  0.5116  0.2340  0.2024
 4374W        W 6574  21.957   2.073  28.744  0.0221 -0.1814  0.2669
 4375W        W 6575  23.785   4.486  31.535  0.1024  0.1653 -0.0396
 4376W        W 6576  16.958   4.336  21.230 -0.3378 -0.1048  0.1273
 4377W        W 6577   3.500   3.698  25.837 -0.1233 -0.0078 -0.1961
 4378W        W 6578  21.030   5.724  12.584  0.0636  0.0115 -0.1841
 4379W        W 6579  26.071   4.220  29.537 -0.0223  0.5202 -0.0621
 4380W        W 6580   8.229   1.794   4.620 -0.0304 -0.0826  0.2857
 4381W        W 6581   9.433   1.745  32.731  0.0670 -0.1294 -0.1782
 4382W        W 6582  16.537   1.936   9.133  0.1079  0.2058 -0.0187
 4383W        W 6583  25.213   0.712  22.936 -0.1267  0.1230 -0.0358
 4384W        W 6584  21.075   4.643   9.938  0.2319  0.2216  0.2673
 4385W        W 6585  17.206   1.828  11.698  0.2235 -0.0893 -0.1895
 4386W        W 6586  23.719   4.438  33.756 -0.1694 -0.3110 -0.0212
 4387W        W 6587   3.843   6.270  31.125 -0.1533 -0.1679 -0.0559
 4388W        W 6588  19.238   4.115   6.329  0.1162 -0.1468  0.0102
 4389W        W 6589   0.631   4.420   0.129 -0.0526  0.0012 -0.3480
 4390W        W 6590   1.027   3.090  21.749 -0.0201  0.0895 -0.1146
 4391W        W 6591   6.254   4.831   8.022  0.2634  0.3864  0.0240
 4392W        W 6592  12.190   1.457  33.670  0.2769 -0.1618 -0.2496
 4393W        W 6593  25.619   2.635   2.326 -0.1654  0.0087  0.3239
 4394W        W 6594   1.098   6.410   7.820 -0.0611  0.2691  0.4108
 4395W        W 6595  16.118   1.875  33.079 -0.2923  0.0409  0.0996
 4396W        W 6596  10.820   1.776   4.278 -0.0576 -0.2316  0.0132
 4397W        W 6597   6.823   5.714   1.441 -0.0848  0.1018  0.0727
 4398W        W 6598  19.964   6.477  26.219 -0.2694  0.0750  0.0235
 4399W        W 6599  14.925   3.275   1.366  0.0169  0.0019 -0.0262
 4400W        W 6600  22.203   1.774  34.933  0.0090  0.0389  0.0535
 4401W        W 6601  17.484   5.789  22.336  0.0561  0.1450  0.0641
 4402W        W 6602   8.719   2.088  34.400 -0.1875 -0.0552 -0.2082
 4403W        W 6603   8.936   0.541  27.166  0.3562 -0.0083  0.2421
 4404W        W 6604  23.431   0.322  12.183  0.0588  0.2633  0.3079
 4405W        W 6605  20.910   0.030   6.083  0.0835  0.0712  0.1027
 4406W        W 6606  17.498   4.836  28.938  0.1755  0.0086  0.0095
 4407W        W 6607  12.130   3.729  13.791  0.0004  0.1717  0.0602
 4408W        W 6608  22.935   3.126  28.747  0.0360 -0.0477 -0.0235
 4409W        W 6609  18.568   4.407  33.304 -0.1713 -0.2172 -0.0301
 4410W        W 6610  13.222   3.346  21.861  0.0506 -0.3194 -0.1775
 4411W        W 6611  15.882   6.417  13.267 -0.0354 -0.0772  0.0301
 4412W        W 6612   9.656   0.646  26.649 -0.1020  0.2735  0.0198
 4413W        W 6613   6.054   2.916  11.775  0.1013  0.0347  0.1021
 4414W        W 6614   7.915   6.209  34.817 -0.1033 -0.1044 -0.1607
 4415W        W 6615   0.613   4.177   2.064 -0.2723 -0.2862 -0.0095
 4416W        W 6616   5.668   3.959   8.733  0.0316  0.0879  0.2107
 4417W        W 6617   7.849   4.459   9.612 -0.2130  0.2080  0.0062
 4418W        W 6618   2.590   5.761  34.337 -0.1518  0.2571  0.2014
 4419W        W 6619   0.818   5.824  33.545  0.1529  0.1069  0.0660
 4420W        W 6620   9.958   2.632  11.538  0.0586  0.3687 -0.1660
 4421W        W 6621   6.607   5.600  30.568  0.1386  0.0359 -0.2233
 4422W        W 6622  14.679   5.132  23.415 -0.3032 -0.0794 -0.0170
 4423W        W 6623   6.928   5.632   3.942  0.1027  0.1797 -0.0532
 4424W        W 6624  13.935   5.956  10.328 -0.2841 -0.1608  0.0174
 4425W        W 6625  21.592   3.512   6.776 -0.0365  0.1702  0.0249
 4426W        W 6626  23.570   0.071  22.871  0.0246  0.0777 -0.0214
 4427W        W 6627  18.954   5.943   4.858  0.2010 -0.1664 -0.1140
 4428W        W 6628   2.164   0.029  28.221 -0.1426  0.0877  0.0671
 4429W        W 6629   9.430   5.435  28.345 -0.1531 -0.1436  0.1732
 4430W        W 6630  10.954   6.237  34.174 -0.1787  0.0667  0.0029
 4431W        W 6631   2.031   2.650   2.765  0.0418  0.0589 -0.0120
 4432W        W 6632  16.308   3.460   5.047  0.0625 -0.2068 -0.3118
 4433W        W 6633  21.063   5.016  26.655  0.0222  0.0542 -0.1488
 4434W        W 6634  17.491   4.038   3.705 -0.0188  0.0485 -0.0872
 4435W        W 6635  22.236   4.102  34.321  0.1673  0.0374  0.2926
 4436W        W 6636  15.564   0.730  12.177 -0.0479  0.0027  0.3246
 4437W        W 6637  11.020   6.385  28.285 -0.0517  0.2052  0.2442
 4438W        W 6638  10.767   2.115   2.446 -0.1428  0.1496 -0.2766
 4439W        W 6639  10.676   3.364   0.458  0.0307 -0.3608  0.0659
 4440W        W 6640   2.411   0.614  23.059  0.0800 -0.1554 -0.0371
 4441W        W 6641   0.558   3.970  32.513  0.1217  0.2996 -0.1275
 4442W        W 6642  18.764   4.797  31.434 -0.1457 -0.0365 -0.0072
 4443W        W 6643  26.361   3.748  11.823 -0.0288  0.4606  0.0269
 4444W        W 6644   2.140   0.332  31.241  0.0918  0.1415 -0.0254
 4445W        W 6645  13.600   5.911  10.699 -0.1103  0.0024  0.2258
 4446W        W 6646   2.607   2.268  11.912  0.2260 -0.0559  0.1724
 4447W        W 6647  19.773   2.198  34.054 -0.0238  0.1352 -0.0401
 4448W        W 6648   0.918   3.180   1.761 -0.1749 -0.0620  0.1571
 4449W        W 6649   4.907   4.550  35.441  0.1878  0.3566 -0.3667
 4450W        W 6650  25.338   5.707  32.812  0.2699  0.0603  0.0426
 4451W        W 6651  13.382   3.446  22.394 -0.1238  0.1748  0.0293
 4452W        W 6652   3.174   5.959   9.262  0.0447  0.1029 -0.1935
 4453W        W 6653   2.528   5.434   2.587 -0.1072 -0.0150  0.0506
 4454W        W 6654   0.476   5.204  26.731 -0.2280 -0.0430  0.1772
 4455W        W 6655  21.880   4.958   2.052 -0.0750 -0.3252 -0.0392
 4456W        W 6656  15.773   5.045  29.092 -0.1644  0.1565 -0.0155
 4457W        W 6657  14.729   3.547  29.871 -0.0121 -0.0963 -0.2033
 4458W        W 6658   5.364   2.993  13.467 -0.0527  0.1542 -0.0221
 4459W        W 6659   9.849   0.453   0.288  0.0566 -0.0698  0.0257
 4460W        W 6660  17.900   0.955   6.631 -0.2353 -0.0102  0.3237
 4461W        W 6661  24.954   5.394  14.956  0.0131  0.0178  0.1735
 4462W        W 6662   8.798   3.292  13.681  0.2314 -0.1703  0.4178
 4463W        W 6663  23.732   6.214  14.625  0.0852  0.1853 -0.0339
 4464W        W 6664  13.713   4.535  30.294 -0.1153 -0.3264 -0.1631
 4465W        W 6665  24.927   6.332  30.758  0.1314  0.0115 -0.0556
 4466W        W 6666  13.889   2.905  21.762 -0.0079  0.2333  0.0282
 4467W        W 6667  23.833   3.235  20.621  0.1133 -0.0714 -0.0904
 4468W        W 6668  10.960   5.302  14.794 -0.2110  0.0931 -0.2312
 4469W        W 6669  20.298   6.472   4.407 -0.0672  0.0344 -0.2229
 4470W        W 6670   7.256   3.367  24.452  0.0113  0.0804  0.2234
 4471W        W 6671  24.431   5.108  28.724 -0.3399 -0.2400  0.0999
 4472W        W 6672  24.234   2.111  30.324 -0.1598  0.1806  0.1297
 4473W        W 6673  19.231   1.768  12.462  0.0272  0.0727 -0.0396
 4474W        W 6674   2.033   5.695  14.629  0.0196  0.2311  0.2216
 4475W        W 6675  22.546   5.482  30.940 -0.3225  0.0095 -0.1223
 4476W        W 6676  18.956   6.274   0.486 -0.2766  0.2898  0.0001
 4477W        W 6677  23.281   1.874  25.556  0.1846  0.0394 -0.5158
 4478W        W 6678   3.212   0.696  24.723 -0.5534 -0.0109  0.0490
 4479W        W 6679  21.895   3.935  11.543  0.0327  0.2931  0.1148
 4480W        W 6680  12.844   3.354  26.893 -0.1900 -0.2367 -0.2057
 4481W        W 6681  11.449   4.177   1.407 -0.0333 -0.3883 -0.0388
 4482W        W 6682   4.867   0.242   0.193  0.4021 -0.1843 -0.0872
 4483W        W 6683   0.543   6.006   6.330  0.2512 -0.0200 -0.1950
 4484W        W 6684   0.660   4.567  33.770  0.3803 -0.0851 -0.2912
 4485W        W 6685  20.188   2.709  24.134  0.0971  0.1031  0.1169
 4486W        W 6686  12.890   2.069   2.334 -0.3063 -0.0794 -0.3658
 4487W        W 6687  24.364   4.665  30.229 -0.0776  0.1090  0.3374
 4488W        W 6688   8.475   0.542  11.838  0.3743  0.1503  0.0696
 4489W        W 6689  21.789   2.938   5.068  0.0397 -0.0819  0.1491
 4490W        W 6690  21.877   5.399  25.117  0.0024  0.1144 -0.1043
 4491W        W 6691  10.665   3.449   4.617  0.3743  0.2241  0.1456
 4492W        W 6692  21.711   0.464  34.360 -0.0588  0.0165  0.0549
 4493W        W 6693  13.877   2.346  14.624 -0.1499  0.0925  0.4127
 4494W        W 6694  15.383   4.075   4.837 -0.3898 -0.1333 -0.2657
 4495W        W 6695   2.018   4.429   3.893 -0.1477  0.0908 -0.1843
 4496W        W 6696   7.562   5.430  27.067  0.2466 -0.1527 -0.3194
 4497W        W 6697  17.794   2.250  22.804  0.0423  0.1004  0.1770
 4498W        W 6698  19.667   1.297  25.080 -0.2756 -0.1312  0.0387
 4499W        W 6699   2.444   5.198  35.484  0.1927  0.0308  0.1095
 4500W        W 6700  23.292   1.842  12.849 -0.0410  0.1301  0.0245
 4501W        W 6701  16.841   3.705   4.967 -0.1270 -0.0764  0.0902
 4502W        W 6702  24.248   1.557  28.060 -0.3360 -0.3029 -0.1511
 4503W        W 6703  16.569   5.872   4.971  0.1081 -0.0676 -0.1016
 4504W        W 6704   8.199   0.475  31.857  0.3736  0.1765  0.2208
 4505W        W 6705  17.560   5.603  34.592 -0.0626  0.0169 -0.0093
 4506W        W 6706  23.384   4.128  26.675  0.0453  0.3286 -0.2243
 4507W        W 6707   9.094   5.076   9.568 -0.7879 -0.0167 -0.3357
 4508W        W 6708  17.168   6.587  22.654 -0.2139  0.0978  0.0209
 4509W        W 6709   5.851   3.860  15.329 -0.2821  0.0526  0.0536
 4510W        W 6710  20.392   0.756  12.378  0.0700 -0.0631  0.0141
 4511W        W 6711   6.140   1.219  27.673  0.0072 -0.2702 -0.0028
 4512W        W 6712  20.187   5.085  27.159  0.0501 -0.2289  0.4154
 4513W        W 6713   3.002   3.134  13.540 -0.0339  0.1342 -0.3644
 4514W        W 6714   8.770   4.488  12.680 -0.2529 -0.0833  0.0910
 4515W        W 6715   9.149   5.021  31.851  0.2090 -0.0473 -0.0519
 4516W        W 6716  19.676   3.977   3.382  0.1445 -0.0843  0.0054
 4517W        W 6717  17.444   3.074  31.874 -0.0384 -0.0172  0.3601
 4518W        W 6718   0.986   5.134   3.862  0.2415 -0.0693  0.0995
 4519W        W 6719  15.408   0.828  33.491  0.1851 -0.0685  0.1796
 4520W        W 6720  15.286   3.067  27.638  0.1093 -0.2162  0.0402
 4521W        W 6721  14.452   3.976  27.732  0.2772  0.2176 -0.1663
 4522W        W 6722   8.420   2.871  15.098 -0.1346 -0.1958 -0.0239
 4523W        W 6723  22.792   2.749   5.489  0.2584  0.2517  0.2169
 4524W        W 6724  17.540   6.134  35.287  0.0288 -0.2654 -0.0135
 4525W        W 6725   8.892   4.476  32.935  0.0877 -0.1536  0.0819
 4526W        W 6726   8.497   2.953   3.436 -0.2358 -0.3633 -0.0057
 4527W        W 6727  11.010   2.076  25.213  0.1121  0.3887 -0.0871
 4528W        W 6728  22.556   0.711   4.681 -0.0868 -0.2300 -0.1698
 4529W        W 6729  11.492   2.258  26.140  0.2828  0.2134 -0.0093
 4530W        W 6730   9.496   3.291  29.675  0.1502 -0.0313  0.0312
 4531W        W 6731   0.700   1.851  26.117 -0.2574 -0.1792  0.0423
 4532W        W 6732   9.167   4.328  35.902 -0.0499  0.0860  0.1078
 4533W        W 6733  13.284   2.781  32.018  0.1315  0.1683 -0.2598
 4534W        W 6734  14.454   4.002  13.386 -0.0179 -0.0877  0.0707
 4535W        W 6735   3.624   2.470  32.656 -0.3157  0.0714  0.0160
 4536W        W 6736  25.063   2.903  14.824 -0.2343  0.1606  0.2076
 4537W        W 6737  17.759   4.084  14.036 -0.1079 -0.1376  0.2053
 4538W        W 6738   2.204   4.970   5.055  0.1079  0.0212  0.1946
 4539W        W 6739  11.473   5.059  30.152 -0.2110  0.2079  0.1951
 4540W        W 6740   7.600   4.263  29.255 -0.2774  0.0199  0.0242
 4541W        W 6741  10.674   0.034  34.386 -0.0419 -0.1856  0.2750
 4542W        W 6742  11.333   1.521   1.552  0.1287 -0.1919 -0.0331
 4543W        W 6743  11.443   6.443  35.828  0.1009  0.0394  0.0609
 4544W        W 6744  22.396   6.386  12.792  0.1520 -0.2553 -0.0968
 4545W        W 6745  25.068   6.023  14.184  0.0475  0.0462 -0.1643
 4546W        W 6746  21.482   5.879  20.869  0.0598 -0.0710  0.0402
 4547W        W 6747   1.592   5.770  22.625  0.1715  0.3955  0.2933
 4548W        W 6748   7.354   4.542   4.763  0.2198  0.1557 -0.0139
 4549W        W 6749  24.682   1.406   2.388  0.2937 -0.0418  0.2849
 4550W        W 6750  20.927   0.109   8.782  0.0633  0.1799 -0.1131
 4551W        W 6751  25.257   0.591   8.713 -0.3012  0.0022 -0.0154
 4552W        W 6752  18.483   3.787  28.971 -0.1268  0.0272 -0.1808
 4553W        W 6753  18.178   2.942  33.362 -0.0588 -0.0850  0.0132
 4554W        W 6754   8.651   1.970  13.694 -0.3283  0.0457 -0.0807
 4555W        W 6755  10.394   5.668   4.285 -0.0772 -0.1978 -0.0892
 4556W        W 6756  25.804   3.414   9.857 -0.0624 -0.2370 -0.0316
 4557W        W 6757   9.119   2.635   8.881 -0.2457  0.0818  0.0522
 4558W        W 6758   9.298   0.179  32.577 -0.1771 -0.1672 -0.1298
 4559W        W 6759  25.324   5.945   9.506 -0.1992 -0.1054  0.0047
 4560W        W 6760   1.812   4.800  31.701 -0.1503 -0.1964  0.1930
 4561W        W 6761  10.292   4.832  27.417 -0.1942  0.2731  0.2219
 4562W        W 6762   7.536   3.234   7.059 -0.0584 -0.0127  0.1317
 4563W        W 6763  21.936   4.078  26.055  0.0785  0.0536 -0.0291
 4564W        W 6764   8.310   3.431  23.313  0.1439 -0.2260 -0.0984
 4565W        W 6765  14.128   5.761   3.087 -0.0075  0.0990 -0.0090
 4566W        W 6766  19.169   1.901   7.379  0.1469 -0.2453  0.0020
 4567W        W 6767  25.192   0.117  27.449 -0.1425 -0.1176  0.5960
 4568W        W 6768   7.620   4.959  10.039  0.1078 -0.2783  0.1799
 4569W        W 6769   5.833   2.458  35.997  0.0905  0.0456 -0.0420
 4570W        W 6770  24.646   2.978  10.254 -0.0580  0.0279  0.0846
 4571W        W 6771  16.446   6.605   6.871 -0.1346  0.1626  0.0091
 4572W        W 6772   6.178   6.573  29.012  0.0930  0.2877 -0.1012
 4573W        W 6773  21.885   6.534  31.232  0.1097  0.1574 -0.0766
 4574W        W 6774  23.284   2.520   6.263  0.0977  0.0787 -0.0253
 4575W        W 6775   7.059   0.150  34.789 -0.0429 -0.1355 -0.3811
 4576W        W 6776   3.999   4.500  21.458 -0.1240  0.0374 -0.1948
 4577W        W 6777   8.104   6.574   1.944 -0.3054  0.2005 -0.1812
 4578W        W 6778  12.170   3.259  25.590  0.0470 -0.0076 -0.1261
 4579W        W 6779  20.875   1.430  24.866 -0.1764 -0.0231  0.0829
 4580W        W 6780  13.605   5.439  13.692  0.0971 -0.5431  0.2718
 4581W        W 6781  24.843   3.353  33.656 -0.2175  0.1002 -0.0424
 4582W        W 6782  14.065   0.610  34.779 -0.0156  0.4086 -0.0231
 4583W        W 6783  23.246   4.979  11.909 -0.0954  0.0344  0.0277
 4584W        W 6784   2.353   0.704  13.640  0.1157 -0.0351  0.0502
 4585W        W 6785   3.866   5.645  35.709 -0.0003 -0.2663  0.1083
 4586W        W 6786  24.946   5.099   0.809 -0.3348 -0.1226 -0.1326
 4587W        W 6787   9.646   0.937  30.016  0.1418  0.0890  0.1699
 4588W        W 6788  19.678   5.550  33.422 -0.2150  0.0382  0.0399
 4589W        W 6789   1.940   3.276  26.057  0.2437 -0.0308 -0.1622
 4590W        W 6790  12.373   3.373   4.205  0.1887  0.3313  0.0420
 4591W        W 6791  13.009   0.281   9.776  0.0155 -0.2410 -0.1462
 4592W        W 6792  19.675   3.321  25.623 -0.4667  0.0381 -0.1889
 4593W        W 6793  12.452   5.898  21.374 -0.0738 -0.0095  0.1322
 4594W        W 6794   2.906   2.380  12.278  0.3902  0.2849  0.2117
 4595W        W 6795  21.366   5.296  11.002  0.1157  0.2301  0.1557
 4596W        W 6796  13.429   4.807  35.964 -0.4737  0.1125 -0.1859
 4597W        W 6797   0.311   3.518   9.708  0.0217  0.1224 -0.0341
 4598W        W 6798  17.318   6.111  14.964  0.2780  0.1242  0.1866
 4599W        W 6799   3.524   1.937  32.493 -0.1008  0.0268  0.1472
 4600W        W 6800  14.621   5.236   9.001 -0.1293 -0.1042 -0.2921
 4601W        W 6801  14.192   2.800   0.951 -0.0698  0.0566 -0.2397
 4602W        W 6802  11.059   0.796  35.038 -0.0710 -0.1370 -0.1373
 4603W        W 6803   7.226   1.433  32.034  0.0368 -0.1401  0.0092
 4604W        W 6804   2.121   3.675  25.767 -0.3887  0.5086  0.2817
 4605W        W 6805  26.201   5.268  12.611 -0.2340  0.1647 -0.1887
 4606W        W 6806  24.482   5.226  14.817 -0.2496 -0.1544  0.1319
 4607W        W 6807   9.295   4.387  27.131 -0.1248  0.1175  0.4393
 4608W        W 6808  18.309   1.017  32.367 -0.0006 -0.1247  0.1535
 4609W        W 6809   9.454   1.874  10.216  0.0461  0.2624  0.3204
 4610W        W 6810  18.736   5.621  21.621  0.7908 -0.1567  0.1489
 4611W        W 6811   7.284   3.852   4.116 -0.0610 -0.0449 -0.0127
 4612W        W 6812   5.228   0.591   4.320 -0.0644 -0.2810 -0.2804
 4613W        W 6813   2.239   3.416  33.723 -0.2472 -0.1417 -0.2241
 4614W        W 6814   4.706   2.830  29.931  0.0236 -0.0461  0.0629
 4615W        W 6815   6.342   1.521   8.812 -0.1284 -0.1817 -0.2577
 4616W        W 6816  13.083   6.538   5.846  0.0654 -0.0657 -0.3003
 4617W        W 6817  23.557   5.235  28.373 -0.0105 -0.2416 -0.1887
 4618W        W 6818  15.258   5.028  34.715  0.2473 -0.1062 -0.0313
 4619W        W 6819  21.002   0.851  11.524 -0.0101 -0.2363  0.2613
 4620W        W 6820  20.121   2.542  28.635  0.3899 -0.0163 -0.1386
 4621W        W 6821  22.933   2.232  31.500  0.2773 -0.2051 -0.3009
 4622W        W 6822   5.849   4.459  25.036 -0.0610 -0.1534  0.2606
 4623W        W 6823  14.571   6.095   6.048 -0.2597  0.4439 -0.0572
 4624W        W 6824   6.531   3.847   7.112  0.1489  0.1215  0.2910
 4625W        W 6825  12.867   4.448   9.065  0.0662 -0.1586 -0.3080
 4626W        W 6826  24.674   3.951  11.897  0.0797  0.1468 -0.1432
 4627W        W 6827  13.494   2.417  32.823 -0.0238  0.3143  0.0796
 4628W        W 6828   6.531   1.829  31.762 -0.3795  0.1131  0.1443
 4629W        W 6829  21.720   5.337  29.139 -0.1668  0.1165  0.0184
 4630W        W 6830  17.613   3.500   9.874 -0.0318 -0.2068  0.2737
 4631W        W 6831  18.650   4.039  25.964  0.3165  0.2156  0.1241
 4632W        W 6832   6.713   3.511   5.542  0.0194  0.1716  0.2129
 4633W        W 6833   0.122   6.485   8.928 -0.0632 -0.0536 -0.1916
 4634W        W 6834  16.835   1.203  13.136  0.1973  0.0413 -0.1989
 4635W        W 6835  11.246   2.162  25.717  0.0401  0.0467  0.0152
 4636W        W 6836  13.234   3.704  12.112  0.0300  0.0540  0.1304
 4637W        W 6837  23.334   3.720  31.580 -0.3686 -0.0879 -0.1624
 4638W        W 6838  17.761   3.207  22.865 -0.1379 -0.0300 -0.1275
 4639W        W 6839  13.301   1.688   9.239 -0.1999  0.0066  0.2111
 4640W        W 6840   9.501   2.078  35.574  0.0830 -0.2175 -0.0027
 4641W        W 6841   6.543   0.625  21.651 -0.1704 -0.0613  0.0713
 4642W        W 6842   2.203   1.457  13.115  0.0146 -0.4061  0.0703
 4643W        W 6843   3.846   3.908  23.831  0.1465  0.1699 -0.0915
 4644W        W 6844   1.281   2.167   6.173  0.1086 -0.1679 -0.0548
 4645W        W 6845   4.492   4.033  10.029  0.0952  0.0790  0.1263
 4646W        W 6846  10.618   4.591  11.208 -0.2205 -0.0666  0.2149
 4647W        W 6847   2.610   5.035  28.798  0.0407  0.1210  0.1152
 4648W        W 6848   1.140   1.899  36.100  0.1713  0.1157 -0.0038
 4649W        W 6849   3.180   5.035   1.525 -0.0539 -0.0951 -0.2613
 4650W        W 6850   5.471   0.372  33.009  0.1134  0.0149 -0.2195
 4651W        W 6851  17.722   5.063  28.532 -0.0646  0.2840  0.0217
 4652W        W 6852   7.169   6.586   5.128 -0.0928  0.0501  0.0590
 4653W        W 6853   9.878   4.706  29.472  0.1386  0.0389  0.1578
 4654W        W 6854  17.866   4.951  24.530 -0.0015  0.0095 -0.0249
 4655W        W 6855  11.212   3.619  32.176  0.1326 -0.1015 -0.0325
 4656W        W 6856  14.780   5.441  23.816 -0.1084 -0.0153  0.3923
 4657W        W 6857   2.516   4.114  28.051 -0.2071  0.0612 -0.0828
 4658W        W 6858   9.875   2.656  12.983  0.1993 -0.0779 -0.1085
 4659W        W 6859   1.323   4.000  12.416  0.1505  0.2607 -0.0655
 4660W        W 6860  12.035   6.476  11.621 -0.1547 -0.0152 -0.2874
 4661W        W 6861  17.890   4.359  29.849  0.0120  0.1783  0.3393
 4662W        W 6862   0.182   2.742  23.227  0.0513  0.0009 -0.3363
 4663W        W 6863  14.478   5.753   7.360 -0.2633  0.0018  0.2876
 4664W        W 6864  19.379   4.239   5.268  0.0335 -0.0476 -0.0295
 4665W        W 6865  17.414   6.412   3.891 -0.0454  0.2528 -0.0429
 4666W        W 6866  17.361   3.808  33.023 -0.1441  0.0967 -0.1759
 4667W        W 6867  15.776   4.567  33.038 -0.3456 -0.0456  0.0520
 4668W        W 6868  20.084   5.890  24.902  0.0611  0.3387  0.1383
 4669W        W 6869  15.738   6.360  30.420  0.1214 -0.2581  0.1868
 4670W        W 6870   0.051   3.124  28.318 -0.1252 -0.1275  0.1066
 4671W        W 6871  21.389   0.892   6.842  0.0073  0.1793  0.3621
 4672W        W 6872   2.199   5.911  13.045 -0.1122  0.0139  0.0128
 4673W        W 6873   5.089   4.317  15.404 -0.2251  0.2441  0.0082
 4674W        W 6874  13.517   5.723   1.458 -0.0308  0.2364  0.0355
 4675W        W 6875   1.337   5.472  26.574 -0.0055 -0.2265  0.2856
 4676W        W 6876  15.148   0.115  29.799  0.0242  0.0625  0.2361
 4677W        W 6877  14.239   4.706  10.836  0.0850  0.2529  0.4098
 4678W        W 6878   7.051   5.572   5.235  0.0404  0.2608  0.0298
 4679W        W 6879   2.253   5.520  25.664  0.1309  0.1498 -0.0882
 4680W        W 6880   3.054   5.563  20.618 -0.1652  0.2095  0.1973
 4681W        W 6881   1.804   3.179  28.940 -0.2073 -0.2438  0.0732
 4682W        W 6882   4.003   2.700   6.244 -0.2906 -0.3554  0.3686
 4683W        W 6883  18.100   5.678  29.974  0.1348 -0.0769 -0.0404
 4684W        W 6884  11.300   0.297   4.711  0.0348 -0.0746  0.0379
 4685W        W 6885  17.172   5.531  25.805  0.3406  0.0783  0.1361
 4686W        W 6886  17.692   5.136   3.690  0.0485  0.0924  0.0328
 4687W        W 6887   5.066   5.013  23.853  0.1382 -0.0207  0.2693
 4688W        W 6888  24.341   4.089  21.804 -0.1033  0.2307  0.2085
 4689W        W 6889  12.349   0.270  30.208  0.0890  0.0090  0.2131
 4690W        W 6890  19.304   5.266  24.010 -0.0101  0.0015  0.2833
 4691W        W 6891   7.311   5.402  22.606 -0.1094 -0.0875 -0.0581
 4692W        W 6892   2.836   2.862  25.185  0.4261  0.0861 -0.0091
 4693W        W 6893   7.246   3.357  31.696 -0.0263 -0.1280 -0.0725
 4694W        W 6894  16.094   3.798  29.227  0.0579 -0.0905 -0.4404
 4695W        W 6895  21.784   0.037  25.569 -0.0246 -0.2421 -0.0858
 4696W        W 6896   6.737   2.602  28.060  0.2668 -0.2803 -0.0702
 4697W        W 6897  17.355   3.466  13.507 -0.2902 -0.3329 -0.1463
 4698W        W 6898  25.573   6.237  35.395 -0.0123 -0.2461  0.0975
 4699W        W 6899  22.985   6.143   9.565  0.0103 -0.2004  0.0786
 4700W        W 6900  14.412   5.229  13.173  0.2493  0.0779  0.0931
 4701W        W 6901  21.625   0.800  11.929  0.0195 -0.0571  0.1283
 4702W        W 6902   4.652   5.437   8.167  0.0084 -0.0922  0.0557
 4703W        W 6903  21.364   5.508  31.146  0.0547 -0.0033 -0.1082
 4704W        W 6904   1.633   3.940  29.609 -0.1936 -0.2772 -0.0113
 4705W        W 6905  10.061   5.335  25.291 -0.0639  0.1987  0.1752
 4706W        W 6906  25.219   3.326  31.361  0.1120  0.1115  0.1463
 4707W        W 6907  21.102   5.955   7.654  0.1065 -0.2734  0.1991
 4708W        W 6908   8.945   3.178  26.362 -0.1842  0.0384  0.3316
 4709W        W 6909  16.425   6.498  23.803  0.0787  0.0332 -0.4401
 4710W        W 6910  25.634   3.389  10.930 -0.1208  0.0884 -0.0720
 4711W        W 6911  12.483   4.079  30.669 -0.0426 -0.3290 -0.1813
 4712W        W 6912   7.106   0.731  36.132  0.2809 -0.1356 -0.0641
 4713W        W 6913  25.373   4.922  25.014  0.2203  0.1173  0.2754
 4714W        W 6914  14.133   3.115  24.495 -0.0628 -0.3596  0.2807
 4715W        W 6915  17.243   2.452   7.192  0.1679 -0.0843 -0.0717
 4716W        W 6916  14.037   4.252  26.576 -0.1040 -0.2971  0.0037
 4717W        W 6917   1.543   5.298  31.739 -0.0017 -0.0678  0.1957
 4718W        W 6918  23.035   3.506  35.014 -0.1660 -0.2468 -0.0261
 4719W        W 6919  17.581   6.366  14.617 -0.3000 -0.3319  0.0174
 4720W        W 6920  12.768   3.817   1.877 -0.1700 -0.0593 -0.1816
 4721W        W 6921  22.879   0.880  24.880 -0.0599 -0.2171 -0.0660
 4722W        W 6922   1.811   6.412  10.285 -0.1215  0.1473  0.0550
 4723W        W 6923  16.132   2.843  29.829 -0.1519  0.1424 -0.0331
 4724W        W 6924   4.764   4.220   1.457 -0.1067  0.2255 -0.0664
 4725W        W 6925  25.441   3.482  25.909  0.1086 -0.0571  0.4472
 4726W        W 6926   8.973   4.757  24.486 -0.3557 -0.1046 -0.1065
 4727W        W 6927  17.545   4.438  27.202  0.2731 -0.2029  0.1873
 4728W        W 6928   4.686   1.475  14.575  0.0927  0.2742 -0.0257
 4729W        W 6929  18.469   0.341  14.367  0.0965  0.0233  0.0806
 4730W        W 6930  12.906   5.631  29.613 -0.0298  0.1274 -0.0880
 4731W        W 6931   8.658   3.380   4.860  0.1700  0.2927 -0.1952
 4732W        W 6932  21.274   4.624   5.638 -0.1366 -0.1071  0.1854
 4733W        W 6933   9.961   1.384   8.000  0.0311  0.2389  0.4108
 4734W        W 6934  18.235   5.052   9.181 -0.4773 -0.0607 -0.1441
 4735W        W 6935  11.200   0.349   6.635 -0.0533 -0.1046 -0.0087
 4736W        W 6936   2.893   3.714  23.650  0.2767  0.0901  0.0001
 4737W        W 6937  14.509   0.373   1.869 -0.1826  0.4749  0.4508
 4738W        W 6938  24.112   5.364   7.669 -0.5137  0.0183  0.1417
 4739W        W 6939  13.686   5.519   4.004  0.1919  0.1899  0.1604
 4740W        W 6940  15.019   5.592  32.432 -0.0403  0.1648 -0.0115
 4741W        W 6941  19.604   5.737  36.083 -0.2191 -0.0923  0.1304
 4742W        W 6942   6.490   1.254  34.289  0.3895 -0.0726  0.2273
 4743W        W 6943   5.836   6.123   2.943  0.0207  0.1701 -0.2142
 4744W        W 6944  10.531   1.259  13.548  0.0789 -0.0318  0.0426
 4745W        W 6945  22.268   4.743  13.113  0.0112  0.2336  0.2105
 4746W        W 6946   2.625   5.341  26.652 -0.2967  0.2244 -0.0363
 4747W        W 6947  20.763   4.029  33.185  0.2316  0.3379  0.3604
 4748W        W 6948  17.752   1.669   7.687 -0.1006  0.3448  0.1410
 4749W        W 6949   6.924   2.698  11.234 -0.3580 -0.1434  0.0282
 4750W        W 6950   3.017   0.113   9.318  0.2153  0.1923 -0.0820
 4751W        W 6951  18.397   4.418   0.279  0.3558  0.2336  0.1543
 4752W        W 6952   9.661   0.736  23.922 -0.1933 -0.2122  0.0142
 4753W        W 6953  15.611   0.964  20.815  0.1597  0.0259 -0.0835
 4754W        W 6954   4.892   3.241  23.243 -0.0432  0.2432  0.3638
 4755W        W 6955   8.087   5.375  32.972 -0.0084  0.0958  0.1100
 4756W        W 6956   1.697   0.283  11.561  0.0755 -0.2436  0.0871
 4757W        W 6957  10.802   5.942  15.992  0.1001  0.0239 -0.0088
 4758W        W 6958  10.114   6.448   7.957  0.2317  0.2004 -0.2055
 4759W        W 6959   2.669   2.815  23.591  0.1575  0.1701 -0.3818
 4760W        W 6960  12.739   5.294   6.772 -0.0276 -0.0846 -0.3793
 4761W        W 6961  11.670   3.792  35.753 -0.2627 -0.0148  0.0035
 4762W        W 6962   7.257   5.874  24.812 -0.1915  0.2661 -0.1688
 4763W        W 6963  20.939   2.602   5.646 -0.3132  0.0436 -0.2380
 4764W        W 6964   2.440   6.224  15.730 -0.0217 -0.2113 -0.1156
 4765W        W 6965   2.046   5.888  26.423  0.2946  0.2280 -0.1119
 4766W        W 6966   9.247   2.522   2.823 -0.3973  0.2717  0.2372
 4767W        W 6967   9.555   5.873  28.155 -0.1739 -0.3175 -0.0795
 4768W        W 6968  22.143   3.059  15.332  0.0393  0.2472  0.0496
 4769W        W 6969   4.676   3.616  20.639  0.0192 -0.0439 -0.0326
 4770W        W 6970  13.882   6.200  30.703  0.0595 -0.1926 -0.1568
 4771W        W 6971   6.018   5.352  24.518 -0.0296 -0.0745 -0.0258
 4772W        W 6972  10.464   0.705  25.902 -0.4325 -0.4334  0.0036
 4773W        W 6973   2.558   1.224   0.210 -0.0220  0.3369 -0.3014
 4774W        W 6974   7.342   1.394  13.989 -0.3478  0.2343 -0.0713
 4775W        W 6975   3.586   5.249   8.602  0.1356 -0.1812  0.1737
 4776W        W 6976  18.166   3.596   6.036 -0.4688 -0.0300  0.0330
 4777W        W 6977  15.347   5.427  35.691  0.0686 -0.1242  0.0993
 4778W        W 6978   9.401   4.647  33.335  0.1069 -0.1831  0.3887
 4779W        W 6979  20.407   3.663   9.008  0.0571 -0.1676  0.0439
 4780W        W 6980   2.192   5.057  28.524 -0.1595  0.0769  0.1488
 4781W        W 6981  14.252   5.619  33.426  0.4559  0.0625  0.0051
 4782W        W 6982   0.471   3.924  36.067 -0.1405 -0.0086  0.0465
 4783W        W 6983   9.125   0.246  35.190  0.2092 -0.3721  0.0264
 4784W        W 6984  21.023   4.950  25.416 -0.0066  0.1618  0.2749
 4785W        W 6985  19.647   2.183  24.128  0.1179  0.1042  0.0587
 4786W        W 6986  24.923   4.091  34.457  0.0357  0.1714 -0.0789
 4787W        W 6987  18.975   6.544  31.063  0.1694 -0.1944  0.1341
 4788W        W 6988  25.858   3.982  33.449  0.1491 -0.1796  0.0396
 4789W        W 6989   2.920   3.726  24.116  0.2667 -0.0367 -0.0230
 4790W        W 6990   5.098   3.160  30.183 -0.1660  0.1970  0.0764
 4791W        W 6991   9.426   2.263  21.824 -0.0324  0.1410 -0.1377
 4792W        W 6992  19.434   1.460   4.157  0.2456 -0.0142 -0.0120
 4793W        W 6993  15.076   1.077  25.017 -0.1871  0.1219 -0.2874
 4794W        W 6994  10.159   2.870   2.075 -0.1582 -0.1702  0.2185
 4795W        W 6995   5.724   1.676  30.685  0.1142 -0.0185  0.2091
 4796W        W 6996  24.780   0.209  25.954 -0.0263  0.3532  0.2638
 4797W        W 6997  15.643   4.083  36.070 -0.0295 -0.1153  0.1874
 4798W        W 6998   7.293   0.190   0.866  0.1285 -0.1314  0.2527
 4799W        W 6999   6.042   2.433  10.885 -0.1885 -0.0937  0.4827
 4800W        W 7000  18.051   0.491   8.626  0.2422  0.0457  0.4887
 4801W        W 7001  22.796   0.651  31.192 -0.2366  0.1742 -0.1265
 4802W        W 7002  17.964   3.722  11.101 -0.0667  0.2884 -0.0150
 4803W        W 7003  25.868   3.492   8.420 -0.0610 -0.0761 -0.1257
 4804W        W 7004  11.348   2.609  12.105 -0.1597  0.0874 -0.0153
 4805W        W 7005  12.896   4.435  12.218 -0.1839  0.2033 -0.3408
 4806W        W 7006   7.987   5.242   6.925  0.0961 -0.2762  0.0591
 4807W        W 7007   2.513   2.214   9.635  0.0107 -0.1088 -0.1562
 4808W        W 7008  11.285   2.987  31.609  0.1866 -0.1469  0.0154
 4809W        W 7009   4.724   5.226  33.473 -0.2855  0.1440  0.4247
 4810W        W 7010   5.822   2.641   7.075  0.1164  0.1507 -0.1964
 4811W        W 7011   3.208   1.302  26.559  0.0370  0.4621  0.3195
 4812W        W 7012  15.993   1.946   2.865 -0.1674  0.1195 -0.0191
 4813W        W 7013  25.138   5.092  21.347  0.1305  0.0711 -0.0615
 4814W        W 7014  20.834   4.355   4.937  0.0081  0.0855 -0.3825
 4815W        W 7015   5.082   3.186   4.432 -0.1890 -0.0852  0.1532
 4816W        W 7016   3.295   3.616  14.827  0.1525 -0.0603 -0.0779
 4817W        W 7017  13.079   2.918  12.505  0.0075  0.0412 -0.1564
 4818W        W 7018   7.645   6.038  25.121 -0.2442 -0.0432  0.0531
 4819W        W 7019   4.288   3.703   8.218 -0.2061 -0.0414  0.2616
 4820W        W 7020  14.087   2.164  11.741  0.2879 -0.0852 -0.1647
 4821W        W 7021   5.343   0.136   4.013 -0.0960 -0.0491 -0.0694
 4822W        W 7022   0.261   5.412   8.327  0.0952  0.3760 -0.0514
 4823W        W 7023   4.566   1.005   9.528  0.1068 -0.1935  0.2276
 4824W        W 7024  13.274   3.359  23.540  0.2958  0.0664 -0.0988
 4825W        W 7025  23.999   6.309   6.523  0.0200 -0.0614  0.1133
 4826W        W 7026   8.087   5.151   9.092 -0.1272  0.0949  0.0448
 4827W        W 7027  12.248   4.510  34.519  0.3731 -0.1687  0.0538
 4828W        W 7028  26.267   0.308  35.381  0.0028 -0.0935 -0.0095
 4829W        W 7029   8.226   3.172   1.569  0.1761  0.1568 -0.1167
 4830W        W 7030  20.151   5.594  24.407 -0.1801 -0.0229  0.0766
 4831W        W 7031   2.748   0.923  32.379 -0.3190  0.2247 -0.0028
 4832W        W 7032  14.039   5.351  30.094  0.2912 -0.0866  0.1323
 4833W        W 7033   0.264   4.059   7.570  0.0790 -0.2184 -0.0935
 4834W        W 7034  25.152   5.873   3.805 -0.2344  0.0762 -0.1627
 4835W        W 7035  21.559   1.365  26.687  0.0511 -0.2780 -0.0314
 4836W        W 7036  19.279   2.542  27.220 -0.1735 -0.1057  0.0508
 4837W        W 7037  10.434   3.178  21.502  0.0046 -0.1413  0.2085
 4838W        W 7038   7.371   5.184  26.562  0.0166  0.0675 -0.0846
 4839W        W 7039  23.859   5.407  21.675 -0.0823  0.2771 -0.0078
 4840W        W 7040  16.054   5.101  24.480 -0.4079 -0.1364  0.1015
 4841W        W 7041   4.770   4.733  27.995  0.0813  0.3175  0.1668
 4842W        W 7042   9.740   5.755  32.978  0.1116 -0.0450  0.2773
 4843W        W 7043  23.380   6.584  10.454 -0.2502  0.0405 -0.0726
 4844W        W 7044   5.231   3.556  27.329 -0.0356  0.1318 -0.1602
 4845W        W 7045   2.114   3.201  14.698  0.1168 -0.0490  0.1419
 4846W        W 7046   6.305   2.381  24.087  0.0290 -0.1074  0.0632
 4847W        W 7047   8.747   2.213  27.667  0.3494  0.2547  0.1016
 4848W        W 7048   4.367   3.946  34.439 -0.0589  0.0041 -0.3201
 4849W        W 7049  10.415   0.688   5.571  0.1087 -0.0767  0.0119
 4850W        W 7050   3.560   1.541  25.361 -0.0593  0.1389  0.2986
 4851W        W 7051  13.861   4.161  32.318 -0.0220  0.0398  0.0946
 4852W        W 7052  10.121   5.597  26.268  0.1745  0.1282 -0.0174
 4853W        W 7053  24.305   4.133   4.027 -0.1806  0.0409  0.0636
 4854W        W 7054  23.317   1.488  31.053  0.2496 -0.0281 -0.0644
 4855W        W 7055  23.121   0.727  23.197 -0.0888  0.2647  0.0987
 4856W        W 7056  17.939   4.534  10.267 -0.5138 -0.5354 -0.1089
 4857W        W 7057  14.079   5.574  11.278  0.1243  0.0473 -0.2861
 4858W        W 7058   2.160   3.236  26.981 -0.0542 -0.2113 -0.0376
 4859W        W 7059  12.582   0.884  34.565  0.1865  0.2697 -0.0332
 4860W        W 7060   4.203   5.272   5.555  0.2039  0.4218 -0.3246
 4861W        W 7061  10.054   0.512  13.771  0.1134 -0.0019  0.0115
 4862W        W 7062   5.188   2.971   0.802  0.0873 -0.1185  0.0071
 4863W        W 7063   4.486   5.470  11.408  0.1421 -0.1258 -0.2583
 4864W        W 7064   6.030   3.954  20.824 -0.1484  0.0330  0.1509
 4865W        W 7065  25.867   3.976  13.902  0.2481 -0.1468  0.0462
 4866W        W 7066   7.293   0.722   5.349  0.0452 -0.1068  0.1718
 4867W        W 7067  20.232   3.542  28.048  0.4828  0.0739  0.1044
 4868W        W 7068   9.661   1.779   9.684  0.2129  0.0345  0.1194
 4869W        W 7069   4.226   5.151  21.988  0.1965 -0.0895  0.3032
 4870W        W 7070  13.641   1.863  31.008 -0.1600  0.4701 -0.0603
 4871W        W 7071  22.731   2.236  28.591  0.0110  0.2822 -0.1268
 4872W        W 7072  24.633   3.551   1.757  0.0353  0.1704 -0.2255
 4873W        W 7073   4.086   1.165  24.106  0.1763 -0.1399  0.0311
 4874W        W 7074  24.925   4.498   6.852 -0.0064  0.2735 -0.1742
 4875W        W 7075   4.967   0.397  31.806 -0.2799  0.0780 -0.0178
 4876W        W 7076   1.082   3.941   1.141  0.1928  0.0294 -0.0530
 4877W        W 7077  15.814   3.615   1.150  0.1304 -0.0480 -0.3427
 4878W        W 7078   6.417   1.810   4.583 -0.0600  0.2769  0.0896
 4879W        W 7079   9.255   0.210  24.473 -0.0981  0.3480  0.1301
 4880W        W 7080  26.390   0.177  29.704  0.3135  0.0916  0.2762
 4881W        W 7081  18.433   0.290   5.904  0.1078  0.1677  0.1362
 4882W        W 7082   0.060   1.386   3.608  0.0167  0.1951 -0.0490
 4883W        W 7083   0.349   6.090   0.813  0.1134  0.2261 -0.0646
 4884W        W 7084  12.418   3.578  10.744  0.5619  0.0008  0.0429
 4885W        W 7085  21.220   4.425  21.562 -0.2924 -0.2307  0.0421
 4886W        W 7086  19.453   2.715   5.024 -0.0232 -0.1732  0.0153
 4887W        W 7087   2.882   0.305  14.575  0.0101 -0.0433 -0.2584
 4888W        W 7088   8.856   0.564  28.389 -0.2195 -0.2904 -0.0039
 4889W        W 7089  24.095   2.777   5.551  0.0525 -0.2592  0.1669
 4890W        W 7090  21.790   2.566  30.764  0.2079 -0.1448  0.1814
 4891W        W 7091  19.125   3.310  25.593  0.1342 -0.2251  0.4761
 4892W        W 7092  23.741   1.762   6.409  0.3247  0.2137  0.0501
 4893W        W 7093  16.383   0.169  21.740 -0.0351  0.2743  0.0114
 4894W        W 7094  19.606   5.098  15.084 -0.0023 -0.1022  0.1387
 4895W        W 7095  11.610   5.088  29.592 -0.1704 -0.2710  0.0317
 4896W        W 7096   3.089   3.779  29.690 -0.0790  0.0419 -0.3683
 4897W        W 7097  20.357   1.814   2.523  0.0363  0.0296  0.2072
 4898W        W 7098   1.344   1.073  10.476 -0.3231  0.3287  0.1139
 4899W        W 7099  23.245   0.157  21.468  0.2580 -0.2618  0.0658
 4900W        W 7100   6.453   3.643  24.968  0.0630 -0.0853  0.0247
 4901W        W 7101   6.320   0.998   9.568 -0.1511  0.0977  0.0773
 4902W        W 7102   0.567   2.856  24.059 -0.4099  0.0037 -0.1608
 4903W        W 7103  18.155   6.578  26.057 -0.2537 -0.1204 -0.0838
 4904W        W 7104  21.865   1.291  14.399  0.2507 -0.0964  0.2573
 4905W        W 7105  18.274   3.667   3.621 -0.1178 -0.1437 -0.0862
 4906W        W 7106   6.593   3.137  11.130 -0.0361 -0.3767 -0.1958
 4907W        W 7107  24.947   2.606  36.104 -0.0527  0.3213 -0.1266
 4908W        W 7108  14.156   0.790  22.679 -0.0737 -0.1468 -0.0265
 4909W        W 7109  16.856   5.797  21.616  0.2091  0.1355 -0.0101
 4910W        W 7110  22.831   0.138  25.378  0.0477 -0.2482 -0.2262
 4911W        W 7111  12.178   1.580  12.126 -0.2896  0.0841  0.0342
 4912W        W 7112   8.304   2.158   4.960 -0.2480 -0.1517  0.0412
 4913W        W 7113   2.566   1.387  35.512 -0.0091  0.3107 -0.0666
 4914W        W 7114  17.730   4.939   1.794 -0.0233  0.1292 -0.0656
 4915W        W 7115   0.286   4.006   0.430  0.0814  0.0392 -0.0118
 4916W        W 7116  16.118   2.047  10.580 -0.0863 -0.1456  0.4669
 4917W        W 7117  21.117   3.047  33.324  0.0251  0.0440 -0.0770
 4918W        W 7118  22.648   4.299   4.492 -0.0342  0.0463 -0.3749
 4919W        W 7119  13.234   3.980   2.012 -0.0420 -0.3434 -0.1362
 4920W        W 7120  12.977   2.214  35.857 -0.1450  0.1273 -0.0753
 4921W        W 7121  13.416   5.271  12.340 -0.0910 -0.0013 -0.1821
 4922W        W 7122   6.727   2.500   2.989  0.0250 -0.0402  0.0457
 4923W        W 7123  13.887   5.764  25.098  0.1614  0.2027 -0.1264
 4924W        W 7124  22.314   3.545  12.294  0.3977 -0.1063  0.3284
 4925W        W 7125  17.032   0.214  35.106 -0.0241  0.0546 -0.1083
 4926W        W 7126  23.975   5.100  12.554 -0.1162 -0.1817 -0.1535
 4927W        W 7127  10.929   3.773  30.715 -0.1823 -0.0590 -0.0609
 4928W        W 7128   3.406   1.720  21.280 -0.1513 -0.1723  0.1338
 4929W        W 7129  10.733   5.767  34.466 -0.1381 -0.0457  0.1176
 4930W        W 7130  22.452   0.918  20.966  0.0213 -0.2839  0.0709
 4931W        W 7131  21.765   4.938   3.288  0.1428 -0.4343 -0.2190
 4932W        W 7132  17.852   2.349  24.438  0.1879  0.0662 -0.1692
 4933W        W 7133   4.082   3.091  21.253 -0.1890 -0.2578  0.2587
 4934W        W 7134  15.480   2.736  15.651  0.4019  0.2684  0.2495
 4935W        W 7135   6.295   0.021  12.959 -0.0790 -0.1691  0.2336
 4936W        W 7136  14.075   3.647   0.248 -0.2836 -0.1007 -0.3202
 4937W        W 7137  17.061   2.601  24.013  0.0325 -0.2535 -0.0348
 4938W        W 7138   7.381   4.852   6.526  0.2091  0.0617  0.0139
 4939W        W 7139  21.425   4.864   2.691  0.0516  0.0480 -0.0235
 4940W        W 7140  17.060   0.797  26.496 -0.1045  0.1196  0.0011
 4941W        W 7141   8.067   6.240  22.470  0.0976 -0.0776 -0.2719
 4942W        W 7142  22.973   6.284  11.759  0.0612 -0.2292 -0.3512
 4943W        W 7143  18.095   2.906  13.424  0.1626  0.4803  0.0023
 4944W        W 7144  10.031   4.807   5.978 -0.0011  0.1889 -0.3454
 4945W        W 7145  16.918   2.961   8.703 -0.1403  0.0155  0.0596
 4946W        W 7146   1.133   5.482   8.025  0.0550 -0.0150  0.1874
 4947W        W 7147  12.654   0.901  10.804  0.0631  0.1471  0.1183
 4948W        W 7148   5.758   0.838  27.750 -0.2614 -0.1819 -0.2287
 4949W        W 7149   4.644   0.276  35.049 -0.2285 -0.0845  0.0395
 4950W        W 7150   1.107   4.935  26.725  0.0227 -0.0502 -0.1675
 4951W        W 7151   0.176   4.876  20.574  0.2001 -0.1616 -0.1525
 4952W        W 7152   0.772   1.953  26.980 -0.0326 -0.0351 -0.2082
 4953W        W 7153  16.200   3.209  34.053  0.3817 -0.1616  0.4298
 4954W        W 7154   0.637   5.818  10.888  0.0674  0.0678 -0.0604
 4955W        W 7155   0.107   0.276  22.153 -0.4461  0.2945  0.0134
 4956W        W 7156   3.393   6.062  10.562 -0.1501 -0.0854  0.0358
 4957W        W 7157  20.476   4.458  12.621  0.4484  0.1075  0.0950
 4958W        W 7158  16.324   3.784  27.865  0.3551  0.3642 -0.1394
 4959W        W 7159  12.925   1.750  22.203 -0.1216  0.1467 -0.1933
 4960W        W 7160  25.966   5.961  20.495 -0.0427 -0.0099  0.0845
 4961W        W 7161   9.435   4.401  34.487 -0.0489  0.2769 -0.0045
 4962W        W 7162  17.877   6.275  26.287  0.1074 -0.2803  0.4374
 4963W        W 7163  16.972   0.413  33.641  0.2698 -0.1989 -0.0445
 4964W        W 7164  13.120   1.134  15.425  0.0311  0.2257 -0.0793
 4965W        W 7165  25.225   3.188   7.861 -0.0711  0.0739  0.0860
 4966W        W 7166   1.382   1.797  12.182 -0.1765  0.0687 -0.1688
 4967W        W 7167  10.466   3.562  29.489 -0.3396 -0.0988 -0.0939
 4968W        W 7168  19.762   2.228  13.013  0.3552  0.2113  0.3168
 4969W        W 7169   8.455   6.262  12.740 -0.1609  0.0214  0.2219
 4970W        W 7170   5.429   3.036  35.175  0.1402 -0.0024 -0.2267
 4971W        W 7171  20.629   6.148  31.987 -0.0081 -0.1094 -0.1132
 4972W        W 7172   5.127   2.925   5.388  0.1298  0.1257  0.0075
 4973W        W 7173  12.714   0.351  32.003 -0.2058  0.0576 -0.1118
 4974W        W 7174  19.225   4.676  25.202  0.0108  0.0070 -0.0891
 4975W        W 7175   7.764   4.070  36.173 -0.2252 -0.0726 -0.2196
 4976W        W 7176  10.692   6.484  27.133 -0.0102 -0.0301  0.1190
 4977W        W 7177  20.980   6.194  28.173 -0.3361 -0.3918 -0.2272
 4978W        W 7178  14.986   5.064  33.866 -0.0985 -0.0718  0.3093
 4979W        W 7179  14.986   0.738   0.703  0.1330  0.1309  0.1494
 4980W        W 7180   2.662   6.408   4.255  0.2973 -0.1935  0.1712
 4981W        W 7181  15.911   5.558  14.351 -0.0073 -0.0219  0.1897
 4982W        W 7182  18.594   0.109  20.359 -0.1800  0.1470  0.2992
 4983W        W 7183   6.178   2.347  30.875  0.3195  0.0338  0.2087
 4984W        W 7184   8.463   3.957   3.373  0.2899 -0.0710  0.2447
 4985W        W 7185  10.375   4.602  10.684  0.0741  0.0138  0.1529
 4986W        W 7186   8.715   3.507  32.888 -0.1079  0.0321 -0.0321
 4987W        W 7187  17.202   4.118   7.477  0.0795  0.0520 -0.3552
 4988W        W 7188   6.067   4.060  11.098  0.1241 -0.1471 -0.0419
 4989W        W 7189   7.775   3.835  29.398  0.2161 -0.0304  0.3839
 4990W        W 7190   7.454   6.036  20.899  0.2506 -0.2121  0.0641
 4991W        W 7191  11.920   3.002  29.751  0.2548 -0.1586 -0.1180
 4992W        W 7192  21.160   1.994  32.412 -0.0078 -0.2011  0.4118
 4993W        W 7193  10.772   5.501   7.899  0.0717  0.0986  0.0295
 4994W        W 7194  21.575   4.295  21.824 -0.1369 -0.1251 -0.3793
 4995W        W 7195  14.864   6.492  26.370 -0.0576  0.0823  0.1140
 4996W        W 7196   1.346   3.841   4.185  0.1465  0.0035 -0.0090
 4997W        W 7197   2.131   2.135  32.742  0.0939 -0.2747 -0.0737
 4998W        W 7198   7.299   0.506  23.917  0.1202  0.1261 -0.0695
 4999W        W 7199   7.934   3.437  12.612 -0.2496  0.4395 -0.0621
 5000W        W 7200   9.212   0.163  22.487  0.1282  0.2053  0.2014
 5001W        W 7201   7.972   3.996  14.038 -0.1335 -0.1554 -0.1335
 5002W        W 7202  12.956   1.753   5.838 -0.2645  0.0901  0.2471
 5003W        W 7203  25.899   0.493  21.979  0.1037 -0.3144 -0.0071
 5004W        W 7204  13.658   1.643  10.247  0.2063 -0.0563 -0.2465
 5005W        W 7205   1.796   1.761  27.915 -0.2496 -0.0588  0.1232
 5006W        W 7206  12.286   3.832  32.495  0.1216  0.0728  0.2645
 5007W        W 7207  17.703   1.475   6.790  0.2188 -0.1564 -0.1232
 5008W        W 7208  20.032   5.944  23.012  0.1057 -0.3252 -0.0539
 5009W        W 7209  20.283   3.313   7.490 -0.3902 -0.0308 -0.0989
 5010W        W 7210   3.992   2.828   0.525 -0.0935 -0.2690 -0.1762
 5011W        W 7211   5.462   6.533  15.115 -0.0288  0.0920  0.1480
 5012W        W 7212  11.159   5.068  23.362 -0.2257 -0.1576  0.2739
 5013W        W 7213  14.675   2.199   1.688 -0.0285  0.1194 -0.1255
 5014W        W 7214   9.909   2.270  15.038 -0.1746 -0.1962  0.1777
 5015W        W 7215  11.217   1.107  34.706 -0.0460 -0.2663  0.4496
 5016W        W 7216  14.536   0.379  36.178 -0.0956 -0.1050 -0.1191
 5017W        W 7217   9.814   5.112   8.309  0.0492 -0.0765  0.3118
 5018W        W 7218  17.643   1.825  32.116 -0.0658  0.0691 -0.1515
 5019W        W 7219   9.932   5.568  28.102  0.0289  0.1423  0.0337
 5020W        W 7220   9.245   3.130   5.345 -0.3260 -0.0805 -0.4549
 5021W        W 7221  14.255   4.199  10.591 -0.1231  0.0905  0.0505
 5022W        W 7222  21.165   6.561   3.790  0.2149 -0.0536  0.1418
 5023W        W 7223  19.043   2.539  28.931  0.0953  0.1910 -0.1168
 5024W        W 7224   6.595   2.661  21.583 -0.2583 -0.3350  0.2166
 5025W        W 7225  17.469   0.649   6.563  0.2702  0.2158  0.1711
 5026W        W 7226  18.192   1.596   7.393  0.0160 -0.1744  0.1112
 5027W        W 7227  13.019   3.044  25.209 -0.2200  0.0267  0.1351
 5028W        W 7228  13.276   3.723  35.016 -0.2771 -0.0656  0.1594
 5029W        W 7229  19.605   5.314  25.698 -0.2756 -0.1220  0.3021
 5030W        W 7230   8.903   3.594  26.753 -0.2122 -0.2871  0.1785
 5031W        W 7231   8.021   3.184  27.653 -0.0308 -0.0686 -0.1446
 5032W        W 7232  16.287   2.309  28.733  0.3488 -0.1295 -0.3288
 5033W        W 7233  22.529   6.211  23.865  0.2318 -0.0983  0.2206
 5034W        W 7234   1.227   5.034  23.567  0.2952  0.2010 -0.0709
 5035W        W 7235  11.530   4.490   5.973  0.3522 -0.0100 -0.0303
 5036W        W 7236   3.982   5.381  21.590 -0.2916 -0.2178 -0.0528
 5037W        W 7237   7.213   3.905  12.766  0.3172  0.0894  0.2838
 5038W        W 7238   2.765   3.337  28.026  0.2934  0.1893  0.2076
 5039W        W 7239  25.151   6.294  30.260  0.4480  0.0501 -0.0807
 5040W        W 7240  12.143   3.010   5.509  0.0647 -0.0105  0.1716
 5041W        W 7241  17.787   1.071   5.730 -0.1058  0.3668 -0.1271
 5042W        W 7242  22.625   6.110  24.513 -0.6121  0.0178  0.0544
 5043W        W 7243   7.881   0.696  12.118  0.3807  0.0285 -0.0731
 5044W        W 7244   9.605   6.073  21.698 -0.0703 -0.0634 -0.1939
 5045W        W 7245  18.020   6.125  21.341  0.2564 -0.0318  0.0222
 5046W        W 7246   3.421   2.520  29.979 -0.0905 -0.1240 -0.3534
 5047W        W 7247   4.524   3.753  13.054 -0.0475 -0.1675 -0.0280
 5048W        W 7248  18.623   2.730   6.944 -0.0041 -0.1347 -0.0333
 5049W        W 7249  12.151   0.214  24.085  0.0522 -0.1245 -0.2777
 5050W        W 7250  22.430   5.585   1.994  0.3825 -0.0478 -0.3329
 5051W        W 7251  22.669   1.372   2.897  0.0547  0.0466  0.1907
 5052W        W 7252  15.290   1.090  21.633 -0.1310 -0.2596  0.0204
 5053W        W 7253  19.094   4.640  26.406 -0.1040 -0.0977 -0.1281
 5054W        W 7254   7.571   0.968   4.915  0.2348 -0.3433 -0.1184
 5055W        W 7255   3.472   2.912  14.905 -0.0067  0.1161 -0.0633
 5056W        W 7256  10.583   4.983  22.100  0.3562 -0.0238 -0.2500
 5057W        W 7257   6.406   0.495  35.073 -0.1281 -0.3417  0.2490
 5058W        W 7258  12.524   3.731  22.764  0.1468  0.3719  0.0373
 5059W        W 7259  13.429   0.761  11.754 -0.3341  0.0267 -0.0706
 5060W        W 7260  19.492   4.099   0.613  0.1737  0.0789 -0.4177
 5061W        W 7261  20.261   6.525  23.097  0.3066  0.2166  0.0821
 5062W        W 7262  20.890   1.602   8.726  0.4815 -0.1284  0.2681
 5063W        W 7263   8.814   6.125  34.834 -0.0209 -0.1658 -0.0540
 5064W        W 7264  11.202   5.909  28.001  0.2599  0.2497 -0.0754
 5065W        W 7265  10.379   4.278  22.275  0.0795  0.0219 -0.3604
 5066W        W 7266  10.067   4.123  10.599  0.2501  0.1570  0.1221
 5067W        W 7267   7.142   2.288  15.701  0.0313  0.1268  0.2213
 5068W        W 7268   7.935   2.258   4.585  0.2921  0.0033  0.0157
 5069W        W 7269  12.410   6.473   4.655  0.2305  0.0699  0.1475
 5070W        W 7270   7.963   5.738   4.911 -0.0353  0.2024 -0.0623
 5071W        W 7271  22.721   1.766  27.309 -0.0573 -0.4862 -0.3086
 5072W        W 7272   1.663   1.449  28.789 -0.1815 -0.0249  0.0856
 5073W        W 7273   6.498   4.427   4.859  0.0643  0.0688 -0.2090
 5074W        W 7274   7.104   2.912   3.809  0.0581 -0.1647  0.0018
 5075W        W 7275  12.266   3.888  31.943  0.0301  0.1261  0.1047
 5076W        W 7276  23.060   0.001  12.185 -0.0675  0.3232 -0.1820
 5077W        W 7277  19.582   6.337  24.345 -0.1454  0.2853 -0.1986
 5078W        W 7278   6.197   5.192  32.684  0.4337  0.4984  0.1794
 5079W        W 7279  17.874   1.144   1.210 -0.0002  0.0676  0.2470
 5080W        W 7280  14.864   2.091   0.747  0.1953  0.1993 -0.1356
 5081W        W 7281  19.554   3.584  29.181 -0.1163  0.3305  0.0994
 5082W        W 7282   7.824   0.170   7.334 -0.1004 -0.0052  0.0942
 5083W        W 7283  14.441   2.438  28.997  0.0165 -0.0082  0.2479
 5084W        W 7284  23.911   3.919  31.616  0.2068 -0.1572 -0.0809
 5085W        W 7285  19.115   1.847  21.429 -0.0642 -0.1626  0.1078
 5086W        W 7286   0.669   1.334  25.550 -0.0119 -0.1828  0.0848
 5087W        W 7287  12.927   2.912  11.919  0.2374 -0.2539  0.2153
 5088W        W 7288  22.677   1.785  32.660  0.2207  0.2636  0.0084
 5089W        W 7289  23.443   2.108  23.579  0.0211 -0.2562 -0.1295
 5090W        W 7290  17.086   2.648  33.154 -0.1444  0.1232  0.2585
 5091W        W 7291  25.473   3.683  34.239  0.1105 -0.0899 -0.2601
 5092W        W 7292  21.233   4.904   0.429 -0.2997  0.0118 -0.1987
 5093W        W 7293  16.912   1.954  31.681  0.2194  0.0959 -0.0422
 5094W        W 7294   6.205   0.067   5.705  0.0440  0.0626  0.1716
 5095W        W 7295  23.319   0.482  27.306  0.1780  0.0057 -0.2900
 5096W        W 7296  23.486   2.507  24.297 -0.0288 -0.1466  0.0413
 5097W        W 7297  14.527   0.494  10.026 -0.0114 -0.3264  0.1644
 5098W        W 7298  24.705   3.311   6.894  0.0921  0.1247 -0.1236
 5099W        W 7299   0.522   2.623   1.178 -0.0769 -0.1581  0.2975
 5100W        W 7300   9.898   0.004  31.001 -0.0084 -0.2890 -0.1279
 5101W        W 7301   2.424   6.468  24.396  0.1355 -0.1970  0.1557
 5102W        W 7302   7.992   5.357  13.674 -0.1180  0.1898  0.0858
 5103W        W 7303   1.042   3.021   7.394  0.0245 -0.1796 -0.0634
 5104W        W 7304   5.676   3.588  35.930  0.2111 -0.2422  0.0142
 5105W        W 7305  24.850   6.374  34.072  0.1892 -0.1409  0.0091
 5106W        W 7306   3.140   1.541  24.967  0.1119  0.0004  0.0820
 5107W        W 7307  24.868   6.351  29.113 -0.1708 -0.1145  0.0395
 5108W        W 7308   6.588   3.292  33.085  0.3495 -0.0773 -0.3406
 5109W        W 7309  24.792   0.906   3.137 -0.2111 -0.1736 -0.0776
 5110W        W 7310  21.899   1.352  10.474 -0.0817 -0.0675 -0.0920
 5111W        W 7311  12.094   2.277  15.362  0.1169  0.3218 -0.2927
 5112W        W 7312  12.671   2.497   5.998 -0.2639  0.2423 -0.2430
 5113W        W 7313  10.745   5.883  12.501  0.2957 -0.0173 -0.0460
 5114W        W 7314  13.514   0.145  26.253 -0.2214 -0.0477 -0.0551
 5115W        W 7315  11.719   1.966  22.252  0.0387  0.0471 -0.1346
 5116W        W 7316  20.540   0.040  22.158  0.1654  0.0579 -0.0714
 5117W        W 7317  15.648   3.623  25.663  0.1407  0.1548  0.4516
 5118W        W 7318  16.084   3.881  27.273  0.3380 -0.3034  0.1083
 5119W        W 7319  11.625   2.401  11.724 -0.0432 -0.1146  0.1025
 5120W        W 7320   8.762   1.021  26.573  0.0988 -0.0331 -0.0069
 5121W        W 7321   2.796   6.103   6.350 -0.3520  0.0781 -0.3620
 5122W        W 7322  24.974   3.529   3.630  0.1326 -0.0204 -0.0695
 5123W        W 7323  13.611   1.955  13.380  0.2224 -0.3419 -0.2293
 5124W        W 7324  25.693   2.153  10.232 -0.0602 -0.0494 -0.0268
 5125W        W 7325   3.931   2.872  13.197 -0.1449  0.3348  0.1604
 5126W        W 7326  18.779   0.602  13.118  0.1129 -0.0819 -0.1034
 5127W        W 7327   5.972   4.630  21.258  0.3275 -0.2043 -0.0919
 5128W        W 7328   6.412   5.297  23.480 -0.0016 -0.3190  0.1974
 5129W        W 7329   3.203   0.579   5.436 -0.2563 -0.3441  0.1710
 5130W        W 7330   0.487   0.249  26.693 -0.0170  0.5171  0.0982
 5131W        W 7331   2.551   2.708  24.690  0.2456 -0.1777 -0.2403
 5132W        W 7332  19.299   6.488  34.346 -0.1577 -0.1440  0.0570
 5133W        W 7333  17.362   0.165  36.051 -0.1885  0.0267  0.0103
 5134W        W 7334  13.337   1.684  35.783  0.2758 -0.0189  0.0783
 5135W        W 7335  24.480   3.958  25.351 -0.1873  0.0767  0.4650
 5136W        W 7336  10.141   5.861  31.227 -0.1593  0.1279 -0.3130
 5137W        W 7337  11.374   2.944   3.526  0.1125 -0.1743 -0.0703
 5138W        W 7338  20.300   0.836  30.958  0.0990 -0.0044  0.1696
 5139W        W 7339   6.170   0.029   4.705  0.0687  0.0759  0.3841
 5140W        W 7340  21.134   0.598   7.355 -0.0498 -0.0610 -0.0487
 5141W        W 7341  23.282   4.215  33.641  0.0498 -0.0347 -0.2702
 5142W        W 7342  23.207   4.365  32.634  0.3242 -0.0889  0.0775
 5143W        W 7343   4.108   2.700  14.314 -0.0008 -0.1031 -0.0454
 5144W        W 7344  19.920   0.003   5.487 -0.1431  0.1014  0.0476
 5145W        W 7345  13.028   3.465   2.680 -0.0777  0.1556  0.1069
 5146W        W 7346  19.046   1.909  29.550  0.0730 -0.1460 -0.1092
 5147W        W 7347  15.975   4.247  32.598 -0.2723 -0.1398 -0.0359
 5148W        W 7348  11.860   2.700  24.006 -0.0962  0.0229  0.2116
 5149W        W 7349  10.794   0.443   6.345 -0.1181  0.0080  0.1968
 5150W        W 7350  13.164   6.304  35.131 -0.3081  0.0211  0.0673
 5151W        W 7351   0.685   2.711   3.590  0.1615  0.1321  0.2386
 5152W        W 7352  18.156   5.418  26.681 -0.0394 -0.1448 -0.3285
 5153W        W 7353  14.179   0.681   8.174  0.1138  0.2356  0.1657
 5154W        W 7354  18.700   1.992   3.154  0.1055  0.0020  0.2170
 5155W        W 7355   4.006   4.562  35.209  0.0391  0.3257  0.1554
 5156W        W 7356  13.869   1.363  21.252 -0.1362  0.3499  0.5061
 5157W        W 7357  18.190   0.708  13.173 -0.0503  0.1032  0.1441
 5158W        W 7358   2.016   4.021  23.384  0.1554 -0.2037 -0.1063
 5159W        W 7359   5.229   0.300  12.334  0.1418  0.1467  0.2113
 5160W        W 7360  21.086   3.307  35.693 -0.0586  0.0730  0.1018
 5161W        W 7361  11.602   0.963  21.872 -0.0801 -0.1077  0.1743
 5162W        W 7362  17.596   4.771  28.150 -0.0404  0.0440  0.0462
 5163W        W 7363  10.398   6.021  26.271 -0.0792 -0.2028  0.0704
 5164W        W 7364   8.362   6.064  27.935  0.1801 -0.5099 -0.2133
 5165W        W 7365  21.028   1.737   4.619  0.3203  0.1341 -0.0305
 5166W        W 7366  24.561   4.864  33.833  0.1285 -0.1248  0.1086
 5167W        W 7367   9.132   1.646  21.764 -0.0396  0.0005  0.0583
 5168W        W 7368  12.509   2.846   9.760  0.1865 -0.0948 -0.1649
 5169W        W 7369   9.693   0.025   9.078  0.2582 -0.1739 -0.1798
 5170W        W 7370  14.869   1.819  36.043  0.2156  0.0857 -0.2727
 5171W        W 7371  15.695   3.184  12.008 -0.2174  0.1258 -0.1478
 5172W        W 7372   7.080   2.567  35.265 -0.2607  0.0292 -0.0405
 5173W        W 7373  20.817   4.180  28.997 -0.0672  0.1380 -0.0723
 5174W        W 7374  10.162   3.850  27.982 -0.0767 -0.1800 -0.0472
 5175W        W 7375  13.657   5.911  21.353  0.1606  0.0488 -0.1506
 5176W        W 7376  17.416   3.281  25.879 -0.2608  0.2159  0.1423
 5177W        W 7377  13.137   3.040  35.573  0.0081 -0.1793  0.0349
 5178W        W 7378   6.318   0.131   7.731  0.3428  0.2320  0.2033
 5179W        W 7379   1.657   2.270  15.513  0.1803  0.0519  0.0334
 5180W        W 7380  18.723   3.494  14.642 -0.3644  0.2123  0.1609
 5181W        W 7381   6.381   2.091  27.729  0.2036  0.1595  0.1568
 5182W        W 7382  18.814   3.303  27.778  0.1780 -0.5814  0.3566
 5183W        W 7383  25.373   5.732   6.383  0.0521 -0.2063  0.1572
 5184W        W 7384  21.749   2.053  32.421 -0.0608 -0.1296  0.2277
 5185W        W 7385   2.115   0.489   0.513  0.4991  0.1153  0.1990
 5186W        W 7386  12.212   3.072  12.729  0.0788  0.0164 -0.0025
 5187W        W 7387  18.138   0.862  20.938 -0.0662  0.0975  0.2880
 5188W        W 7388  11.193   5.905   4.405  0.2679 -0.2533 -0.1187
 5189W        W 7389   5.164   4.686  32.413  0.2210  0.4606  0.2473
 5190W        W 7390  24.395   4.508   5.318 -0.0678  0.1133 -0.0134
 5191W        W 7391   7.597   5.557  20.768  0.2147 -0.3508 -0.2769
 5192W        W 7392  20.286   2.056   8.247 -0.0464  0.0370 -0.0074
 5193W        W 7393   6.792   1.022  26.020 -0.0251 -0.1174  0.2268
 5194W        W 7394   1.519   0.545   5.863  0.0691  0.0216  0.0742
 5195W        W 7395  13.625   0.560   7.310 -0.0446 -0.1479  0.0297
 5196W        W 7396  21.144   2.834  25.584 -0.0739  0.2424 -0.0145
 5197W        W 7397  23.895   0.660  30.161  0.0005  0.0067  0.3774
 5198W        W 7398  24.679   4.655  22.632 -0.2402  0.1506 -0.1663
 5199W        W 7399  16.567   5.613   7.085  0.0280 -0.0715 -0.2721
 5200W        W 7400  18.345   0.872   8.547 -0.2117 -0.1515 -0.1126
 5201W        W 7401   0.018   2.158  10.635  0.0771 -0.1547 -0.0851
 5202W        W 7402  21.666   0.674  15.592  0.2646  0.0698 -0.0279
 5203W        W 7403  23.890   2.178  24.431 -0.3781  0.3257 -0.0104
 5204W        W 7404  11.607   2.113  11.210  0.2272 -0.2663  0.0099
 5205W        W 7405   3.603   4.654   5.090  0.0933  0.1220  0.0060
 5206W        W 7406   1.513   5.948  26.523 -0.0832  0.4120  0.0343
 5207W        W 7407  23.836   5.170  25.673  0.0602 -0.3407  0.0039
 5208W        W 7408  20.861   6.054   3.148 -0.0528 -0.0579 -0.0057
 5209W        W 7409   3.805   3.756  32.637  0.0980 -0.1128 -0.3129
 5210W        W 7410  25.415   5.384  14.841 -0.0595  0.1083 -0.0880
 5211W        W 7411  16.992   1.968  26.607 -0.1557 -0.2927  0.0147
 5212W        W 7412  17.374   3.658  35.795 -0.0744 -0.3321  0.1708
 5213W        W 7413   1.815   4.278  26.325 -0.0759 -0.1769 -0.0523
 5214W        W 7414  25.335   1.143  14.451  0.1284  0.1329  0.3535
 5215W        W 7415  25.499   2.946   3.762 -0.0553  0.1022 -0.1446
 5216W        W 7416  16.991   1.486  24.947  0.2334 -0.0127  0.1313
 5217W        W 7417  15.317   4.728  10.627  0.0584 -0.1882  0.1613
 5218W        W 7418  12.506   4.776  31.407 -0.1141 -0.2369  0.0608
 5219W        W 7419   2.502   0.802  21.112 -0.0773  0.0700 -0.3042
 5220W        W 7420  16.022   3.663   2.421  0.2341 -0.0966  0.1877
 5221W        W 7421  20.700   2.275   5.220  0.1813 -0.2417  0.3094
 5222W        W 7422   6.658   4.646   2.162 -0.0021 -0.1004  0.2883
 5223W        W 7423  23.411   6.083   3.446  0.3137  0.1529 -0.2998
 5224W        W 7424   3.931   1.880   9.804  0.1415 -0.0690 -0.1032
 5225W        W 7425  22.432   4.959  29.365  0.5934 -0.0187 -0.1964
 5226W        W 7426  16.504   4.330  29.693  0.1464  0.1320  0.3282
 5227W        W 7427   3.678   3.569  24.845 -0.3719 -0.1747  0.1015
 5228W        W 7428   9.631   3.325  13.620 -0.0585  0.4516 -0.0577
 5229W        W 7429   1.509   1.802   3.286  0.0333 -0.1288 -0.1125
 5230W        W 7430  20.599   1.355   8.434 -0.2473  0.1888  0.3105
 5231W        W 7431   4.995   2.582   4.509  0.1121 -0.3880 -0.0090
 5232W        W 7432  21.948   3.105   0.564  0.1060 -0.2148 -0.2089
 5233W        W 7433  13.886   2.355  15.253 -0.2799  0.0055  0.0190
 5234W        W 7434  25.904   0.139  29.044  0.0439  0.0060 -0.0464
 5235W        W 7435   7.431   1.435  11.326  0.2397 -0.0890  0.1039
 5236W        W 7436  16.381   0.415  22.998 -0.2096  0.0147  0.0172
 5237W        W 7437  13.857   2.195  32.498  0.1839 -0.0216 -0.0319
 5238W        W 7438  14.014   0.017  30.343  0.1675 -0.2025 -0.1528
 5239W        W 7439  12.428   2.115  10.183 -0.0171  0.0671 -0.1373
 5240W        W 7440  17.272   3.118   6.478 -0.0103 -0.0032  0.0817
 5241W        W 7441  23.241   2.824  12.980  0.0814  0.1568  0.1578
 5242W        W 7442   8.932   6.446  24.460  0.1499  0.0251  0.0575
 5243W        W 7443  24.449   3.634  33.628 -0.2221 -0.2460  0.0263
 5244W        W 7444  20.605   0.340  13.085 -0.0297 -0.1266 -0.0847
 5245W        W 7445   4.233   6.187  12.520 -0.1627  0.1630  0.3213
 5246W        W 7446   6.944   4.921  26.636  0.0827  0.4432 -0.0884
 5247W        W 7447  21.246   5.546  33.923  0.1382  0.3217  0.2001
 5248W        W 7448  17.078   6.005  29.498  0.3640  0.0030  0.1729
 5249W        W 7449  25.481   3.932  30.652  0.1248 -0.2408  0.1923
 5250W        W 7450   9.343   5.218  33.359  0.1066  0.0645 -0.1201
 5251W        W 7451  17.700   1.532  13.063  0.1406  0.0032  0.1537
 5252W        W 7452  18.468   4.471   4.750 -0.0624 -0.1801  0.0709
 5253W        W 7453  21.709   5.375  32.409  0.1079  0.4111 -0.0351
 5254W        W 7454  26.224   5.593  27.298  0.3317 -0.2059  0.0546
 5255W        W 7455  13.230   1.378  28.570  0.2127 -0.0750  0.3172
 5256W        W 7456  14.098   0.263  15.140 -0.2623  0.1372  0.1078
 5257W        W 7457  19.936   4.020  27.470 -0.0206  0.0261 -0.2821
 5258W        W 7458  11.923   3.545  34.545  0.3225  0.0125  0.2434
 5259W        W 7459  17.686   2.928  21.546 -0.1328  0.1654 -0.2586
 5260W        W 7460  14.248   0.173  27.477  0.0910 -0.1893 -0.0707
 5261W        W 7461  25.275   0.797   2.668 -0.1949 -0.1217 -0.1989
 5262W        W 7462  20.376   0.118   3.384  0.2132 -0.2349  0.2899
 5263W        W 7463   1.189   0.670  24.394 -0.4728  0.0390  0.0587
 5264W        W 7464  24.704   1.173  20.220  0.1186  0.2628  0.1020
 5265W        W 7465  12.227   6.409  31.274  0.1683  0.0189  0.5273
 5266W        W 7466   9.396   3.452  10.753  0.0649  0.2511 -0.1844
 5267W        W 7467  18.099   2.670   4.195 -0.0543 -0.1199  0.1511
 5268W        W 7468  24.719   3.802  27.866 -0.2680 -0.0911  0.0493
 5269W        W 7469  17.530   6.344   3.421  0.2755 -0.0391  0.0555
 5270W        W 7470   6.166   5.878   1.028 -0.1344  0.3169  0.1018
 5271W        W 7471  16.897   1.397   8.086  0.1325  0.1110  0.1260
 5272W        W 7472   6.429   1.350   6.457 -0.1485  0.0537 -0.0415
 5273W        W 7473   2.993   0.888   2.955 -0.0634 -0.0744  0.2800
 5274W        W 7474   4.064   4.037  21.118 -0.2059 -0.2043  0.3353
 5275W        W 7475  23.241   6.586   3.328 -0.1803  0.3834 -0.0908
 5276W        W 7476  11.598   5.629  28.887  0.0414  0.0576  0.1186
 5277W        W 7477   2.611   6.536  34.978  0.2007 -0.1983  0.0639
 5278W        W 7478  17.082   0.570   8.570 -0.0373 -0.2178  0.3038
 5279W        W 7479   8.072   5.496  25.526 -0.0073  0.0318  0.0274
 5280W        W 7480  14.583   6.285   8.990  0.0899  0.1290  0.0269
 5281W        W 7481   6.957   3.534  21.438  0.1923 -0.4564 -0.3992
 5282W        W 7482  17.069   3.047  13.935 -0.0651 -0.2191 -0.0872
 5283W        W 7483  10.993   6.465  24.600  0.0388 -0.0690 -0.3106
 5284W        W 7484  22.078   2.506  21.564  0.3082  0.0920 -0.1006
 5285W        W 7485  16.974   5.794  27.395 -0.3105  0.0083 -0.2493
 5286W        W 7486  26.029   4.970   4.090  0.0652 -0.1518  0.1161
 5287W        W 7487  17.658   6.363   5.865 -0.0296 -0.0330 -0.1927
 5288W        W 7488   0.849   2.783  11.048  0.2274 -0.1443 -0.0964
 5289W        W 7489  15.224   5.431  22.016 -0.3838 -0.0786 -0.1900
 5290W        W 7490  24.283   5.394  26.372 -0.1445 -0.4409 -0.2625
 5291W        W 7491  13.391   0.998  25.266  0.4176 -0.0275 -0.1468
 5292W        W 7492   1.217   5.184  36.087 -0.1330  0.1020  0.1574
 5293W        W 7493   3.991   0.489  14.035  0.0178  0.2510  0.0375
 5294W        W 7494   4.965   6.097  33.733 -0.0675  0.2818 -0.2655
 5295W        W 7495  11.097   5.737  31.671 -0.0503 -0.2379  0.1840
 5296W        W 7496  15.759   4.510   3.456 -0.0537 -0.1665  0.0013
 5297W        W 7497  18.599   3.808   2.027 -0.0414  0.2296 -0.1006
 5298W        W 7498  25.233   1.919  12.964  0.1204 -0.1756 -0.1306
 5299W        W 7499   4.047   0.262   1.378 -0.0260 -0.1859 -0.1673
 5300W        W 7500   9.875   2.042  27.107 -0.1947  0.1840 -0.0490
 5301W        W 7501  12.943   4.334  28.415 -0.0154  0.1568  0.1857
 5302W        W 7502   3.105   5.414  11.583  0.2074  0.1725 -0.1338
 5303W        W 7503   4.436   4.668  12.045 -0.1548  0.1679 -0.0181
 5304W        W 7504   1.822   5.587  25.865  0.0986 -0.1801  0.1037
 5305W        W 7505  25.280   3.511  21.839  0.2078  0.1427  0.0875
 5306W        W 7506   6.149   2.120  12.488  0.2236  0.2309 -0.2921
 5307W        W 7507  12.940   1.434   0.033 -0.2711  0.1045  0.2079
 5308W        W 7508   9.844   1.224  14.254  0.0403 -0.1781 -0.0751
 5309W        W 7509   5.273   3.439  12.385 -0.0584  0.0311  0.3452
 5310W        W 7510   4.638   1.959   2.671 -0.0408  0.1935  0.0327
 5311W        W 7511  17.054   0.523  13.674  0.0810 -0.1641 -0.0385
 5312W        W 7512  22.825   6.459   1.877  0.2720  0.0722  0.1479
 5313W        W 7513  14.429   4.142   2.250 -0.1801 -0.0923 -0.0446
 5314W        W 7514  16.687   2.080   4.953 -0.1914 -0.2135 -0.0269
 5315W        W 7515  14.816   2.843   8.304  0.0453 -0.4064 -0.0367
 5316W        W 7516  24.881   2.539   8.089  0.0885  0.1388  0.2262
 5317W        W 7517   7.520   3.544  14.389 -0.2353 -0.0772 -0.1202
 5318W        W 7518   2.079   2.700  34.374  0.2072  0.1582 -0.0318
 5319W        W 7519  13.974   0.632  13.107 -0.3674  0.3487 -0.0476
 5320W        W 7520  17.943   0.733  28.774  0.0156  0.1132 -0.1615
 5321W        W 7521   9.095   2.421   7.127 -0.0075  0.0698 -0.1012
 5322W        W 7522  18.858   4.024   8.128  0.1153  0.0276 -0.1510
 5323W        W 7523  26.111   0.676   3.026  0.2885 -0.3086  0.0966
 5324W        W 7524  14.656   2.697  31.378 -0.1064  0.2088  0.3540
 5325W        W 7525  10.751   0.642  27.417 -0.1015 -0.1153  0.0515
 5326W        W 7526  13.236   2.778  13.648  0.0125 -0.0826 -0.1282
 5327W        W 7527   2.691   0.068   7.409 -0.0793 -0.4543  0.0126
 5328W        W 7528  13.662   1.543  15.295 -0.2491 -0.1245 -0.0094
 5329W        W 7529  15.721   5.586  36.008  0.0190  0.0660 -0.0413
 5330W        W 7530  21.314   4.160  35.645  0.0300  0.0773 -0.3067
 5331W        W 7531   8.724   1.757   9.036 -0.0166  0.1422  0.2955
 5332W        W 7532  18.243   3.974  30.927 -0.0934 -0.0735 -0.0749
 5333W        W 7533  15.454   5.860  22.258  0.0488  0.1740  0.0085
 5334W        W 7534   3.712   4.549  29.438 -0.1494  0.2144  0.2366
 5335W        W 7535  17.127   4.197  10.226 -0.1535 -0.1564  0.2013
 5336W        W 7536   2.634   0.675   4.771 -0.1258  0.2603  0.1299
 5337W        W 7537  23.591   4.012  32.682 -0.2969  0.2020 -0.0239
 5338W        W 7538   0.525   5.940  21.314 -0.1713 -0.0258  0.1283
 5339W        W 7539  15.091   5.795  22.669 -0.2879  0.0875 -0.1350
 5340W        W 7540  21.139   6.059  27.715 -0.2388  0.0924 -0.1617
 5341W        W 7541  19.356   1.567  29.156 -0.1099 -0.2630  0.1076
 5342W        W 7542  14.597   1.202  31.645  0.1418  0.0242 -0.0181
 5343W        W 7543   3.300   1.087  22.050  0.3182 -0.0703 -0.3186
 5344W        W 7544  25.854   5.579  29.776 -0.3202 -0.2430  0.0930
 5345W        W 7545  24.610   2.553   8.907  0.1208  0.1006 -0.2389
 5346W        W 7546   3.191   4.414   2.594 -0.1639  0.0601  0.2267
 5347W        W 7547   9.086   2.707  28.473 -0.0736  0.0243  0.0276
 5348W        W 7548  11.851   5.393   7.108  0.0010  0.2236  0.4246
 5349W        W 7549  14.164   5.592   2.263  0.1191  0.0348  0.0665
 5350W        W 7550  26.101   1.325  32.039 -0.1169 -0.3514 -0.1625
 5351W        W 7551  24.185   3.101  24.762  0.0935  0.2295 -0.2362
 5352W        W 7552   0.815   2.358  31.033  0.1171 -0.1748 -0.1426
 5353W        W 7553  21.186   3.272  25.762  0.0709 -0.1203  0.3869
 5354W        W 7554  15.976   0.784   1.398 -0.2226  0.2036  0.0495
 5355W        W 7555  23.615   2.513  32.877  0.3154  0.0785 -0.0229
 5356W        W 7556  17.899   0.019   7.081  0.3408 -0.2231  0.1787
 5357W        W 7557  16.208   4.689  31.680  0.2847  0.3585  0.1356
 5358W        W 7558   7.932   0.680  14.020 -0.0683 -0.1824  0.2232
 5359W        W 7559  12.820   1.251  33.020  0.0561 -0.1713  0.1799
 5360W        W 7560  20.575   4.036  13.063 -0.0490 -0.0854 -0.2770
 5361W        W 7561   4.220   3.800  30.044 -0.0613  0.1950 -0.2417
 5362W        W 7562   7.626   1.477  13.560  0.0084 -0.0075  0.0756
 5363W        W 7563   8.482   6.206  22.053 -0.0983 -0.2242  0.1967
 5364W        W 7564  14.364   5.319  26.783  0.1093  0.1663  0.0961
 5365W        W 7565  17.430   2.841  11.268 -0.0972  0.1814  0.0333
 5366W        W 7566  25.432   2.106   0.864 -0.0697  0.4195 -0.1219
 5367W        W 7567   1.899   4.580  21.687  0.1990 -0.1721 -0.0370
 5368W        W 7568  20.976   4.302   4.372 -0.0612  0.4212  0.0506
 5369W        W 7569  24.473   1.762   9.805  0.1829 -0.1362 -0.2245
 5370W        W 7570  15.919   5.911   8.706  0.0750  0.2322 -0.2086
 5371W        W 7571  17.690   6.021  21.884 -0.1361  0.3988  0.0193
 5372W        W 7572   0.407   0.169   3.044 -0.1016  0.3215  0.0626
 5373W        W 7573  14.230   2.788  14.450  0.0335  0.0694  0.1545
 5374W        W 7574   0.173   5.567   9.245 -0.0944  0.4158  0.2998
 5375W        W 7575   4.463   2.641  30.869  0.2676  0.1275 -0.2014
 5376W        W 7576   0.375   5.143  13.966 -0.1560 -0.0145  0.0632
 5377W        W 7577  26.018   2.417  13.718 -0.1496 -0.2680 -0.1047
 5378W        W 7578   3.275   5.027   7.583 -0.2214  0.0170  0.1634
 5379W        W 7579  17.563   5.023  12.933 -0.0896  0.1371  0.2208
 5380W        W 7580  21.581   5.522   5.792  0.0989  0.2970 -0.3427
 5381W        W 7581   7.815   2.237  33.169 -0.0086 -0.2167 -0.2249
 5382W        W 7582  18.631   5.388   6.128 -0.1083 -0.0242 -0.2881
 5383W        W 7583  10.745   4.902  13.696 -0.3851 -0.1812  0.2576
 5384W        W 7584  16.761   5.198  22.936 -0.0544  0.1943  0.1949
 5385W        W 7585  12.034   5.312  29.516 -0.0044  0.2133 -0.0361
 5386W        W 7586  18.550   0.286   0.425 -0.0214 -0.0708  0.0610
 5387W        W 7587  11.789   5.804   2.102  0.0580  0.0657  0.0088
 5388W        W 7588   5.339   4.515  11.731  0.0025  0.0417  0.0304
 5389W        W 7589  20.173   1.572   7.610 -0.0616  0.0464  0.3675
 5390W        W 7590   8.261   4.638  12.269 -0.1091 -0.2013 -0.0323
 5391W        W 7591  20.707   1.893  13.987  0.1061 -0.2825  0.0469
 5392W        W 7592  13.100   2.169  15.680 -0.5333  0.0136 -0.2464
 5393W        W 7593  21.582   4.584  28.537 -0.1627  0.2937 -0.0757
 5394W        W 7594   1.732   2.462  21.274  0.0217 -0.1914  0.0531
 5395W        W 7595  13.321   3.677   5.148  0.1631  0.0958  0.1409
 5396W        W 7596  22.732   0.990  34.134  0.1177 -0.0899  0.0966
 5397W        W 7597   1.647   5.089   5.908 -0.2026  0.1883 -0.2068
 5398W        W 7598   8.061   3.323  35.490 -0.1412  0.0252  0.1086
 5399W        W 7599   1.074   6.002  28.650  0.0125 -0.3655  0.1689
 5400W        W 7600  18.409   5.902  27.502 -0.3029  0.1910 -0.3578
 5401W        W 7601   0.749   1.266  31.947 -0.2988 -0.1879  0.1047
 5402W        W 7602   9.220   1.193   5.258 -0.5813  0.0489 -0.2256
 5403W        W 7603   8.266   4.827   6.810 -0.0574 -0.0185  0.0470
 5404W        W 7604   4.167   1.117   3.314 -0.0595 -0.1694  0.1193
 5405W        W 7605  14.486   2.746   3.969 -0.1526 -0.0373 -0.3530
 5406W        W 7606  25.998   2.980  30.753  0.1488  0.1705 -0.2074
 5407W        W 7607  18.357   2.600  32.870 -0.1063 -0.0163 -0.3466
 5408W        W 7608   0.579   5.763  23.340 -0.2095 -0.1528 -0.1559
 5409W        W 7609   4.014   4.075  35.339 -0.2326  0.0134  0.1610
 5410W        W 7610  18.622   0.407  29.577  0.1363  0.0769 -0.0273
 5411W        W 7611   9.089   3.668   8.278 -0.0609  0.0775  0.3918
 5412W        W 7612   1.262   1.551  23.965  0.0025 -0.1555  0.1484
 5413W        W 7613  13.438   0.030  12.481 -0.1890 -0.0026  0.2366
 5414W        W 7614   0.732   3.664  23.657 -0.0779 -0.1749  0.0658
 5415W        W 7615  17.689   1.228  30.552  0.1120  0.0625 -0.0585
 5416W        W 7616  18.520   3.149   4.953 -0.1724  0.3448  0.0611
 5417W        W 7617  16.102   6.419  30.887  0.2348  0.0904  0.0338
 5418W        W 7618   0.642   1.221  34.467 -0.2268 -0.1054 -0.1536
 5419W        W 7619   0.750   5.606  28.640 -0.0841 -0.2482  0.0674
 5420W        W 7620  21.702   4.062   0.350 -0.3039  0.0835  0.1029
 5421W        W 7621  21.712   4.454  30.437  0.0249 -0.0686 -0.1282
 5422W        W 7622  26.311   3.655  35.341  0.2202 -0.0164  0.1211
 5423W        W 7623  10.574   2.573  15.555 -0.2256 -0.2145 -0.2298
 5424W        W 7624  10.287   2.171   2.311 -0.0191  0.2460  0.1583
 5425W        W 7625  26.374   2.745  21.483 -0.3157 -0.2560 -0.0151
 5426W        W 7626  19.492   2.440   0.591 -0.2544 -0.1558 -0.0558
 5427W        W 7627  24.186   5.685   3.010  0.2512 -0.0775 -0.3058
 5428W        W 7628  11.875   4.233  29.616  0.1246  0.3069  0.0152
 5429W        W 7629  17.591   0.792  27.496 -0.1969 -0.1514  0.0871
 5430W        W 7630  23.135   1.803  20.879  0.0015  0.2249  0.3980
 5431W        W 7631  17.669   2.171   7.466  0.3167  0.1127 -0.1398
 5432W        W 7632  16.669   0.789  14.910  0.0553 -0.1824 -0.0595
 5433W        W 7633  16.161   0.164  14.834 -0.0472  0.2706  0.1814
 5434W        W 7634   9.311   3.776  27.143  0.1721 -0.2367 -0.2707
 5435W        W 7635  24.059   1.698  10.549 -0.0624 -0.2164  0.1282
 5436W        W 7636  13.060   1.619  22.903 -0.2569 -0.0459  0.0151
 5437W        W 7637   9.505   0.702   6.097 -0.0366 -0.3641 -0.2548
 5438W        W 7638  22.049   2.328  13.534 -0.0721  0.5341  0.2763
 5439W        W 7639  10.725   0.196   9.490  0.0471 -0.0453 -0.1918
 5440W        W 7640  10.948   1.272  30.401  0.0425  0.1429  0.1216
 5441W        W 7641  24.350   0.209  27.827  0.0296 -0.3002  0.1789
 5442W        W 7642  21.044   1.964  10.681  0.2629 -0.1866 -0.0191
 5443W        W 7643   0.696   5.922   2.017  0.3661  0.0066  0.0116
 5444W        W 7644  12.821   0.983  24.523  0.3452 -0.1274 -0.0995
 5445W        W 7645  11.681   5.032   7.726 -0.0408 -0.0443 -0.1705
 5446W        W 7646  20.860   2.748  30.752  0.1396  0.0616 -0.0751
 5447W        W 7647  18.027   4.792   3.516 -0.1646  0.1511 -0.1223
 5448W        W 7648   5.219   1.704  33.151 -0.0063  0.0222  0.3501
 5449W        W 7649  18.155   6.582   0.417  0.0486 -0.0559 -0.0513
 5450W        W 7650  12.742   5.020  23.973 -0.0114 -0.1646  0.1843
 5451W        W 7651  11.871   2.714   9.955  0.2260  0.1000  0.1639
 5452W        W 7652  24.976   1.955   8.714  0.0993 -0.0463  0.3471
 5453W        W 7653  18.437   3.856   0.186 -0.2145 -0.0250 -0.1937
 5454W        W 7654  10.962   5.392   3.112  0.0967  0.1704 -0.0275
 5455W        W 7655  25.021   2.921  33.027  0.0881  0.3000  0.3328
 5456W        W 7656   0.397   4.939  30.041 -0.2532  0.0822 -0.0743
 5457W        W 7657   9.499   1.581  26.334  0.0305 -0.2196  0.0325
 5458W        W 7658   4.357   3.203  31.537  0.0700  0.1536  0.0531
 5459W        W 7659   6.229   2.386   3.220  0.2932  0.0238  0.1377
 5460W        W 7660  18.444   1.560  24.082  0.2450  0.1524 -0.0232
 5461W        W 7661  19.200   6.604  20.490  0.1684 -0.0987 -0.4140
 5462W        W 7662  20.434   0.371  24.294  0.1367 -0.0777 -0.0189
 5463W        W 7663  17.427   2.624   2.147 -0.2191 -0.1278  0.2418
 5464W        W 7664  19.767   2.006  23.050 -0.0565 -0.1612 -0.1609
 5465W        W 7665  26.330   0.830  32.217 -0.0585  0.1084  0.0456
 5466W        W 7666  11.460   2.360  24.499  0.0724  0.1155  0.0290
 5467W        W 7667   9.444   5.421   5.738  0.2395 -0.3613 -0.1782
 5468W        W 7668  21.728   3.702   5.511 -0.2616 -0.1777 -0.2244
 5469W        W 7669  17.983   2.896  11.410 -0.1700  0.1344  0.3397
 5470W        W 7670  13.949   0.466  26.189  0.3504  0.1388  0.1959
 5471W        W 7671  26.369   2.254  14.263  0.2143  0.0232  0.1500
 5472W        W 7672  19.598   2.551   6.793 -0.1663 -0.1550  0.0280
 5473W        W 7673   1.232   2.667   9.476  0.3534  0.2935 -0.1049
 5474W        W 7674  19.767   3.104  13.538 -0.3446  0.0413  0.0599
 5475W        W 7675  17.975   2.714  31.387 -0.0594  0.0166  0.0222
 5476W        W 7676   1.299   3.375  14.780  0.1072  0.3298  0.1025
 5477W        W 7677  12.860   6.408  10.042  0.2626  0.1720 -0.0475
 5478W        W 7678  10.476   1.981  25.332  0.1561 -0.4661  0.3900
 5479W        W 7679   9.065   5.874   3.621  0.2845  0.1156  0.0899
 5480W        W 7680   1.190   0.351  13.897  0.0639 -0.2093 -0.0912
 5481W        W 7681  12.139   4.273  13.739  0.1100 -0.1525  0.3480
 5482W        W 7682  19.614   0.945  27.933 -0.0651  0.2212 -0.1176
 5483W        W 7683   3.180   4.367   4.421  0.2824 -0.1823 -0.1720
 5484W        W 7684  11.224   1.861   6.028  0.1948 -0.3156 -0.1156
 5485W        W 7685  10.500   5.612  23.763  0.5400  0.0649 -0.0772
 5486W        W 7686   4.609   0.202   4.902  0.0767  0.0780 -0.2749
 5487W        W 7687  12.234   0.050  29.161 -0.2078  0.2381  0.1660
 5488W        W 7688  19.955   6.165  24.071 -0.3385 -0.1703 -0.1505
 5489W        W 7689  16.300   4.446  32.948 -0.0149  0.1659  0.0676
 5490W        W 7690   1.018   2.478   0.563 -0.0848 -0.1376 -0.0920
 5491W        W 7691   5.074   2.479  28.427 -0.0176  0.0938 -0.0678
 5492W        W 7692  17.900   3.726   7.549 -0.1330  0.0218 -0.0156
 5493W        W 7693   6.509   5.471   3.297 -0.0227 -0.1022 -0.0965
 5494W        W 7694   9.641   4.053  15.452 -0.3001 -0.1375 -0.0277
 5495W        W 7695   9.673   2.242  25.137 -0.0865 -0.0791  0.1068
 5496W        W 7696   2.629   3.471  21.458  0.2991 -0.1671  0.1893
 5497W        W 7697   8.707   0.305   3.155 -0.1687  0.0192  0.1254
 5498W        W 7698  23.174   4.258   0.629  0.3413  0.0783 -0.2652
 5499W        W 7699   3.136   0.987  24.282 -0.1435  0.4722 -0.2524
 5500W        W 7700  15.837   6.238  23.679  0.0654 -0.2087  0.2133
 5501W        W 7701   5.956   0.114   9.161  0.1991 -0.0520 -0.4639
 5502W        W 7702   6.125   3.161  33.901 -0.2328  0.3044  0.3594
 5503W        W 7703  12.234   5.266  22.485  0.2453  0.1632 -0.0515
 5504W        W 7704  21.639   0.908   8.988 -0.4766 -0.2040  0.1647
 5505W        W 7705  22.163   2.817   9.873 -0.2163  0.0262 -0.2625
 5506W        W 7706   2.133   3.769  24.388  0.5174 -0.2268 -0.1375
 5507W        W 7707  19.181   4.902   8.811 -0.2319 -0.0661  0.0095
 5508W        W 7708  20.980   3.054  22.648  0.2146 -0.3845 -0.1037
 5509W        W 7709  22.327   5.527  34.938 -0.2554 -0.0374 -0.2435
 5510W        W 7710  20.918   3.003  20.703  0.2123 -0.1807  0.1335
 5511W        W 7711   4.154   6.354   2.133 -0.4577  0.2744 -0.0860
 5512W        W 7712  25.357   1.640  11.884 -0.3024  0.0391 -0.1942
 5513W        W 7713   9.947   2.368  32.334  0.0651 -0.2176 -0.0377
 5514W        W 7714  10.572   5.166  23.464  0.0542  0.2293  0.0331
 5515W        W 7715   0.325   6.412  24.639 -0.1190  0.2804 -0.0894
 5516W        W 7716   6.763   3.709  28.230  0.0065  0.1598 -0.0265
 5517W        W 7717  12.056   0.641  24.308  0.2821 -0.3789 -0.3173
 5518W        W 7718  21.797   2.539  28.825 -0.0546  0.1311  0.1599
 5519W        W 7719   5.268   3.964  35.641 -0.0896 -0.1824  0.2741
 5520W        W 7720   1.869   5.009  24.488  0.0208 -0.0651 -0.0913
 5521W        W 7721  12.646   1.903   6.664 -0.1099 -0.0907 -0.1558
 5522W        W 7722   3.635   1.939  31.979 -0.1382 -0.1633 -0.1470
 5523W        W 7723  22.007   3.365   5.223 -0.1954  0.1031 -0.1139
 5524W        W 7724  21.970   3.479  10.705  0.2744  0.2178 -0.0871
 5525W        W 7725  18.898   3.907   6.069 -0.2486 -0.2496  0.1936
 5526W        W 7726   0.059   3.356  14.059 -0.2725  0.2588  0.3185
 5527W        W 7727   7.632   2.474  22.109 -0.2407 -0.1680  0.0523
 5528W        W 7728  18.750   1.210  27.419 -0.1229  0.2864 -0.0705
 5529W        W 7729   3.672   3.295   6.946  0.0788  0.4817 -0.2076
 5530W        W 7730   8.395   2.165   6.746  0.0248 -0.1383 -0.1785
 5531W        W 7731  25.750   6.552  31.454 -0.1661 -0.0570 -0.0981
 5532W        W 7732   6.559   4.010   8.691 -0.2494 -0.0984  0.2387
 5533W        W 7733  23.970   3.938   8.992  0.2630  0.0174 -0.3510
 5534W        W 7734  23.595   4.958  30.564  0.1081 -0.0303 -0.2038
 5535W        W 7735  22.423   4.162  27.013  0.0762 -0.1833  0.2668
 5536W        W 7736  16.525   6.332  30.614  0.0870  0.1531 -0.1634
 5537W        W 7737   3.786   1.790  30.253 -0.1078 -0.2204 -0.1388
 5538W        W 7738  20.128   6.219   6.276  0.1815  0.1319  0.3421
 5539W        W 7739   2.215   5.989   4.083  0.2032 -0.1516 -0.0362
 5540W        W 7740   9.132   5.691  11.787  0.0196 -0.0671  0.0600
 5541W        W 7741   9.475   4.916  29.731  0.3012 -0.2860 -0.1152
 5542W        W 7742  17.683   2.577   8.366  0.1516  0.0707  0.0062
 5543W        W 7743  17.398   0.341  11.739  0.1425 -0.2006 -0.1258
 5544W        W 7744  12.086   4.652   5.839  0.1545  0.0395  0.0222
 5545W        W 7745  12.424   5.993  13.794 -0.2158  0.0236  0.2322
 5546W        W 7746   5.341   0.608   0.990  0.2084 -0.0103  0.1166
 5547W        W 7747   2.815   1.907  12.631 -0.0452 -0.1101 -0.0705
 5548W        W 7748   4.483   6.451   7.852  0.1230 -0.1435 -0.0341
 5549W        W 7749   0.316   2.200  30.940 -0.2212 -0.0087  0.0269
 5550W        W 7750  12.076   0.685   9.112  0.0218  0.0620 -0.1614
 5551W        W 7751   9.173   2.096  13.817  0.1286 -0.1097  0.0428
 5552W        W 7752  26.196   4.702  28.403 -0.2012 -0.3932 -0.1666
 5553W        W 7753  11.819   0.998  25.831 -0.0271 -0.0910  0.1146
 5554W        W 7754   4.362   1.487  26.411  0.1830 -0.1435  0.0170
 5555W        W 7755  22.525   2.190   3.131 -0.0457 -0.2481 -0.3587
 5556W        W 7756  19.925   3.482   5.386 -0.0094  0.2274 -0.0131
 5557W        W 7757  19.321   1.419  10.592  0.1137  0.1682 -0.1647
 5558W        W 7758   1.908   6.057  13.645  0.1880 -0.0535  0.5575
 5559W        W 7759  17.420   4.058  12.603  0.1718  0.0870  0.1380
 5560W        W 7760   4.749   4.733  33.661  0.1167 -0.0715 -0.4533
 5561W        W 7761  11.338   6.151  30.878  0.1978 -0.0499  0.0545
 5562W        W 7762   4.116   2.210   2.737 -0.0322  0.0337 -0.0293
 5563W        W 7763   2.247   3.050   4.103 -0.0483  0.0854  0.0988
 5564W        W 7764   7.873   2.360   6.783 -0.1291  0.0307  0.1964
 5565W        W 7765  22.145   0.492   5.874 -0.2239 -0.1517 -0.0829
 5566W        W 7766  24.624   5.377  23.183 -0.1316  0.0753  0.0430
 5567W        W 7767  19.522   2.375   5.476  0.1775 -0.1444  0.0805
 5568W        W 7768  24.654   6.240   2.549  0.0246 -0.1118  0.0985
 5569W        W 7769  15.175   4.734  26.602  0.3224  0.2352 -0.1404
 5570W        W 7770  13.246   2.643  30.618 -0.0507 -0.0417 -0.1718
 5571W        W 7771   7.240   5.838  28.122 -0.1221  0.0518  0.1123
 5572W        W 7772   5.584   2.815   1.195 -0.1787  0.0505 -0.3452
 5573W        W 7773  18.017   5.214  28.932  0.4365  0.0805 -0.0758
 5574W        W 7774  26.128   3.072  21.116 -0.0292 -0.0818 -0.2229
 5575W        W 7775   5.057   4.302  26.991 -0.2371 -0.3928 -0.0403
 5576W        W 7776   3.541   6.007  27.245  0.5323  0.1045 -0.1435
 5577W        W 7777   1.021   4.878  30.384 -0.1736  0.0744 -0.0262
 5578W        W 7778  24.153   6.147   8.369  0.0795  0.0386 -0.1156
 5579W        W 7779   4.092   1.397   8.346 -0.0730 -0.1300  0.0583
 5580W        W 7780   4.281   3.087  34.161 -0.0355 -0.2824  0.2153
 5581W        W 7781  10.578   2.380  34.136 -0.3041 -0.0485  0.0062
 5582W        W 7782  20.035   4.059   0.496  0.2349 -0.1549  0.0811
 5583W        W 7783   3.129   2.785  23.792  0.0658  0.2258  0.0482
 5584W        W 7784   4.877   3.695   0.784  0.0063 -0.1465 -0.0040
 5585W        W 7785   2.894   2.208  31.389 -0.2370 -0.1355 -0.1342
 5586W        W 7786  16.636   0.085  26.780  0.0527  0.1699  0.1699
 5587W        W 7787  13.737   0.499  22.817  0.0219 -0.1417 -0.2074
 5588W        W 7788   8.166   0.068  35.700 -0.0420 -0.0390 -0.4086
 5589W        W 7789  10.571   5.357   0.972 -0.0893  0.4012 -0.0480
 5590W        W 7790   7.729   2.291  34.590  0.2681 -0.3821  0.1738
 5591W        W 7791  10.992   3.794  29.237  0.1646 -0.0100  0.2972
 5592W        W 7792   5.524   0.104  26.732  0.1810  0.0180  0.3588
 5593W        W 7793  15.922   0.623  14.272 -0.0321  0.3390  0.0432
 5594W        W 7794  14.850   0.582   4.864 -0.1667  0.0503  0.1514
 5595W        W 7795  12.768   3.557  23.553  0.2020  0.0814  0.0045
 5596W        W 7796   2.858   2.903  22.372  0.1792 -0.0480 -0.1874
 5597W        W 7797   9.735   4.042  30.139  0.0569 -0.1435 -0.0728
 5598W        W 7798   8.425   4.103  30.637  0.2740 -0.1003 -0.0559
 5599W        W 7799  14.687   2.960   4.444 -0.3260 -0.0976 -0.1211
 5600W        W 7800   0.160   5.896  21.669 -0.1348  0.2143  0.0139
 5601W        W 7801   2.525   3.854   8.063  0.2915 -0.0634  0.1907
 5602W        W 7802  11.064   4.884   2.992  0.0259 -0.2940  0.0466
 5603W        W 7803   7.545   5.773  35.527  0.2564 -0.0484  0.1987
 5604W        W 7804   0.812   4.073  35.682 -0.0452 -0.1413  0.2493
 5605W        W 7805   4.004   2.786  10.823  0.2373 -0.0276 -0.0684
 5606W        W 7806  13.441   4.949  21.789  0.0625 -0.1188  0.0362
 5607W        W 7807  16.329   0.378  23.499 -0.0059  0.2283  0.1958
 5608W        W 7808  10.149   3.410  24.927  0.2602 -0.0558  0.2540
 5609W        W 7809   3.491   3.615  34.270 -0.0920  0.1700  0.0592
 5610W        W 7810  26.271   4.506  11.223  0.3451 -0.0952  0.1950
 5611W        W 7811   0.678   4.815  23.807 -0.2905 -0.1728 -0.0349
 5612W        W 7812  13.045   2.928  15.604  0.2166 -0.0509 -0.0053
 5613W        W 7813   4.028   0.085  34.709 -0.0178  0.0864 -0.0600
 5614W        W 7814   2.199   2.584  21.520  0.2519 -0.0341 -0.2672
 5615W        W 7815  24.631   4.558   7.320  0.1703 -0.0468 -0.1842
 5616W        W 7816  19.573   3.616  14.386 -0.2470 -0.1046 -0.3527
 5617W        W 7817   5.955   6.316  32.527 -0.0447  0.0827 -0.1392
 5618W        W 7818  25.652   3.634  23.655 -0.0634 -0.0090 -0.0079
 5619W        W 7819  15.078   1.820   8.612 -0.0875  0.1970  0.2744
 5620W        W 7820   6.515   2.791  11.600 -0.0283 -0.2126 -0.1541
 5621W        W 7821  13.387   3.375  29.851  0.1055  0.6140  0.0578
 5622W        W 7822  13.302   5.983  31.436 -0.2238 -0.4699  0.1341
 5623W        W 7823  11.486   1.722  21.175 -0.1256 -0.2816 -0.0295
 5624W        W 7824  13.659   4.241   9.700 -0.0711  0.3719 -0.1110
 5625W        W 7825   7.473   3.094  30.129  0.0791  0.2782  0.0379
 5626W        W 7826  16.271   4.562   7.002  0.0807  0.2366 -0.1250
 5627W        W 7827   7.903   0.035  10.598 -0.0187 -0.0501 -0.0069
 5628W        W 7828  12.884   1.912  32.155 -0.1972  0.3830 -0.3081
 5629W        W 7829   4.078   5.916  31.342 -0.2287 -0.2705  0.1866
 5630W        W 7830   9.815   1.678  12.036 -0.0680  0.2732  0.1888
 5631W        W 7831  22.800   1.266   6.718  0.0217  0.1618 -0.1301
 5632W        W 7832   8.480   2.510  14.186 -0.0163  0.1005  0.0585
 5633W        W 7833  22.393   2.640   5.706  0.1607 -0.2555 -0.1510
 5634W        W 7834  22.097   6.445   4.772 -0.3337  0.0381 -0.2386
 5635W        W 7835  16.766   2.552  25.864 -0.0056  0.0796  0.1389
 5636W        W 7836   1.629   1.404  30.419  0.1236 -0.2912  0.1572
 5637W        W 7837  14.799   2.344  31.087 -0.0980  0.1489  0.2786
 5638W        W 7838  13.865   4.558   0.328 -0.0129  0.0784 -0.1879
 5639W        W 7839   5.759   3.030  32.608 -0.2774  0.1098 -0.0750
 5640W        W 7840  16.766   1.390  30.802  0.0692  0.1081  0.1818
 5641W        W 7841  19.690   2.105  32.596  0.3321  0.1173  0.0224
 5642W        W 7842  10.492   3.339  22.773 -0.2718  0.0075  0.0669
 5643W        W 7843   9.375   4.465  11.598 -0.3197  0.0380  0.0863
 5644W        W 7844  25.664   2.500  32.482  0.0636 -0.0798 -0.0002
 5645W        W 7845  25.412   2.331  34.896  0.0938  0.0914  0.1329
 5646W        W 7846  13.493   4.992  25.686 -0.1439  0.0920  0.1568
 5647W        W 7847  11.339   4.278  24.517 -0.0881 -0.0739  0.0172
 5648W        W 7848  25.466   5.407  31.695 -0.0714 -0.1342  0.0099
 5649W        W 7849  23.100   3.897  20.883 -0.1288  0.0122  0.2704
 5650W        W 7850  10.178   0.341   5.770  0.2460 -0.1699 -0.1741
 5651W        W 7851  17.494   5.518  11.220  0.1330 -0.0650  0.1151
 5652W        W 7852  24.639   0.007   5.325 -0.1857 -0.0017  0.0350
 5653W        W 7853  19.951   3.151  14.104  0.3125 -0.0268  0.0139
 5654W        W 7854  22.122   1.801  26.015  0.2274 -0.0023 -0.1644
 5655W        W 7855  14.811   0.732  32.914  0.1222 -0.2850  0.3736
 5656W        W 7856   6.896   0.673  25.655 -0.2344  0.3942 -0.2302
 5657W        W 7857  25.846   2.470   5.940  0.0798 -0.4372 -0.2812
 5658W        W 7858  13.323   5.912  25.721  0.0229  0.0088 -0.3385
 5659W        W 7859  13.534   4.408  24.395  0.0809 -0.2050  0.0075
 5660W        W 7860  24.531   1.314  33.174  0.2875  0.3171 -0.0129
 5661W        W 7861  13.085   2.223  32.635  0.3282 -0.1814  0.1114
 5662W        W 7862  11.127   5.127  34.594 -0.0438 -0.0549  0.0079
 5663W        W 7863   0.009   3.939  29.813 -0.0663 -0.2532  0.0855
 5664W        W 7864  19.772   2.448   6.316 -0.2056  0.1127  0.0802
 5665W        W 7865  11.671   0.872  10.813 -0.0673  0.0737 -0.0935
 5666W        W 7866  13.908   4.726   5.910  0.1038 -0.0041 -0.2596
 5667W        W 7867  15.125   2.284  33.296  0.1590 -0.0077  0.0443
 5668W        W 7868   3.215   5.459  26.758 -0.2887 -0.0050 -0.0564
 5669W        W 7869  15.352   2.956   6.536  0.1934  0.2837  0.1055
 5670W        W 7870  21.407   2.035  27.353  0.0033 -0.2615 -0.1646
 5671W        W 7871  14.377   1.912  36.010 -0.0433 -0.0889  0.2417
 5672W        W 7872  12.756   1.785  12.896  0.2125  0.2874  0.1716
 5673W        W 7873  24.749   3.980   3.794  0.1290  0.0500  0.0900
 5674W        W 7874   1.179   2.605   3.353 -0.1467 -0.1310 -0.1250
 5675W        W 7875   2.343   6.115  34.713 -0.0685  0.1599  0.1795
 5676W        W 7876  24.182   5.028  10.673  0.1674  0.1486 -0.0518
 5677W        W 7877  15.601   0.215  35.189  0.0137  0.0887  0.0672
 5678W        W 7878  19.614   5.867  10.769 -0.2078  0.0241  0.1418
 5679W        W 7879  16.481   3.787  12.240 -0.0048  0.2130 -0.0326
 5680W        W 7880   7.259   0.444  35.197  0.0580  0.1668 -0.1056
 5681W        W 7881  26.100   4.626  11.736  0.0515  0.2457 -0.1239
 5682W        W 7882   0.888   0.475  12.589  0.0593 -0.2448 -0.1608
 5683W        W 7883   0.443   4.079  31.801  0.0441 -0.2662 -0.1754
 5684W        W 7884  17.187   0.156  22.198 -0.0360 -0.2318 -0.3924
 5685W        W 7885   2.028   1.043  14.848  0.0195  0.0298  0.1431
 5686W        W 7886  25.385   4.229   4.420 -0.1887 -0.1386 -0.0195
 5687W        W 7887  26.377   5.657  27.818 -0.1388  0.3104  0.2630
 5688W        W 7888  18.933   4.906  20.691  0.0575  0.2237  0.1302
 5689W        W 7889   6.996   2.795  28.848  0.2450  0.0920 -0.0579
 5690W        W 7890  13.506   0.874   1.917 -0.0345  0.0024 -0.1562
 5691W        W 7891   6.346   0.944  31.921  0.0985 -0.2264  0.1277
 5692W        W 7892   3.238   3.160   7.169 -0.1542  0.0515 -0.0970
 5693W        W 7893  12.261   1.808  15.236  0.1405 -0.0181  0.0723
 5694W        W 7894   9.967   0.750  14.220  0.2019  0.1370  0.0945
 5695W        W 7895  24.737   5.597  24.805 -0.0433 -0.3099 -0.0125
 5696W        W 7896  19.096   5.131  26.565 -0.5386  0.1146 -0.0968
 5697W        W 7897  12.511   4.001   3.253  0.0118 -0.1191 -0.3772
 5698W        W 7898  14.824   2.294  27.478  0.0047 -0.0611  0.3706
 5699W        W 7899   6.056   2.359   1.243 -0.3190 -0.0849  0.1929
 5700W        W 7900   3.398   0.990  10.926 -0.0082  0.0067  0.0103
 5701W        W 7901   5.767   3.952  10.150 -0.0837 -0.0001  0.1057
 5702W        W 7902   5.824   2.856  13.555 -0.2199  0.0586  0.0984
 5703W        W 7903  16.631   1.701  15.043  0.2234  0.0232  0.2322
 5704W        W 7904   5.207   6.247  25.201  0.1014  0.1657 -0.2575
 5705W        W 7905  15.970   2.420  27.193  0.0417  0.0910 -0.1404
 5706W        W 7906   7.458   6.120  22.077  0.0576 -0.1887  0.2194
 5707W        W 7907   7.282   2.905  31.301  0.1621 -0.0794 -0.1883
 5708W        W 7908  11.268   6.540  27.385  0.0416  0.3866 -0.3151
 5709W        W 7909  13.021   3.216   8.818 -0.1786  0.1088  0.1610
 5710W        W 7910  16.586   6.330  23.340  0.2025 -0.1854 -0.0182
 5711W        W 7911  18.431   2.677  13.719 -0.0567 -0.2733  0.0333
 5712W        W 7912  11.039   3.805  14.346 -0.0592 -0.0706  0.0352
 5713W        W 7913  21.024   6.020   5.437  0.1880  0.0815  0.1804
 5714W        W 7914  16.884   3.830   3.496  0.0354 -0.1065  0.4502
 5715W        W 7915  23.006   2.383  20.643  0.2395 -0.2875  0.2422
 5716W        W 7916  12.861   1.940  15.244  0.1606  0.0743  0.0050
 5717W        W 7917  20.039   3.977  22.151 -0.2229  0.0289  0.0531
 5718W        W 7918   2.722   0.094  10.627  0.1001  0.0958 -0.2689
 5719W        W 7919   3.658   1.126  26.570 -0.1247 -0.1062 -0.1780
 5720W        W 7920  26.235   4.427   5.868 -0.1012  0.0729  0.2890
 5721W        W 7921   5.582   3.021   8.894 -0.0160  0.0463 -0.0362
 5722W        W 7922  23.896   0.565   0.100  0.0700 -0.0862 -0.0325
 5723W        W 7923   6.731   5.004   8.124 -0.1589 -0.2565 -0.1064
 5724W        W 7924  16.274   6.144  33.315 -0.2297 -0.1144 -0.0470
 5725W        W 7925  14.914   4.914  34.339  0.0986  0.2276 -0.0540
 5726W        W 7926  25.163   3.229  27.387  0.0928 -0.1024 -0.0717
 5727W        W 7927  24.156   5.448  23.171 -0.1614  0.0355 -0.1387
 5728W        W 7928   2.287   1.162  21.962 -0.4121 -0.0964 -0.1074
 5729W        W 7929  13.836   5.143  26.706  0.0395 -0.0266  0.1302
 5730W        W 7930   7.664   2.120   0.463  0.1391 -0.1285  0.1220
 5731W        W 7931  22.332   2.009   9.997 -0.0391 -0.2019  0.0496
 5732W        W 7932   2.674   0.057  24.746  0.2768  0.0987 -0.1640
 5733W        W 7933  24.481   3.547   1.280  0.4147  0.4077 -0.1379
 5734W        W 7934  14.542   2.932   9.526  0.0673 -0.1360  0.0422
 5735W        W 7935   2.147   6.479  21.208  0.1286 -0.3467 -0.0571
 5736W        W 7936   0.232   4.855  32.034  0.0816 -0.4326  0.0599
 5737W        W 7937  20.323   3.571  27.585 -0.0356  0.2726  0.0888
 5738W        W 7938   2.606   3.302   7.979 -0.2393  0.0665 -0.0953
 5739W        W 7939  24.044   3.104  33.396 -0.3059  0.1433  0.4865
 5740W        W 7940   0.829   2.665  35.282  0.0389 -0.4843  0.2054
 5741W        W 7941  23.123   4.840  26.064 -0.1402 -0.2017 -0.0613
 5742W        W 7942  13.365   4.677  13.051 -0.1789 -0.2778  0.3506
 5743W        W 7943   5.046   5.807   3.758  0.0986 -0.2220 -0.2296
 5744W        W 7944  10.953   4.249  15.052  0.1794 -0.0271  0.0984
 5745W        W 7945  26.110   0.079  10.845 -0.3336  0.1227  0.0108
 5746W        W 7946  17.069   1.857   8.058 -0.1627  0.2332  0.2211
 5747W        W 7947   9.539   2.992  13.216  0.0480  0.0260  0.0609
 5748W        W 7948  13.969   0.660   1.776  0.0545  0.0852 -0.3029
 5749W        W 7949  12.744   2.326  20.396  0.0403 -0.0259  0.0828
 5750W        W 7950  24.731   6.320  35.110  0.0497 -0.0563  0.2724
 5751W        W 7951  18.165   4.545  24.530 -0.1608  0.1400 -0.0953
 5752W        W 7952   7.824   1.184  29.500  0.0846  0.0035 -0.0419
 5753W        W 7953  23.981   5.106  22.109 -0.0905  0.3710 -0.0067
 5754W        W 7954   1.164   0.721   4.468  0.0850  0.0258 -0.0998
 5755W        W 7955  24.032   2.805   8.828  0.0371 -0.0207 -0.1656
 5756W        W 7956  24.217   1.978  22.657 -0.4105 -0.0500 -0.2055
 5757W        W 7957   9.737   0.298  29.620  0.1929 -0.4952 -0.3322
 5758W        W 7958  13.319   5.338  29.353  0.1825 -0.0564 -0.1534
 5759W        W 7959  17.020   1.953  25.247  0.1844  0.2786  0.1191
 5760W        W 7960   0.799   2.006  14.722 -0.0375 -0.0953  0.2799
 5761W        W 7961  14.849   4.444  31.871  0.1388 -0.3006 -0.1658
 5762W        W 7962  19.813   1.426  29.333 -0.2414  0.0766  0.0554
 5763W        W 7963  20.862   2.612  11.172 -0.2985  0.2355  0.0790
 5764W        W 7964  21.593   3.193   5.456 -0.0012  0.0517 -0.1367
 5765W        W 7965  11.134   2.708  32.124 -0.0808  0.0714  0.2005
 5766W        W 7966   4.742   2.497   0.003  0.2192 -0.2130  0.1266
 5767W        W 7967  12.527   3.369  25.958 -0.1545 -0.1082 -0.1916
 5768W        W 7968   9.740   4.637   2.106  0.1072 -0.0335 -0.3553
 5769W        W 7969  12.910   2.592   2.235 -0.3245 -0.0462  0.2154
 5770W        W 7970   5.234   2.121  22.597 -0.1213  0.0835  0.0115
 5771W        W 7971   0.219   6.054  22.624 -0.2173 -0.1356 -0.1594
 5772W        W 7972  17.370   4.435  22.774 -0.2437 -0.0396  0.0477
 5773W        W 7973   6.510   4.197  11.652  0.1235  0.1895 -0.0746
 5774W        W 7974  19.996   3.868  33.856  0.3836  0.1122  0.3186
 5775W        W 7975   0.081   0.961  14.361  0.0223 -0.3376 -0.3095
 5776W        W 7976  13.214   6.451  30.028 -0.2542  0.2549  0.0964
 5777W        W 7977  15.156   3.189  15.537  0.0678  0.1232 -0.0074
 5778W        W 7978  15.511   1.500  32.337 -0.0475  0.0724  0.3888
 5779W        W 7979  12.614   6.494  32.143 -0.0362  0.0108 -0.0728
 5780W        W 7980   0.857   1.860  22.233  0.2543  0.3534 -0.2130
 5781W        W 7981  24.967   4.081  14.080 -0.0553 -0.0349  0.0802
 5782W        W 7982   8.966   2.115  34.833  0.0234  0.1290  0.1965
 5783W        W 7983  21.014   4.203  34.015  0.0827 -0.2743 -0.0343
 5784W        W 7984  13.359   1.851  34.516 -0.2902 -0.1142 -0.1718
 5785W        W 7985  13.372   1.716   4.036 -0.0432  0.0363  0.0017
 5786W        W 7986   4.472   4.115  22.904 -0.1243 -0.1385  0.0622
 5787W        W 7987  24.906   0.665  25.682 -0.2035  0.1988 -0.2933
 5788W        W 7988  26.189   3.206   0.547 -0.0513  0.1034  0.2274
 5789W        W 7989   3.805   4.361  13.370  0.3692  0.1386  0.1344
 5790W        W 7990   2.760   1.797  26.751 -0.5298 -0.0176  0.2315
 5791W        W 7991  11.431   6.483  25.981 -0.0156 -0.1552  0.2227
 5792W        W 7992   6.935   5.759   0.569 -0.2221  0.1430 -0.0589
 5793W        W 7993   6.470   0.193  10.250 -0.1165 -0.0345  0.0988
 5794W        W 7994   8.553   4.356  29.476 -0.0846 -0.1356 -0.0526
 5795W        W 7995   5.587   0.554  26.359  0.1629  0.0418 -0.1399
 5796W        W 7996  24.014   1.695  22.288 -0.3528 -0.0978  0.0723
 5797W        W 7997   9.106   5.731   2.525  0.0149  0.4639  0.0512
 5798W        W 7998   8.435   0.311   8.976 -0.1026  0.0829  0.0033
 5799W        W 7999   2.095   6.163  33.738  0.0113  0.1128  0.2443
 5800W        W 8000   9.957   5.820  22.875  0.1666 -0.1527  0.0241
 5801W        W 8001  12.519   1.673   2.463 -0.4827  0.3208 -0.3010
 5802W        W 8002   3.116   5.695   6.491 -0.2321  0.1051  0.0580
 5803W        W 8003   6.550   6.537  12.471  0.4702  0.0876  0.3343
 5804W        W 8004  21.217   2.330  26.579 -0.0253 -0.0353 -0.0032
 5805W        W 8005   2.559   3.467  30.811 -0.0824  0.1072 -0.1512
 5806W        W 8006   8.380   3.387  15.805 -0.0350 -0.0714 -0.1277
 5807W        W 8007  24.984   0.395   9.798  0.0424 -0.0617  0.1336
 5808W        W 8008  25.338   1.929   0.429  0.0059 -0.1619  0.2728
 5809W        W 8009   9.692   5.057   1.792  0.0318  0.1722 -0.0393
 5810W        W 8010  19.877   4.129  10.830  0.0660  0.0420 -0.0809
 5811W        W 8011  21.557   2.336  26.159 -0.1247 -0.0262 -0.1933
 5812W        W 8012   1.214   1.746  20.945 -0.1498 -0.4095 -0.0378
 5813W        W 8013  13.074   4.305   9.781  0.0515  0.0435 -0.2855
 5814W        W 8014  26.357   0.145  32.635  0.1322  0.1944 -0.0145
 5815W        W 8015   7.770   5.027   1.493 -0.0087  0.2228 -0.1311
 5816W        W 8016  16.287   0.423  34.749 -0.3359  0.0952  0.0764
 5817W        W 8017  22.249   3.960   8.768  0.2483 -0.1238  0.0754
 5818W        W 8018  15.471   4.571  35.850  0.0549 -0.2981 -0.1470
 5819W        W 8019  25.929   1.325   5.316  0.2312 -0.0010  0.0273
 5820W        W 8020  12.686   3.803  28.110 -0.0456  0.0907  0.2647
 5821W        W 8021  13.135   4.251  10.847 -0.1348 -0.1882  0.1308
 5822W        W 8022  20.561   4.521  30.981  0.2141  0.1392 -0.0112
 5823W        W 8023  14.825   3.497  23.872  0.1982 -0.2100  0.2964
 5824W        W 8024  24.827   1.434  30.660 -0.1185 -0.2357 -0.2324
 5825W        W 8025  19.336   5.640  31.461 -0.1267  0.4408 -0.0125
 5826W        W 8026   9.218   3.217  14.530 -0.0667  0.0525 -0.3539
 5827W        W 8027   6.940   1.839  24.221 -0.0211 -0.0186 -0.0592
 5828W        W 8028   4.129   0.936  20.842 -0.0801 -0.1407  0.0616
 5829W        W 8029   3.846   1.203   9.905 -0.0660  0.0700 -0.2091
 5830W        W 8030   9.135   0.849  34.234 -0.3872  0.1799 -0.0572
 5831W        W 8031  15.266   1.351  23.325  0.1593  0.0640 -0.1542
 5832W        W 8032  24.603   1.814  23.081  0.1844  0.3408 -0.1527
 5833W        W 8033   4.031   5.260  13.317  0.0410 -0.5501  0.3515
 5834W        W 8034  23.497   4.974   2.632  0.1758  0.2592  0.0471
 5835W        W 8035   9.119   5.032  10.196  0.0210  0.1754 -0.1123
 5836W        W 8036  23.679   1.100  30.139 -0.0217  0.2203 -0.0465
 5837W        W 8037   4.311   4.076   9.157  0.0187  0.3047 -0.2628
 5838W        W 8038   5.072   3.441  35.257 -0.0392 -0.0451  0.1849
 5839W        W 8039  24.525   6.060  21.516  0.3170  0.0523 -0.0906
 5840W        W 8040  13.825   1.341  20.762  0.1547 -0.0094  0.2482
 5841W        W 8041   7.297   6.440  27.363 -0.2060 -0.2343  0.0314
 5842W        W 8042   1.534   4.008  32.585  0.1097 -0.1707 -0.1786
 5843W        W 8043  18.531   4.449  21.780  0.1347  0.0025  0.1621
 5844W        W 8044  16.551   6.156  35.936  0.0789  0.1162 -0.0893
 5845W        W 8045  17.274   4.182   9.103 -0.1484  0.1136  0.0756
 5846W        W 8046   3.787   3.087   1.515 -0.0795  0.3231  0.0125
 5847W        W 8047  23.193   1.132  33.302  0.1374  0.1079 -0.0246
 5848W        W 8048   9.570   4.728  21.009  0.2080 -0.0567  0.0364
 5849W        W 8049  13.289   5.210  22.252 -0.1413 -0.2263 -0.2114
 5850W        W 8050  22.092   2.044  15.190 -0.1096  0.0081 -0.0709
 5851W        W 8051  25.193   2.180  30.611 -0.2124 -0.0882  0.4093
 5852W        W 8052   7.601   3.065  14.698 -0.0532  0.0468  0.1947
 5853W        W 8053   5.542   3.437  25.583  0.1069  0.0197  0.0026
 5854W        W 8054   0.175   5.519   3.137 -0.1802  0.2452  0.1730
 5855W        W 8055  22.390   0.348  10.155  0.1406  0.0207 -0.2034
 5856W        W 8056   5.583   6.490  20.886 -0.0118 -0.4825 -0.0122
 5857W        W 8057  22.162   3.098  20.297 -0.0849  0.1337 -0.0818
 5858W        W 8058   6.826   5.910   8.656  0.2612  0.2386  0.0228
 5859W        W 8059  11.106   0.129  26.368 -0.1025  0.3118 -0.0887
 5860W        W 8060  21.446   6.024  31.853  0.1340 -0.1969  0.1038
 5861W        W 8061   8.511   0.464  35.690 -0.0610 -0.4792 -0.3877
 5862W        W 8062  10.331   0.281  12.813 -0.0265  0.2711 -0.0575
 5863W        W 8063   6.786   6.241  27.212 -0.1523  0.0487  0.2395
 5864W        W 8064  22.004   1.488  23.773 -0.1452 -0.1321 -0.1130
 5865W        W 8065  17.100   2.932  28.425  0.0027  0.2296 -0.2889
 5866W        W 8066  12.862   0.755  11.369 -0.3119 -0.3383  0.1951
 5867W        W 8067   7.078   0.131   8.570 -0.0832  0.0406  0.7180
 5868W        W 8068   1.324   3.914   0.159  0.2240 -0.0534  0.3970
 5869W        W 8069  19.743   1.087  23.450 -0.2349  0.0392  0.1511
 5870W        W 8070  22.361   5.576   8.078 -0.0329 -0.1057  0.0763
 5871W        W 8071  10.899   6.403   5.529 -0.3003  0.1227 -0.2276
 5872W        W 8072  23.662   2.365   7.388 -0.0379 -0.1592 -0.0321
 5873W        W 8073   4.224   4.855  30.509  0.1666  0.0640  0.1560
 5874W        W 8074   6.353   2.110   9.586  0.1610 -0.2076  0.4042
 5875W        W 8075   1.117   1.093  31.672  0.2397 -0.0792 -0.0765
 5876W        W 8076  25.880   3.844   3.337 -0.0881 -0.0036  0.0921
 5877W        W 8077  13.709   0.432  28.116 -0.0672 -0.0152 -0.2191
 5878W        W 8078  17.755   3.625  25.566 -0.2777  0.0356 -0.2483
 5879W        W 8079   4.648   1.097  20.682  0.0751 -0.0142  0.0213
 5880W        W 8080  21.340   3.639  10.729  0.0994 -0.2835  0.2041
 5881W        W 8081   8.824   2.692  35.083  0.0934 -0.2767  0.2492
 5882W        W 8082  17.728   0.799  11.525  0.0100 -0.0016 -0.3660
 5883W        W 8083  10.651   6.052   1.618  0.0926 -0.3956 -0.1003
 5884W        W 8084  22.325   5.182  21.752  0.0190 -0.0742  0.2856
 5885W        W 8085   3.549   3.536  23.461  0.0641  0.0098 -0.2562
 5886W        W 8086  19.543   5.617  22.730 -0.1120 -0.1790 -0.3824
 5887W        W 8087  12.876   2.429  31.058  0.0255  0.0109 -0.0150
 5888W        W 8088  16.942   4.664  22.587 -0.0192  0.0753  0.1635
 5889W        W 8089  12.694   5.527  23.201 -0.0114 -0.1212  0.2010
 5890W        W 8090   6.703   5.182   0.142 -0.1882  0.1358 -0.0748
 5891W        W 8091  13.012   1.553  32.611  0.1945  0.0063 -0.0862
 5892W        W 8092   1.982   0.717  25.578 -0.3117 -0.2550 -0.1894
 5893W        W 8093   5.022   1.543  32.687  0.0999 -0.3244  0.0490
 5894W        W 8094   6.751   2.517   5.534  0.2300 -0.1888  0.0744
 5895W        W 8095  13.630   2.813   8.254  0.0963  0.1147  0.1652
 5896W        W 8096   5.935   5.583   1.471  0.1955  0.3323 -0.0842
 5897W        W 8097   6.083   3.126   1.953 -0.0844  0.0488  0.0959
 5898W        W 8098  23.613   5.502   0.672 -0.0302  0.1817 -0.0613
 5899W        W 8099   9.176   2.259   0.046  0.3367  0.0969  0.0771
 5900W        W 8100   6.374   5.109  12.697 -0.2931  0.2062 -0.1575
 5901W        W 8101  25.024   4.791  35.696  0.2975 -0.0692  0.0161
 5902W        W 8102  19.808   3.910   5.092  0.0757  0.0040  0.0750
 5903W        W 8103  15.743   5.345   6.190  0.0211 -0.0791  0.0095
 5904W        W 8104  25.450   0.245   3.577  0.0901 -0.0240 -0.2396
 5905W        W 8105  24.395   5.169  12.172  0.1441 -0.0068 -0.2998
 5906W        W 8106  23.145   1.084  13.184 -0.0720  0.1597 -0.0664
 5907W        W 8107  18.023   0.517  14.598 -0.2852  0.0036  0.2375
 5908W        W 8108  18.650   1.636  29.505  0.2476  0.0846 -0.2462
 5909W        W 8109   9.344   0.428   2.417 -0.0034 -0.0150  0.3172
 5910W        W 8110  23.940   5.555  34.556  0.2500  0.0127 -0.2972
 5911W        W 8111  26.396   1.478   5.180 -0.1677  0.1257  0.2433
 5912W        W 8112  16.147   0.656  13.750 -0.1701  0.0516  0.1062
 5913W        W 8113  20.814   4.223  15.260  0.0753  0.0096  0.3604
 5914W        W 8114  24.390   4.367   6.325 -0.3431 -0.0067  0.1453
 5915W        W 8115   7.760   4.074  23.224 -0.1843 -0.0321  0.3557
 5916W        W 8116   7.278   4.799  13.051  0.1251 -0.1061 -0.1825
 5917W        W 8117  21.842   2.938  32.481 -0.0974 -0.0145  0.2096
 5918W        W 8118  21.292   2.940  27.760  0.0825  0.0282  0.2745
 5919W        W 8119   7.591   0.210  27.145 -0.1278 -0.1523  0.2934
 5920W        W 8120   8.435   2.253  12.825  0.0987  0.1987 -0.3732
 5921W        W 8121  21.527   2.854  32.886  0.1894  0.1823 -0.0312
 5922W        W 8122  21.738   5.098   8.245 -0.1756  0.3475 -0.0940
 5923W        W 8123  25.169   1.601  25.917  0.2620  0.1710  0.2121
 5924W        W 8124   2.486   3.858  25.470 -0.1845  0.2243 -0.0981
 5925W        W 8125  15.838   2.312  10.250 -0.1209 -0.0765 -0.3918
 5926W        W 8126  16.714   1.156  23.521  0.2092 -0.2086 -0.2827
 5927W        W 8127  13.307   6.067   5.681 -0.0706  0.0724 -0.1379
 5928W        W 8128   9.080   3.827   2.086 -0.1067  0.0304 -0.0723
 5929W        W 8129  12.931   0.089  28.398 -0.0609  0.1675  0.3255
 5930W        W 8130   3.781   3.483  30.477 -0.2074 -0.0353  0.0245
 5931W        W 8131  11.824   4.582  34.311 -0.0052 -0.0235 -0.3188
 5932W        W 8132  23.831   4.414  36.177  0.0338  0.0283 -0.1564
 5933W        W 8133   2.275   0.875  11.490 -0.1284 -0.0841  0.0735
 5934W        W 8134  22.099   0.422  34.690  0.0018  0.2182  0.0593
 5935W        W 8135  25.172   6.324  29.624 -0.1215  0.2522  0.1075
 5936W        W 8136   9.980   5.141  35.517 -0.1378 -0.2409 -0.1152
 5937W        W 8137  24.442   4.414  27.899  0.0755 -0.0750 -0.2228
 5938W        W 8138  14.717   4.237  22.057 -0.1459  0.0690 -0.0483
 5939W        W 8139  15.681   1.965   9.410 -0.1861 -0.3641  0.2735
 5940W        W 8140   7.875   2.306  26.476 -0.0820  0.0652  0.1036
 5941W        W 8141   5.454   3.809  23.831  0.0164 -0.0016 -0.2685
 5942W        W 8142  15.605   4.847  34.993 -0.2183  0.1608  0.1707
 5943W        W 8143  16.469   3.528  29.422 -0.1863 -0.3075  0.3019
 5944W        W 8144   6.240   2.623  33.503  0.1957 -0.0732 -0.3005
 5945W        W 8145   1.010   2.968   3.992  0.2216  0.1300 -0.1544
 5946W        W 8146   4.381   3.250  21.646 -0.0455  0.1874  0.2101
 5947W        W 8147  12.935   4.021   6.954 -0.1291  0.3956  0.3278
 5948W        W 8148   0.464   6.468  23.282 -0.0516 -0.3218 -0.2050
 5949W        W 8149  14.859   4.621  28.264 -0.0143  0.1236  0.1223
 5950W        W 8150  16.050   0.580  31.199  0.0808 -0.1433  0.0447
 5951W        W 8151  17.216   5.678   2.402  0.2282  0.1065 -0.1432
 5952W        W 8152  25.424   6.518  11.282  0.2298  0.0850 -0.0595
 5953W        W 8153  25.439   4.976  12.305 -0.0643  0.1984  0.0131
 5954W        W 8154  16.004   4.509  11.187 -0.3031  0.2430  0.1063
 5955W        W 8155   2.782   1.441  22.585 -0.1415 -0.1267  0.3417
 5956W        W 8156  26.099   2.673  14.237 -0.0199  0.0287  0.1725
 5957W        W 8157   0.778   6.453  30.564  0.2692  0.0723  0.1534
 5958W        W 8158   6.679   2.009   2.608 -0.2651 -0.0907  0.0384
 5959W        W 8159   5.501   0.491  27.416  0.0752  0.1409 -0.1053
 5960W        W 8160   4.607   2.174  22.053 -0.1972  0.0592 -0.0970
 5961W        W 8161   2.758   5.494  25.847 -0.2127  0.1519  0.1527
 5962W        W 8162   8.488   6.556  26.450  0.0564  0.2133  0.2814
 5963W        W 8163   9.626   0.061  33.879  0.0989  0.1763  0.0979
 5964W        W 8164   9.770   3.593  24.443  0.0112  0.2175 -0.2433
 5965W        W 8165  20.490   5.245   8.675  0.1329 -0.0978  0.1580
 5966W        W 8166  21.733   3.517  26.881 -0.2549 -0.2906 -0.0757
 5967W        W 8167   8.003   2.058  23.626 -0.1667  0.0781  0.0899
 5968W        W 8168   5.188   2.612   8.381  0.0207 -0.1988  0.0003
 5969W        W 8169  23.832   3.714  10.347  0.1113 -0.0677  0.1296
 5970W        W 8170   6.672   5.703  11.532 -0.1624 -0.0775  0.0494
 5971W        W 8171   0.122   3.098   7.207  0.1307 -0.0448 -0.3278
 5972W        W 8172  14.097   0.460  31.973  0.1313 -0.0247 -0.4796
 5973W        W 8173  13.742   4.868  12.784  0.1116  0.2107  0.0482
 5974W        W 8174  12.019   4.970   8.197 -0.2823  0.1296 -0.2483
 5975W        W 8175  18.863   2.225   3.557  0.0803  0.0441 -0.0622
 5976W        W 8176  18.103   5.277  30.690  0.4128 -0.0679  0.3500
 5977W        W 8177  16.901   0.385  24.787  0.1654  0.0130 -0.0592
 5978W        W 8178   2.514   0.591   2.197 -0.1331 -0.1523  0.0857
 5979W        W 8179   2.409   2.969  13.346  0.0867 -0.1010  0.0515
 5980W        W 8180  12.714   4.656  32.345 -0.0034 -0.0430  0.1446
 5981W        W 8181  22.963   0.643  12.995 -0.2652  0.2770 -0.1638
 5982W        W 8182   2.031   0.241   5.410  0.0401  0.2600  0.0768
 5983W        W 8183   8.619   1.578   7.566 -0.1086  0.0592 -0.1672
 5984W        W 8184  17.164   1.462  20.268  0.0677 -0.2198 -0.0358
 5985W        W 8185  26.207   3.938   9.110  0.1669  0.2575 -0.1861
 5986W        W 8186  21.597   3.973  14.607  0.0762  0.2291  0.0952
 5987W        W 8187   9.073   3.560   0.591  0.1108  0.0993  0.0537
 5988W        W 8188  22.913   1.934  36.096  0.2868  0.1722 -0.2728
 5989W        W 8189  24.629   0.697  27.696 -0.2050 -0.0833 -0.1361
 5990W        W 8190  15.836   2.208  32.734  0.1614 -0.1210 -0.0164
 5991W        W 8191  19.312   0.972  34.021  0.1991  0.0327 -0.1384
 5992W        W 8192  11.371   5.168  35.528  0.1757 -0.2066  0.2014
 5993W        W 8193   7.932   5.742  14.234 -0.0183  0.2069  0.1105
 5994W        W 8194  10.005   5.585   5.821  0.2229 -0.2322 -0.0011
 5995W        W 8195  26.307   4.100  11.521 -0.0142  0.0121 -0.1852
 5996W        W 8196   7.457   3.131   0.623 -0.2433 -0.1095  0.2194
 5997W        W 8197  18.302   5.461  20.789 -0.2226  0.2070  0.1287
 5998W        W 8198   2.195   2.234  33.498  0.0438 -0.1794  0.2383
 5999W        W 8199  21.771   0.417  24.550 -0.0320  0.1315 -0.0440
 6000W        W 8200  21.004   2.424  10.282 -0.0824 -0.1486 -0.0548
 6001W        W 8201   0.124   1.456  35.189 -0.1804  0.2565 -0.3901
 6002W        W 8202   3.836   3.886   7.733  0.2464 -0.1487  0.0380
 6003W        W 8203   1.022   0.392  21.029  0.0465 -0.1569 -0.4149
 6004W        W 8204   0.626   2.874  23.048 -0.1916 -0.4429  0.3582
 6005W        W 8205  14.834   5.066  13.458 -0.2910  0.0158  0.0933
 6006W        W 8206  11.539   5.250  30.607  0.0834  0.4109  0.0550
 6007W        W 8207   4.239   3.453   3.754 -0.0337 -0.2395  0.1047
 6008W        W 8208   9.450   2.912  33.265 -0.0386 -0.2472  0.0720
 6009W        W 8209   3.028   0.572  31.313 -0.1220  0.1932 -0.0331
 6010W        W 8210   3.887   5.717  33.814  0.0553  0.1501 -0.0068
 6011W        W 8211   4.120   4.537   6.226  0.0670 -0.0320  0.0093
 6012W        W 8212  24.275   5.991   6.239  0.4370 -0.3445 -0.0486
 6013W        W 8213   8.912   4.580  34.712  0.1853  0.0466  0.0444
 6014W        W 8214   3.486   4.360   2.214 -0.3390 -0.0533  0.2149
 6015W        W 8215   1.451   3.004   1.054  0.1151  0.1193  0.0007
 6016W        W 8216  12.648   4.545  22.494 -0.2947  0.0068  0.2030
 6017W        W 8217   2.257   6.323  13.440  0.2832 -0.0688 -0.2186
 6018W        W 8218   7.387   1.176  33.279  0.0189 -0.3087 -0.0525
 6019W        W 8219  25.149   3.987  10.981 -0.1524 -0.0279 -0.0617
 6020W        W 8220   2.691   1.683  25.141 -0.1499  0.1138  0.2691
 6021W        W 8221  24.322   1.045  34.110  0.0001  0.0999  0.0700
 6022W        W 8222  19.743   5.809   1.194 -0.0507  0.1191  0.2833
 6023W        W 8223   7.693   1.665  23.729 -0.1319  0.3447  0.4198
 6024W        W 8224  21.373   2.000  27.883  0.2673 -0.0032 -0.0778
 6025W        W 8225  12.445   5.037  32.730 -0.2063  0.0335 -0.1246
 6026W        W 8226  16.478   5.653  33.553 -0.1699 -0.1712 -0.0144
 6027W        W 8227  22.609   3.009  35.646  0.0997  0.0943  0.1093
 6028W        W 8228   5.508   1.667  23.443 -0.0446  0.3262  0.1445
 6029W        W 8229  26.046   0.326   3.493 -0.0916 -0.0117  0.1279
 6030W        W 8230  21.408   4.387   1.765 -0.0970  0.1164 -0.0917
 6031W        W 8231  16.912   4.477  34.273 -0.4784 -0.1241  0.2443
 6032W        W 8232   6.862   1.362  23.513 -0.1293  0.2982 -0.0801
 6033W        W 8233  13.699   4.895  24.613 -0.0922 -0.1999  0.0265
 6034W        W 8234   4.161   4.331  20.130  0.2652  0.0569  0.1134
 6035W        W 8235   4.360   6.114  35.956  0.2129  0.2346  0.0698
 6036W        W 8236  17.826   0.039  30.466  0.0961  0.0415 -0.1490
 6037W        W 8237  20.334   0.056  29.100 -0.1636  0.1764  0.0622
 6038W        W 8238   5.760   1.004  13.289  0.2412  0.2092 -0.0591
 6039W        W 8239  20.195   3.754  26.659 -0.1497 -0.0221 -0.1364
 6040W        W 8240  16.253   6.062   5.750 -0.3266 -0.4438 -0.0506
 6041W        W 8241  21.618   4.585  14.173 -0.0196 -0.1670 -0.0828
 6042W        W 8242   9.439   5.215   0.063  0.2104  0.0797  0.1354
 6043W        W 8243   5.133   1.257  26.149  0.0251 -0.2720  0.2567
 6044W        W 8244   4.649   0.936  27.251 -0.2020  0.0066 -0.1545
 6045W        W 8245   9.182   6.426   7.830 -0.1002  0.1319 -0.2407
 6046W        W 8246  25.097   2.353   6.869  0.1895  0.0701 -0.1803
 6047W        W 8247   6.401   5.357  29.270  0.0073  0.0531 -0.1019
 6048W        W 8248  14.196   4.365   8.567 -0.2537 -0.4110  0.1882
 6049W        W 8249  11.051   0.034  36.105 -0.0069 -0.0034  0.1520
 6050W        W 8250  11.677   2.414   9.184 -0.0491 -0.1572 -0.2835
 6051W        W 8251  12.832   4.665  12.660 -0.3174  0.1214 -0.0580
 6052W        W 8252  20.897   0.581  24.226 -0.2843 -0.2242 -0.1842
 6053W        W 8253   7.490   1.841  27.177 -0.1047  0.3169 -0.3567
 6054W        W 8254   2.806   5.007   4.870 -0.1687  0.0738 -0.1621
 6055W        W 8255  15.719   1.009  32.161 -0.1752  0.0366 -0.2547
 6056W        W 8256  13.850   0.628   6.429  0.3138  0.2570  0.1367
 6057W        W 8257  20.877   6.518  14.359  0.1559  0.0947  0.1941
 6058W        W 8258   4.881   3.583   4.672  0.0691  0.0877 -0.2509
 6059W        W 8259  15.554   0.718  21.323 -0.0717 -0.1055  0.5575
 6060W        W 8260  15.520   6.450  32.133 -0.0667 -0.0179 -0.1722
 6061W        W 8261  15.904   0.738   9.772 -0.1142  0.0657  0.0244
 6062W        W 8262  23.002   4.898   2.878  0.0340  0.0295 -0.0390
 6063W        W 8263   0.555   1.313  32.357 -0.0156 -0.1061 -0.0896
 6064W        W 8264  23.257   5.129  28.873  0.1719 -0.0548 -0.0664
 6065W        W 8265  12.694   0.189  21.190 -0.1025 -0.1288  0.0449
 6066W        W 8266   7.679   0.425  26.306 -0.0263 -0.2128 -0.6038
 6067W        W 8267  18.152   4.842  15.709 -0.0021 -0.1357 -0.2154
 6068W        W 8268  17.804   3.169   6.872  0.0772  0.1123 -0.0111
 6069W        W 8269   5.783   4.683   9.399 -0.0732 -0.2306  0.3165
 6070W        W 8270   4.321   0.392  20.641 -0.2045  0.2800  0.0284
 6071W        W 8271  19.328   3.295  27.685 -0.1820 -0.2234  0.0334
 6072W        W 8272  16.477   6.035   8.267 -0.0602 -0.1725 -0.3389
 6073W        W 8273   5.099   3.974   6.241 -0.2026  0.2982 -0.0204
 6074W        W 8274  21.490   4.620  32.920  0.0051 -0.0136 -0.0277
 6075W        W 8275  26.105   0.832  31.232  0.1634 -0.1054  0.2902
 6076W        W 8276   4.874   6.591  33.637  0.0601 -0.0796  0.0659
 6077W        W 8277   2.721   2.955  29.147  0.0216  0.1533 -0.0915
 6078W        W 8278  16.161   4.744  29.482 -0.2730 -0.3464 -0.1396
 6079W        W 8279   5.862   2.249  14.534 -0.2204 -0.2215  0.0532
 6080W        W 8280   7.868   3.483  28.871  0.1582 -0.1853  0.5005
 6081W        W 8281   2.565   0.528  13.091  0.3475 -0.0756 -0.0096
 6082W        W 8282   5.314   0.537   2.407  0.1343  0.4430  0.3025
 6083W        W 8283  22.582   3.053  22.485 -0.0668 -0.2581 -0.2663
 6084W        W 8284  15.978   4.791  35.453 -0.0162 -0.1434  0.1654
 6085W        W 8285   4.527   1.576  25.584  0.1408 -0.0423 -0.0501
 6086W        W 8286   1.794   4.712  23.570 -0.0930  0.1330 -0.0192
 6087W        W 8287  24.732   1.167   5.647 -0.1146 -0.2307 -0.1096
 6088W        W 8288  24.608   2.371   3.834 -0.1979  0.1366  0.0067
 6089W        W 8289  25.379   0.477   4.719  0.0295 -0.2150  0.0117
 6090W        W 8290  20.306   4.254  33.172 -0.1979 -0.1425  0.1222
 6091W        W 8291  19.496   4.387  10.970 -0.5003 -0.1024 -0.2929
 6092W        W 8292  19.304   2.567  30.212  0.1558 -0.0900 -0.1849
 6093W        W 8293   5.939   0.898   8.181  0.0773 -0.2935 -0.0108
 6094W        W 8294   5.497   3.076   0.424 -0.0243 -0.0490  0.2379
 6095W        W 8295   3.583   3.217  21.249 -0.0924 -0.0461 -0.1834
 6096W        W 8296   0.486   0.970   8.744  0.2606 -0.0343  0.1889
 6097W        W 8297  17.280   3.327   8.426 -0.2437 -0.0654  0.0294
 6098W        W 8298   3.934   5.088  20.968  0.0565 -0.3600  0.0680
 6099W        W 8299  24.075   2.284  15.520  0.0068 -0.0779 -0.0625
 6100W        W 8300  17.084   2.893   3.855 -0.0388  0.0244 -0.1175
 6101W        W 8301  22.575   5.313   0.645  0.0727  0.0383 -0.3255
 6102W        W 8302  20.903   3.439  11.403 -0.0877  0.0659  0.0021
 6103W        W 8303   7.530   5.337  21.667 -0.1825 -0.2939  0.0756
 6104W        W 8304  19.008   4.715  24.208  0.0340  0.2080 -0.0750
 6105W        W 8305  16.465   0.661  29.012  0.2698  0.1167  0.2709
 6106W        W 8306   7.663   1.155  34.498  0.1149 -0.0638 -0.2213
 6107W        W 8307   0.306   2.809  32.679 -0.1526 -0.3944 -0.2461
 6108W        W 8308   6.098   5.542  33.012 -0.0113  0.1145  0.3703
 6109W        W 8309   7.445   2.307  14.229  0.1819 -0.0054  0.0544
 6110W        W 8310   2.662   3.697  26.500  0.3224  0.1828 -0.1133
 6111W        W 8311  12.400   4.580  15.439 -0.1475 -0.1372 -0.0017
 6112W        W 8312  22.327   3.330   9.724  0.3048 -0.1148 -0.1847
 6113W        W 8313  21.938   3.835  21.128 -0.2844 -0.2772 -0.1842
 6114W        W 8314  17.558   2.232   1.357 -0.0911 -0.1137 -0.4177
 6115W        W 8315   4.702   4.625  14.475 -0.0613  0.1026  0.0789
 6116W        W 8316   6.521   4.887  13.702  0.0897  0.2230  0.1414
 6117W        W 8317  22.354   1.990  21.863 -0.0549  0.1357  0.1759
 6118W        W 8318   5.450   2.473  31.086  0.1277 -0.0059  0.0191
 6119W        W 8319  19.336   4.694   8.078 -0.0106 -0.1188  0.1220
 6120W        W 8320   6.374   0.404  27.335  0.0532  0.1438 -0.1516
 6121W        W 8321   5.155   0.631  24.983 -0.1168  0.1375  0.3180
 6122W        W 8322   8.948   3.320  32.396  0.1548 -0.2620  0.1599
 6123W        W 8323  15.578   1.670  35.172 -0.3538 -0.3205 -0.3756
 6124W        W 8324   7.776   4.407   8.599  0.2043 -0.0062  0.3002
 6125W        W 8325   6.573   0.955  26.493 -0.0866 -0.1021 -0.1119
 6126W        W 8326   6.177   2.873  30.396 -0.0558 -0.2945 -0.2151
 6127W        W 8327   3.610   6.246   8.531 -0.0276 -0.0346  0.0622
 6128W        W 8328  20.577   2.789   0.372  0.0111  0.1130 -0.1609
 6129W        W 8329   6.886   6.215  13.411  0.4495 -0.3844 -0.0850
 6130W        W 8330  14.846   0.594  13.469 -0.1435  0.0270 -0.0130
 6131W        W 8331   0.867   3.459   4.220 -0.2087 -0.0843  0.0213
 6132W        W 8332  22.454   0.181  23.204 -0.0171  0.3288  0.0659
 6133W        W 8333  20.756   4.276  29.508  0.1287 -0.2844 -0.2907
 6134W        W 8334   2.834   2.591  14.168  0.0151  0.0180  0.2236
 6135W        W 8335  16.594   0.612  27.307 -0.0587 -0.2454  0.1334
 6136W        W 8336  20.511   4.747   3.717 -0.4705 -0.1821 -0.3671
 6137W        W 8337  24.536   1.089  10.214  0.1911  0.1538  0.1218
 6138W        W 8338   0.337   6.251  31.654 -0.1501 -0.2820  0.1280
 6139W        W 8339   7.983   4.625   5.969  0.0450 -0.1878 -0.2753
 6140W        W 8340  13.041   0.914  14.353  0.0434 -0.0091  0.1992
 6141W        W 8341   3.690   3.382   3.223  0.0669 -0.2154 -0.3533
 6142W        W 8342  12.602   1.364  34.789 -0.0316  0.0586  0.3252
 6143W        W 8343  14.572   0.857   7.054  0.1914 -0.3510  0.0938
 6144W        W 8344  18.284   0.735   3.958  0.4630 -0.1829  0.2817
 6145W        W 8345  24.648   2.156  32.781  0.1784 -0.0022 -0.0679
 6146W        W 8346  17.597   2.739  25.250  0.3415  0.3526 -0.0870
 6147W        W 8347  23.781   3.769  30.897 -0.2834  0.2963  0.0862
 6148W        W 8348  19.793   1.597   5.664  0.2145 -0.1247  0.1448
 6149W        W 8349  15.914   0.286   2.029 -0.2582 -0.0230  0.0449
 6150W        W 8350  16.705   5.703  13.877 -0.0328 -0.0560  0.2073
 6151W        W 8351   4.909   0.245   1.289  0.0120 -0.0042 -0.2852
 6152W        W 8352  26.207   4.820   8.734  0.0293  0.0998  0.0482
 6153W        W 8353  17.968   1.186  21.618 -0.2337  0.1780  0.0324
 6154W        W 8354   0.807   0.992   8.180  0.0804 -0.0551 -0.1612
 6155W        W 8355  16.426   2.935  11.491 -0.0064 -0.2433 -0.1045
 6156W        W 8356   1.188   3.487  31.789 -0.0246 -0.1745  0.0187
 6157W        W 8357   0.938   2.324   4.759 -0.1651 -0.1877  0.1118
 6158W        W 8358  12.517   4.658   4.777 -0.0264  0.0516  0.2120
 6159W        W 8359  23.908   3.662  13.319 -0.1626 -0.0404  0.2127
 6160W        W 8360   2.851   4.174  25.510 -0.1024 -0.3449  0.5264
 6161W        W 8361  14.688   6.428   5.650 -0.0635 -0.0721 -0.1275
 6162W        W 8362   4.667   5.195  33.955  0.1871 -0.1545  0.0301
 6163W        W 8363  17.531   6.430  22.249 -0.1041 -0.0452 -0.2860
 6164W        W 8364  12.768   0.024  31.150  0.1448  0.1302 -0.0780
 6165W        W 8365   9.583   1.702  22.549 -0.1269 -0.0177 -0.1078
 6166W        W 8366  19.391   5.746   2.425 -0.0032 -0.3403 -0.1005
 6167W        W 8367  13.074   3.458   7.933  0.1925  0.0139  0.0155
 6168W        W 8368  12.250   2.104  25.697  0.1957  0.2220 -0.0521
 6169W        W 8369   0.074   6.533   3.412  0.1862  0.2183  0.1103
 6170W        W 8370  21.704   0.134   9.824  0.2786  0.3109  0.1285
 6171W        W 8371  11.670   0.319  12.430 -0.1113  0.1862 -0.1772
 6172W        W 8372  14.990   3.574   4.019  0.0144  0.3553  0.0625
 6173W        W 8373   9.737   2.472  10.836  0.0480  0.0996  0.2414
 6174W        W 8374  23.592   3.163  33.576  0.4153 -0.1651  0.0872
 6175W        W 8375   8.204   4.124  31.081 -0.0954 -0.0602 -0.2873
 6176W        W 8376   4.091   1.299  12.338  0.0199 -0.0531  0.0861
 6177W        W 8377   4.702   0.648   9.818 -0.0751  0.1011 -0.0540
 6178W        W 8378  16.707   3.498  11.816 -0.0239  0.1622  0.0752
 6179W        W 8379  16.507   6.564  26.254 -0.0134  0.3266 -0.1157
 6180W        W 8380  19.753   3.297   1.351 -0.0686  0.1228 -0.1139
 6181W        W 8381  23.965   4.989   7.335  0.4190 -0.0032 -0.3430
 6182W        W 8382  15.670   2.855  32.119 -0.1275  0.1858 -0.1838
 6183W        W 8383   8.040   4.197  12.785 -0.2879  0.1072  0.0913
 6184W        W 8384  26.195   5.956  11.602 -0.1072  0.2349  0.2545
 6185W        W 8385   2.877   4.372  24.252 -0.0058 -0.2118 -0.1323
 6186W        W 8386  11.295   5.979  22.287  0.0423  0.1572  0.2050
 6187W        W 8387  13.962   0.860  28.847 -0.1481 -0.1762  0.1641
 6188W        W 8388  26.104   5.892   4.928  0.2091  0.1074 -0.3506
 6189W        W 8389   5.549   1.088  22.662 -0.0482 -0.1626  0.4417
 6190W        W 8390  19.935   0.220  27.489  0.1085  0.0770 -0.0630
 6191W        W 8391  24.138   5.903  27.066 -0.0965  0.2383  0.2070
 6192W        W 8392   3.495   5.296  14.412 -0.0176  0.1523 -0.0992
 6193W        W 8393   2.543   6.590   9.533  0.1584 -0.0569 -0.1116
 6194W        W 8394  22.743   1.003   1.955  0.0789 -0.0391  0.2764
 6195W        W 8395  19.982   6.349  22.676  0.0603 -0.0182 -0.0575
 6196W        W 8396   5.986   5.355  34.535  0.2472 -0.0617  0.2485
 6197W        W 8397   7.655   5.448  24.317 -0.0589 -0.0303  0.0775
 6198W        W 8398   5.997   0.633  22.711 -0.1686  0.2739  0.0089
 6199W        W 8399  12.615   1.274  33.765 -0.1141 -0.1074  0.2086
 6200W        W 8400  13.298   1.440  33.096 -0.1934 -0.0792 -0.4253
 6201W        W 8401  12.432   4.877   4.292  0.1308  0.0001  0.2259
 6202W        W 8402  21.654   5.923  21.353 -0.1362  0.0576 -0.0613
 6203W        W 8403  16.839   4.844  28.063 -0.4674 -0.0833 -0.3924
 6204W        W 8404  15.432   5.677  24.896  0.0877 -0.0368  0.0293
 6205W        W 8405   8.870   1.621  14.116 -0.4731  0.3838 -0.0546
 6206W        W 8406   4.672   0.857   7.849  0.0945 -0.0640 -0.0092
 6207W        W 8407  15.598   2.227  25.214  0.1915 -0.1843 -0.0080
 6208W        W 8408  19.031   1.339  20.839 -0.2742 -0.0589  0.0445
 6209W        W 8409   8.871   5.121  25.919  0.0486  0.2635 -0.0874
 6210W        W 8410  14.341   2.557   1.700  0.1627  0.0633  0.2880
 6211W        W 8411  23.103   2.438  32.767  0.3892 -0.0734  0.2073
 6212W        W 8412   9.364   1.609  31.797 -0.0384 -0.1437  0.0063
 6213W        W 8413  20.648   4.443   9.473  0.1261  0.0986 -0.0445
 6214W        W 8414  10.693   3.051  12.156  0.0495 -0.1768 -0.0207
 6215W        W 8415  13.971   0.791  33.396  0.1412  0.2990  0.1390
 6216W        W 8416  12.244   4.978  25.332 -0.0955 -0.0710 -0.3249
 6217W        W 8417  22.518   2.769  15.391  0.0439 -0.1116  0.4187
 6218W        W 8418   7.824   3.081  34.037 -0.0277 -0.2176  0.1088
 6219W        W 8419  15.113   3.256  26.753 -0.0341 -0.2487  0.0051
 6220W        W 8420  15.820   1.208  10.085  0.1064  0.1236 -0.0662
 6221W        W 8421  17.249   0.579   2.874  0.1256 -0.3321 -0.0259
 6222W        W 8422  15.782   5.004  31.694  0.1157 -0.1221  0.0482
 6223W        W 8423   9.373   1.783  12.267  0.3125  0.1260  0.0729
 6224W        W 8424  18.943   3.733  25.741  0.1329 -0.1256  0.0017
 6225W        W 8425  23.585   1.868  29.539  0.3733  0.2498  0.1225
 6226W        W 8426  12.159   6.025   3.157 -0.1052  0.1291 -0.1155
 6227W        W 8427   0.080   0.377   2.056  0.0488 -0.1822 -0.0319
 6228W        W 8428  11.912   4.588   6.320 -0.1164  0.2480 -0.1504
 6229W        W 8429  12.683   5.167  14.466 -0.1606  0.5363  0.0663
 6230W        W 8430  23.875   1.647   6.902 -0.2701 -0.0588  0.1699
 6231W        W 8431   9.809   1.153   7.548 -0.4273  0.2207 -0.2372
 6232W        W 8432   7.467   1.444   4.862  0.2040  0.0032  0.0657
 6233W        W 8433  18.261   2.364   2.964  0.0889 -0.2652 -0.1452
 6234W        W 8434   8.980   2.008  32.663 -0.0187  0.2382 -0.2030
 6235W        W 8435   7.254   4.841  31.803  0.1538  0.0010  0.0761
 6236W        W 8436  12.086   3.898  30.405 -0.0184 -0.0527  0.0319
 6237W        W 8437  11.147   1.325  27.015  0.2973 -0.0723  0.5094
 6238W        W 8438  13.787   0.653  27.641  0.2025 -0.0897  0.0388
 6239W        W 8439  23.119   2.885   5.972  0.2535 -0.1473 -0.0224
 6240W        W 8440  19.426   4.742  10.602 -0.0672 -0.4130 -0.3098
 6241W        W 8441   5.825   5.889  34.824  0.0545 -0.1779 -0.0445
 6242W        W 8442  22.898   0.816  13.468  0.2483  0.0939 -0.3384
 6243W        W 8443  22.941   6.454  25.781  0.0905 -0.0373  0.0395
 6244W        W 8444   0.832   6.102  32.570  0.4809 -0.1356 -0.3820
 6245W        W 8445  20.566   3.524  27.021  0.0303  0.0039  0.2327
 6246W        W 8446  19.004   3.153  32.864  0.1226  0.2043  0.2192
 6247W        W 8447   5.142   3.560  29.901 -0.0728 -0.0185 -0.0377
 6248W        W 8448   8.768   1.430   9.400  0.0544  0.1323  0.1841
 6249W        W 8449  19.763   4.242  12.611  0.2320 -0.0223 -0.2844
 6250W        W 8450  18.445   0.165   4.742 -0.1080  0.1364 -0.1109
 6251W        W 8451  10.505   6.180  21.408  0.1326 -0.1764 -0.1164
 6252W        W 8452   1.128   5.409  33.488  0.0273  0.0665  0.3096
 6253W        W 8453  15.947   3.913   8.295  0.2065  0.2345  0.0563
 6254W        W 8454   1.406   0.558   9.819 -0.0718 -0.3815 -0.2830
 6255W        W 8455  11.543   4.195  26.319 -0.2084 -0.0916 -0.4794
 6256W        W 8456   9.933   3.173   5.542  0.1229 -0.0414  0.0054
 6257W        W 8457  22.357   0.633  29.761 -0.0913  0.1851  0.0755
 6258W        W 8458  19.592   3.994  23.758 -0.1926  0.1724  0.0362
 6259W        W 8459  25.514   1.739  14.233 -0.1391  0.3344 -0.0997
 6260W        W 8460   1.049   6.165  26.718  0.0964 -0.0570  0.1890
 6261W        W 8461  10.310   4.084   9.357 -0.0806 -0.0429 -0.1085
 6262W        W 8462   5.320   1.540  15.269  0.1010  0.0396 -0.2255
 6263W        W 8463   3.371   5.934  11.025 -0.1777 -0.0275  0.1190
 6264W        W 8464  15.269   5.041   0.470 -0.0329 -0.0920  0.0377
 6265W        W 8465  22.352   0.711   8.010  0.1409  0.1422  0.0095
 6266W        W 8466   6.714   5.120  15.185  0.0075 -0.0496  0.0316
 6267W        W 8467  10.079   1.560  21.501  0.0376 -0.0783  0.2918
 6268W        W 8468  10.958   1.191  22.668  0.3578  0.0354  0.0890
 6269W        W 8469  10.385   2.844  12.894 -0.2273 -0.2340 -0.2290
 6270W        W 8470   6.590   4.348  29.430  0.1334  0.1396  0.3436
 6271W        W 8471  15.196   2.391   7.171 -0.0900  0.0256 -0.0494
 6272W        W 8472  22.973   4.529  23.319  0.3247  0.1914  0.1151
 6273W        W 8473   3.480   6.349  14.850 -0.0603  0.0882 -0.0955
 6274W        W 8474  24.242   0.628  22.442  0.1952  0.0523 -0.2030
 6275W        W 8475  18.364   2.877  14.229  0.1197  0.0044  0.0001
 6276W        W 8476   0.483   4.938   9.533  0.2714 -0.0321  0.0911
 6277W        W 8477  18.120   4.611  35.959 -0.0012 -0.1379  0.0915
 6278W        W 8478  20.822   0.161  33.627  0.3392  0.0175  0.1786
 6279W        W 8479  25.160   6.253   2.157 -0.1758 -0.0068 -0.1229
 6280W        W 8480   1.346   5.575  29.511 -0.1199  0.3035 -0.0872
 6281W        W 8481  22.606   6.137   7.865  0.2755 -0.0005 -0.3403
 6282W        W 8482  18.795   3.381   7.305  0.0932 -0.3460  0.2010
 6283W        W 8483   0.853   0.508   0.256  0.3759  0.2712 -0.2522
 6284W        W 8484  21.078   6.233  11.825 -0.0895 -0.2148 -0.1608
 6285W        W 8485  13.745   2.431  15.755 -0.0392  0.1696 -0.1538
 6286W        W 8486   7.809   4.015   2.973 -0.1845  0.2662 -0.4481
 6287W        W 8487  25.301   4.297  12.653  0.0446 -0.1697 -0.1698
 6288W        W 8488  10.067   5.195   2.652  0.2322 -0.4645  0.1708
 6289W        W 8489  22.325   2.206  30.875 -0.4077 -0.0280  0.1095
 6290W        W 8490  25.467   2.948  11.218 -0.0441 -0.2234 -0.1651
 6291W        W 8491  25.335   3.007  34.337 -0.0901 -0.0220 -0.0390
 6292W        W 8492  11.424   3.143  25.375  0.0712  0.0353 -0.4031
 6293W        W 8493  25.161   3.171   6.686  0.0025 -0.0723 -0.1608
 6294W        W 8494  15.436   4.274  23.834 -0.2423  0.2189  0.0363
 6295W        W 8495  12.185   5.405   2.143  0.1870 -0.0576 -0.0252
 6296W        W 8496   9.541   3.473  20.812 -0.2406 -0.0939  0.0047
 6297W        W 8497  10.140   2.732   0.317 -0.0236  0.3223 -0.3478
 6298W        W 8498  19.016   2.119  34.144  0.0647  0.1317  0.0425
 6299W        W 8499  24.012   6.417  10.953 -0.0831 -0.0853  0.0635
 6300W        W 8500   9.788   3.680  13.913  0.3358 -0.1228  0.1027
 6301W        W 8501   2.568   1.435  10.721  0.0275  0.0589 -0.1547
 6302W        W 8502  25.067   4.144   0.442  0.0059 -0.1626 -0.4260
 6303W        W 8503  25.035   4.045  25.048  0.0272 -0.1484 -0.1956
 6304W        W 8504  22.706   5.873  12.529  0.2641 -0.0677 -0.0575
 6305W        W 8505  18.620   3.512  13.251 -0.1328  0.0550 -0.0057
 6306W        W 8506   1.528   0.549   6.999  0.0109  0.2059  0.1197
 6307W        W 8507  23.961   3.981  35.883  0.1318  0.1857 -0.1566
 6308W        W 8508   0.530   2.630   0.366 -0.0024  0.1495  0.0811
 6309W        W 8509  25.995   5.174  30.148  0.1195  0.0500  0.2696
 6310W        W 8510   1.896   0.329  31.743 -0.1490  0.0154  0.1006
 6311W        W 8511  15.959   0.176  22.076 -0.1522 -0.1949  0.0238
 6312W        W 8512   0.153   5.608  32.341 -0.0294 -0.1087  0.0666
 6313W        W 8513  15.429   5.371   8.584 -0.3650  0.1432  0.0202
 6314W        W 8514  18.897   5.760   9.578 -0.0267 -0.2491  0.2132
 6315W        W 8515   3.374   2.626  28.276  0.1084  0.2875 -0.1000
 6316W        W 8516  25.261   5.640   0.545  0.2484  0.0670  0.1113
 6317W        W 8517  23.107   1.977  32.488 -0.0412  0.0756  0.0306
 6318W        W 8518  24.237   5.057  33.358  0.0963 -0.3167 -0.0066
 6319W        W 8519  16.272   2.399  34.417 -0.0907 -0.2625 -0.2668
 6320W        W 8520   6.346   2.846   3.096 -0.1267 -0.0493  0.1421
 6321W        W 8521   9.427   1.726   1.201 -0.2124 -0.0997 -0.0253
 6322W        W 8522  13.140   4.870  23.634 -0.1785  0.1944  0.1800
 6323W        W 8523  23.166   6.021  27.838  0.1377  0.1655  0.1120
 6324W        W 8524  17.997   3.648  10.584  0.0127  0.1814 -0.2879
 6325W        W 8525   8.762   3.076  12.448  0.1479  0.0937  0.3151
 6326W        W 8526   0.553   1.078  29.220  0.0270 -0.1202  0.1655
 6327W        W 8527  14.011   6.080  31.614 -0.2552  0.2885 -0.0293
 6328W        W 8528  21.388   2.202   7.479  0.2473 -0.0133 -0.0167
 6329W        W 8529  25.423   5.269  11.909 -0.0529 -0.2419 -0.1075
 6330W        W 8530   6.965   2.521   7.354  0.1698  0.0033 -0.0204
 6331W        W 8531  13.839   0.407  10.671 -0.1890  0.2023  0.0072
 6332W        W 8532  15.745   3.608  28.946  0.0759 -0.0153  0.0814
 6333W        W 8533  14.196   3.485  32.921 -0.0112 -0.0796 -0.0427
 6334W        W 8534  20.186   2.062  14.416 -0.0579 -0.1748 -0.0444
 6335W        W 8535  20.586   2.877  26.824  0.1202  0.0418  0.0358
 6336W        W 8536  26.161   2.951  28.726 -0.0183  0.0350  0.2740
 6337W        W 8537   2.214   6.460  26.063  0.2545  0.2807  0.1535
 6338W        W 8538  23.112   1.861  29.758 -0.0066 -0.1000  0.1299
 6339W        W 8539   6.907   3.942  11.418  0.2429  0.4786 -0.2542
 6340W        W 8540  12.833   4.784  20.257  0.0275 -0.0848  0.2966
 6341W        W 8541   2.851   0.124  30.380 -0.0434 -0.0214 -0.4341
 6342W        W 8542   0.324   5.918   2.335 -0.0604 -0.2931  0.0371
 6343W        W 8543   4.467   3.259  35.516 -0.0221 -0.2831 -0.1287
 6344W        W 8544   4.127   5.128   2.953  0.0823 -0.0856  0.0727
 6345W        W 8545  22.140   3.881  14.695  0.1227  0.0664  0.1914
 6346W        W 8546   3.377   3.497  10.282  0.3100 -0.0816 -0.2523
 6347W        W 8547  14.160   1.529  31.439 -0.2004 -0.0502  0.3192
 6348W        W 8548   4.882   4.169   3.580  0.1911 -0.2670 -0.1341
 6349W        W 8549  12.919   1.624  14.381 -0.1714  0.0025 -0.0310
 6350W        W 8550   2.419   2.954  32.438  0.0652  0.1187  0.0396
 6351W        W 8551  23.234   1.455  33.669 -0.3028  0.1422 -0.1759
 6352W        W 8552  13.903   0.807  11.819 -0.1738 -0.2618  0.0809
 6353W        W 8553  15.788   3.708  29.801  0.1587  0.1125 -0.1370
 6354W        W 8554  23.811   6.305  22.642 -0.2093  0.0585  0.0877
 6355W        W 8555  18.188   1.146  33.542 -0.0936  0.1075 -0.4478
 6356W        W 8556   5.072   3.223  28.055 -0.3253  0.1456 -0.0396
 6357W        W 8557  14.233   1.328  32.045 -0.0663  0.1929 -0.0953
 6358W        W 8558   7.430   0.263  12.664 -0.0275 -0.2850  0.2834
 6359W        W 8559  21.336   3.918   1.511  0.2730 -0.2369  0.2228
 6360W        W 8560  13.544   6.145  12.435 -0.2715 -0.0985  0.2359
 6361W        W 8561  14.737   4.401  36.084 -0.2224  0.0183  0.0896
 6362W        W 8562   6.989   4.308   9.564  0.0030 -0.3793 -0.1183
 6363W        W 8563  17.038   0.350  32.648 -0.0657  0.0179 -0.1835
 6364W        W 8564  10.455   6.014   6.713  0.4063 -0.0219 -0.1665
 6365W        W 8565  13.260   5.139   3.930  0.2843  0.0708 -0.0373
 6366W        W 8566  24.610   0.228  32.107  0.2055  0.0018  0.0825
 6367W        W 8567  17.994   4.794  11.604  0.1706  0.1869 -0.0377
 6368W        W 8568   0.854   1.656   5.328 -0.1084  0.0698  0.0437
 6369W        W 8569   7.686   1.236   3.284 -0.0274  0.1456 -0.1240
 6370W        W 8570   0.499   4.434   5.210 -0.0022 -0.1115 -0.0453
 6371W        W 8571   3.225   3.404  21.584 -0.0253  0.2677  0.1787
 6372W        W 8572  19.522   4.126  21.546  0.0825 -0.1014  0.2583
 6373W        W 8573  12.219   5.091  11.433  0.1934 -0.0133 -0.0539
 6374W        W 8574   6.530   5.778  25.332  0.2776  0.0636 -0.0993
 6375W        W 8575   8.962   0.576   4.172  0.0117  0.0159  0.1078
 6376W        W 8576  12.829   2.343  13.793  0.0047  0.1088 -0.1458
 6377W        W 8577   0.791   5.832  25.420 -0.2894 -0.1010 -0.0988
 6378W        W 8578   9.794   4.667   5.192  0.2406 -0.1402  0.1032
 6379W        W 8579  11.309   5.532  28.321 -0.0983  0.0155  0.1871
 6380W        W 8580   9.710   2.547  23.024 -0.0289 -0.0664 -0.0049
 6381W        W 8581  16.578   0.772  23.838  0.1756  0.2587  0.3293
 6382W        W 8582   6.238   2.740  26.632  0.0692 -0.1307 -0.1114
 6383W        W 8583   6.221   0.921  14.241 -0.1276  0.0434 -0.2320
 6384W        W 8584  23.969   1.156   3.956 -0.0440  0.0304  0.1273
 6385W        W 8585  10.253   1.250  26.578  0.0946 -0.3636  0.0461
 6386W        W 8586   2.675   2.376   7.019  0.2083 -0.0990  0.1595
 6387W        W 8587  10.659   4.041  35.004  0.3366 -0.0112  0.2322
 6388W        W 8588   5.200   3.234   9.153  0.0434 -0.3177 -0.0073
 6389W        W 8589  23.558   3.119  36.072 -0.0838  0.0669  0.1671
 6390W        W 8590  10.817   4.463  23.886 -0.0464  0.1073  0.1180
 6391W        W 8591  19.646   1.764  26.378  0.2528 -0.0874 -0.1575
 6392W        W 8592  18.955   4.167  27.157 -0.2065  0.1182  0.1653
 6393W        W 8593   6.825   4.007   1.162 -0.0333 -0.2261 -0.3553
 6394W        W 8594   0.994   0.661  35.213  0.1639 -0.1774 -0.2682
 6395W        W 8595   6.297   0.452  10.652  0.0979 -0.3414 -0.0873
 6396W        W 8596  19.084   1.761  35.332  0.2409  0.0574  0.1314
 6397W        W 8597  24.938   1.257  10.399  0.1433 -0.2609 -0.1769
 6398W        W 8598  14.600   5.256   4.715  0.1366  0.1015  0.1941
 6399W        W 8599  17.836   0.978   3.832  0.0831 -0.1126 -0.1460
 6400W        W 8600   8.201   5.180   6.096  0.0163  0.0371 -0.1339
 6401W        W 8601  12.372   1.925  31.395  0.0584 -0.3416 -0.2240
 6402W        W 8602  24.029   2.227  12.521 -0.1708  0.1978  0.1455
 6403W        W 8603  24.920   1.380  14.490  0.2960 -0.2691  0.0327
 6404W        W 8604  17.497   5.793   4.640 -0.0573  0.0192  0.0983
 6405W        W 8605  12.108   1.122  31.708 -0.0618 -0.1704  0.0895
 6406W        W 8606  22.078   5.372  30.797  0.2152 -0.0535 -0.0961
 6407W        W 8607  11.151   6.450  22.998  0.0256 -0.1366 -0.1825
 6408W        W 8608  22.323   4.555  20.851  0.2227 -0.0108 -0.1873
 6409W        W 8609  23.646   2.906   8.078  0.0665  0.2237  0.3408
 6410W        W 8610  18.076   1.256  31.900  0.0032 -0.3382  0.5510
 6411W        W 8611  14.603   6.353   2.850  0.0403  0.1766  0.3677
 6412W        W 8612   6.890   1.377   9.663  0.2471  0.3340  0.3104
 6413W        W 8613   1.441   2.792  33.364  0.0231 -0.0486 -0.1573
 6414W        W 8614  18.374   6.510   2.984 -0.3250  0.1447 -0.2460
 6415W        W 8615  16.020   2.960  31.693 -0.1891 -0.0635 -0.0247
 6416W        W 8616   3.051   2.817   0.387  0.0622 -0.0999  0.1964
 6417W        W 8617  24.923   5.362  25.698 -0.1911  0.0587  0.0682
 6418W        W 8618  16.034   1.493   2.756  0.0621  0.0897 -0.2369
 6419W        W 8619   9.093   5.955  24.809 -0.0036  0.1144  0.3761
 6420W        W 8620   6.855   0.456  24.743  0.1844 -0.0361 -0.1499
 6421W        W 8621  15.533   1.936   0.309 -0.1800 -0.0674  0.1647
 6422W        W 8622  12.936   6.602  33.651  0.1224 -0.2946  0.1945
 6423W        W 8623  20.284   1.575  23.180 -0.1066 -0.4993 -0.1904
 6424W        W 8624   8.302   0.549   4.848  0.0211  0.4098  0.2347
 6425W        W 8625   7.938   2.651  26.167 -0.0142  0.0232 -0.2556
 6426W        W 8626   1.900   3.600  10.830  0.2331 -0.1185 -0.2809
 6427W        W 8627   5.886   2.542  32.746  0.1989 -0.2774 -0.2743
 6428W        W 8628  12.145   4.949  14.167  0.0273  0.0214  0.0501
 6429W        W 8629  14.434   2.950   2.696  0.0137  0.3119  0.1978
 6430W        W 8630   1.019   2.049  24.413  0.0618 -0.1099 -0.0948
 6431W        W 8631  11.987   4.270  21.156 -0.0622  0.1068  0.0814
 6432W        W 8632   9.228   5.014   8.200 -0.0620 -0.1713 -0.1148
 6433W        W 8633  21.040   2.357  32.042  0.1920 -0.5785 -0.0064
 6434W        W 8634  16.395   5.835  26.248 -0.3220  0.1327  0.1558
 6435W        W 8635   3.832   3.065   3.872  0.0448 -0.1977  0.0210
 6436W        W 8636  25.613   4.738   4.256  0.0072  0.4316 -0.0123
 6437W        W 8637  17.626   4.870  12.025 -0.2549  0.0920 -0.2690
 6438W        W 8638  13.819   3.850  35.201 -0.0326  0.0002 -0.0023
 6439W        W 8639  11.474   1.028   4.396 -0.0448  0.0373 -0.3296
 6440W        W 8640  18.539   5.119   0.602 -0.1619 -0.0886 -0.0138
 6441W        W 8641   3.648   0.789  34.484  0.3480 -0.1058  0.0302
 6442W        W 8642   3.805   3.008  28.323 -0.0060  0.1554  0.0626
 6443W        W 8643  15.166   0.345  26.853  0.0747 -0.0046  0.0520
 6444W        W 8644  20.660   6.391  10.092 -0.4358 -0.0642  0.0202
 6445W        W 8645   2.177   3.713  32.339  0.1190 -0.2105  0.0616
 6446W        W 8646  15.033   0.886  27.401  0.1333 -0.0723  0.0464
 6447W        W 8647   1.699   1.613   4.994 -0.1512  0.0662  0.0568
 6448W        W 8648  22.778   0.445  28.462  0.0321  0.0068  0.1199
 6449W        W 8649   5.434   3.514  12.829 -0.0240  0.2165 -0.0603
 6450W        W 8650  12.843   3.330   6.551  0.0759  0.0450 -0.0275
 6451W        W 8651  21.290   0.390   2.402 -0.0719  0.3789 -0.2598
 6452W        W 8652  19.876   5.129  34.796 -0.0437 -0.0111  0.4046
 6453W        W 8653  19.015   5.047  23.044  0.0008  0.1206  0.1149
 6454W        W 8654   0.725   1.753  33.930  0.3584 -0.2672  0.0245
 6455W        W 8655  13.673   1.279   2.148  0.0232  0.2333  0.0047
 6456W        W 8656  10.581   6.498  21.806  0.2487 -0.1318 -0.2643
 6457W        W 8657  21.442   6.072   8.614 -0.2174 -0.2950  0.0831
 6458W        W 8658  11.498   0.913   0.506 -0.1920  0.1837 -0.1713
 6459W        W 8659  20.338   0.186   2.894  0.1828  0.0291  0.0678
 6460W        W 8660  11.019   5.682   6.154 -0.1901 -0.1437  0.1913
 6461W        W 8661  12.994   3.978  11.210 -0.0469 -0.0435 -0.2823
 6462W        W 8662  18.732   2.639  11.181 -0.0570  0.0267  0.1810
 6463W        W 8663  17.557   5.755   1.626  0.0073 -0.4720 -0.0045
 6464W        W 8664  20.140   2.868   6.195 -0.0025 -0.0616  0.0142
 6465W        W 8665   8.141   3.499  35.981 -0.1089 -0.0989  0.1731
 6466W        W 8666  11.639   6.369  34.758  0.0782  0.4141 -0.0367
 6467W        W 8667  14.730   3.619   9.032  0.0790 -0.0683  0.1631
 6468W        W 8668  13.845   4.569  25.985  0.0740 -0.1522  0.1562
 6469W        W 8669  11.172   3.595   1.991  0.1688  0.1829 -0.1164
 6470W        W 8670   9.921   0.623   7.577  0.2297  0.1233  0.0744
 6471W        W 8671  16.492   2.869  35.864  0.0389 -0.0847  0.1251
 6472W        W 8672   5.973   5.792   4.532  0.0324 -0.1129  0.1900
 6473W        W 8673  11.759   0.993  22.591  0.2416  0.0905 -0.2804
 6474W        W 8674  12.084   4.298  21.618 -0.2091 -0.1403 -0.0650
 6475W        W 8675   2.020   6.556   1.415  0.4557 -0.0504  0.1502
 6476W        W 8676  22.080   1.807   5.277  0.1401 -0.0006  0.0479
 6477W        W 8677  15.314   1.411  28.044 -0.3423 -0.1752  0.1149
 6478W        W 8678  24.867   6.148  31.574 -0.0836  0.0733  0.0123
 6479W        W 8679   1.148   4.016   1.905 -0.0645 -0.1600  0.0088
 6480W        W 8680  21.671   0.493   0.428  0.0213  0.5591  0.0211
 6481W        W 8681  25.425   4.352   6.994 -0.1069 -0.1507 -0.2977
 6482W        W 8682   2.572   4.796   9.290  0.1639  0.2724 -0.1814
 6483W        W 8683  15.771   5.484  31.722  0.2351 -0.0932  0.0557
 6484W        W 8684  25.977   2.300  22.811 -0.1074  0.0323 -0.0319
 6485W        W 8685   2.062   1.302  24.387  0.2164  0.3863 -0.0246
 6486W        W 8686  18.583   3.718  27.825  0.0692  0.2371  0.3089
 6487W        W 8687  23.486   1.304   0.659 -0.0922 -0.0823 -0.0802
 6488W        W 8688  11.413   2.918  13.392 -0.2855  0.0492  0.1818
 6489W        W 8689  22.726   4.548   2.235 -0.2259 -0.3606  0.1231
 6490W        W 8690  10.813   5.245  11.925  0.0311  0.0743  0.2482
 6491W        W 8691   8.789   3.805  27.757 -0.0160 -0.0036  0.1458
 6492W        W 8692  25.648   2.221  20.391  0.1433  0.3931  0.1579
 6493W        W 8693   7.295   5.799   4.421  0.1118  0.1913 -0.0868
 6494W        W 8694  24.390   0.254   9.209  0.4201 -0.1009 -0.1184
 6495W        W 8695   8.941   2.021   6.823 -0.1179 -0.0192  0.0856
 6496W        W 8696  12.007   1.387  10.007 -0.1265  0.0002 -0.0367
 6497W        W 8697  13.587   0.079   7.531 -0.0612 -0.0365 -0.2968
 6498W        W 8698   0.565   2.732  30.680  0.0079  0.0015  0.0326
 6499W        W 8699   8.114   0.017  35.017  0.0228 -0.2739 -0.2710
 6500W        W 8700  22.344   1.500   1.477 -0.0570  0.0423 -0.0421
 6501W        W 8701   9.314   0.018  12.759  0.1200  0.0060 -0.1255
 6502W        W 8702  11.447   5.852  31.269  0.3435  0.0180  0.1105
 6503W        W 8703  21.651   4.981  14.504 -0.0411 -0.0945 -0.2539
 6504W        W 8704   0.428   2.445   5.770  0.2671 -0.3062  0.1353
 6505W        W 8705  11.787   4.710  30.307 -0.0317  0.1480  0.1110
 6506W        W 8706  21.013   5.258   7.679  0.0319 -0.1883  0.1120
 6507W        W 8707  22.214   0.472  33.602 -0.1817  0.0312 -0.0565
 6508W        W 8708  23.671   2.502  31.074  0.3996 -0.0579 -0.2791
 6509W        W 8709   5.371   0.447   5.529  0.0045 -0.0210 -0.2049
 6510W        W 8710  22.631   0.888  26.652  0.0285  0.0629 -0.1695
 6511W        W 8711   0.327   1.418  35.790 -0.0823 -0.0721  0.3604
 6512W        W 8712   3.558   4.217  30.941  0.2832  0.0201  0.0500
 6513W        W 8713   0.869   2.933   6.175  0.1795  0.1933 -0.0536
 6514W        W 8714  21.430   1.413   6.988  0.1422  0.1691  0.0524
 6515W        W 8715   0.783   3.007  34.917  0.2750  0.0153  0.1282
 6516W        W 8716  21.708   5.647  22.721 -0.0393  0.2671 -0.3056
 6517W        W 8717  21.736   1.301  11.748  0.0260 -0.0048  0.1841
 6518W        W 8718  20.683   0.603   5.047  0.0261  0.2250 -0.0539
 6519W        W 8719  22.874   6.538   9.973  0.0138 -0.0244  0.1053
 6520W        W 8720  11.118   5.104  27.682  0.1141  0.2200  0.0724
 6521W        W 8721  25.307   1.144  23.702 -0.1732  0.1965 -0.1838
 6522W        W 8722  20.641   5.990   5.123  0.2008  0.3202  0.0749
 6523W        W 8723  14.105   4.176  29.683  0.0155  0.0176  0.1909
 6524W        W 8724  14.910   1.067   4.164 -0.0415  0.1107 -0.0415
 6525W        W 8725  12.598   0.827  29.591  0.0336 -0.0150 -0.1218
 6526W        W 8726   6.896   1.390  13.870 -0.0772  0.1870 -0.3508
 6527W        W 8727  24.878   3.456  25.993  0.0522 -0.0057 -0.0045
 6528W        W 8728  21.850   1.988  35.271  0.1210  0.1256  0.0058
 6529W        W 8729  26.222   2.127  11.892  0.0705 -0.2929  0.0132
 6530W        W 8730  11.734   0.785  35.754 -0.0713  0.1554  0.1471
 6531W        W 8731  24.776   2.948   7.859 -0.1404 -0.0821  0.1032
 6532W        W 8732  26.177   3.524  12.735 -0.1139  0.2376  0.0606
 6533W        W 8733   4.815   1.420   8.676  0.0854 -0.0280  0.1080
 6534W        W 8734   9.488   4.086   9.251  0.1221 -0.0088  0.3059
 6535W        W 8735  19.848   3.506  31.081 -0.0328 -0.1192  0.1463
 6536W        W 8736  10.777   5.375  21.714 -0.0381 -0.0935  0.2962
 6537W        W 8737   7.066   4.322   6.265  0.0189 -0.0761 -0.2978
 6538W        W 8738  13.020   0.775  21.779 -0.0106  0.0233  0.0539
 6539W        W 8739  26.027   1.691  32.453 -0.1660 -0.0311  0.0933
 6540W        W 8740  15.356   1.991  32.387 -0.2939 -0.0950 -0.1839
 6541W        W 8741  24.493   0.647  14.318 -0.1853  0.1376 -0.0616
 6542W        W 8742  12.274   0.560  25.042 -0.1354 -0.2558 -0.2433
 6543W        W 8743  18.574   0.704  32.059  0.0203  0.0153 -0.1603
 6544W        W 8744   9.331   3.761  31.092  0.1243 -0.2067  0.0326
 6545W        W 8745  15.989   5.089   9.978  0.3415  0.3025  0.2120
 6546W        W 8746   6.616   4.465   7.175 -0.1003  0.2504 -0.0942
 6547W        W 8747  18.149   1.005  34.473  0.0094  0.0794 -0.0609
 6548W        W 8748  11.382   3.551   0.535  0.0347  0.3612  0.1521
 6549W        W 8749  14.848   2.101   6.829 -0.0051  0.0393 -0.0084
 6550W        W 8750   7.180   4.127   4.575 -0.3796 -0.1581 -0.0798
 6551W        W 8751  15.224   6.194  20.707  0.2246 -0.1689  0.1359
 6552W        W 8752  19.931   4.471  32.244 -0.4331 -0.2084 -0.3382
 6553W        W 8753  17.693   3.431  28.862 -0.0292 -0.1827  0.0308
 6554W        W 8754   8.204   5.021  35.166  0.0982 -0.0330 -0.0845
 6555W        W 8755   6.307   3.487  28.098  0.2743 -0.0340 -0.0058
 6556W        W 8756  16.440   0.594   1.321  0.2906  0.0038 -0.2424
 6557W        W 8757  20.370   2.124  31.444  0.1686  0.1073 -0.0153
 6558W        W 8758  24.466   1.298  28.417  0.3229 -0.0085 -0.2129
 6559W        W 8759  20.139   0.630  33.485 -0.3003 -0.1298 -0.0151
 6560W        W 8760  18.812   0.890  20.682  0.1224 -0.1770 -0.1389
 6561W        W 8761   3.546   4.147  14.034  0.0304  0.0631 -0.0605
 6562W        W 8762  21.497   5.129  13.102  0.0799  0.0076 -0.0585
 6563W        W 8763  17.595   4.619  35.471 -0.0668  0.0385  0.2419
 6564W        W 8764  13.648   4.617   7.422 -0.0809  0.2395  0.2063
 6565W        W 8765   8.791   4.017  12.932 -0.1327  0.0675 -0.0794
 6566W        W 8766  20.144   2.830  35.301 -0.2399 -0.1454 -0.1756
 6567W        W 8767  24.169   4.477  28.361  0.3121 -0.1274 -0.1296
 6568W        W 8768   3.372   5.942   9.793  0.0480 -0.0982  0.1828
 6569W        W 8769   8.676   3.378  22.077 -0.0435  0.5147 -0.1809
 6570W        W 8770   8.559   0.724   7.549 -0.0472  0.1085 -0.1724
 6571W        W 8771   6.634   5.014   3.461 -0.0630 -0.2154  0.1307
 6572W        W 8772  20.546   1.416  30.166  0.2005  0.1720  0.1270
 6573W        W 8773   8.983   1.520   8.614  0.2146  0.2063 -0.0358
 6574W        W 8774   9.373   4.679  32.138 -0.0791  0.2825 -0.2079
 6575W        W 8775   4.498   4.640  12.814 -0.0121 -0.1707 -0.1978
 6576W        W 8776  18.686   3.518  22.286  0.1611  0.0300  0.1778
 6577W        W 8777  11.730   2.613  11.244  0.1429  0.0547 -0.0627
 6578W        W 8778  17.532   5.685  25.121 -0.3012  0.1029  0.2696
 6579W        W 8779  12.830   5.419   1.722  0.0933 -0.1635 -0.1690
 6580W        W 8780   9.587   5.376  15.107 -0.1120  0.2102  0.0950
 6581W        W 8781  17.287   1.623  14.770  0.0075 -0.0224  0.1489
 6582W        W 8782   5.009   1.330  35.951 -0.1366  0.3218  0.1857
 6583W        W 8783  24.554   3.120  31.829  0.1991  0.1276 -0.1840
 6584W        W 8784  20.749   5.333   2.964 -0.0129  0.2676  0.0269
 6585W        W 8785   1.421   4.750  10.680  0.2138  0.1270 -0.2970
 6586W        W 8786   2.756   2.670   1.624  0.4293  0.0628  0.0343
 6587W        W 8787  23.693   3.890   1.711  0.1065 -0.0591 -0.1518
 6588W        W 8788  23.953   3.189   0.213  0.1451 -0.0884  0.2427
 6589W        W 8789   0.619   3.080  12.166  0.1051  0.1593  0.1314
 6590W        W 8790   0.998   0.039  34.726 -0.0781 -0.0897 -0.0447
 6591W        W 8791   5.120   3.220   9.944  0.2809 -0.0128 -0.1137
 6592W        W 8792  19.927   6.598   0.708 -0.1455  0.0546 -0.3768
 6593W        W 8793  16.627   0.087   2.632 -0.0600 -0.1956  0.0803
 6594W        W 8794  25.146   1.120  31.995 -0.1321 -0.0191  0.1674
 6595W        W 8795  13.002   1.099  27.704 -0.1980 -0.0307 -0.3632
 6596W        W 8796  17.814   3.323  13.244  0.3931 -0.0660  0.0127
 6597W        W 8797  17.866   3.113  27.058  0.0811  0.2281 -0.0091
 6598W        W 8798  11.817   3.346   8.740 -0.1327 -0.3616  0.0140
 6599W        W 8799  19.333   0.713  30.595  0.2840 -0.1674 -0.0510
 6600W        W 8800   6.361   4.038  26.853  0.2808  0.0837  0.2390
 6601W        W 8801  10.339   2.816  28.849 -0.1598 -0.0356  0.0585
 6602W        W 8802  25.951   4.099  30.400  0.0764 -0.2010  0.0781
 6603W        W 8803   0.632   2.849   1.574  0.1608  0.0759 -0.2976
 6604W        W 8804   2.984   1.348   1.756 -0.1543 -0.0698  0.0068
 6605W        W 8805   2.013   1.523  32.426 -0.2539  0.1042 -0.2833
 6606W        W 8806  14.730   6.067   7.811  0.3051 -0.0277 -0.2561
 6607W        W 8807  24.380   4.884  35.538  0.1359  0.0674 -0.3246
 6608W        W 8808  21.411   6.210   7.364  0.4543 -0.1188  0.1868
 6609W        W 8809  22.793   6.257   9.122 -0.0109  0.0669 -0.0399
 6610W        W 8810  10.122   0.457  25.597  0.0145 -0.0722 -0.1972
 6611W        W 8811   7.566   4.252  20.896 -0.3464  0.1401  0.3639
 6612W        W 8812   7.295   6.473  27.994 -0.0090 -0.2319 -0.1422
 6613W        W 8813   4.154   3.254  32.921  0.3771 -0.0680 -0.1960
 6614W        W 8814  16.174   0.898  11.309  0.0003 -0.0930  0.1360
 6615W        W 8815  20.041   0.669  34.194  0.0365  0.3326 -0.3218
 6616W        W 8816  20.413   3.804   0.782 -0.0844  0.1442 -0.1277
 6617W        W 8817  17.950   3.194   5.322 -0.4439  0.0241 -0.2227
 6618W        W 8818  10.964   1.157  31.001 -0.4903  0.0103  0.1885
 6619W        W 8819  13.378   0.562   8.183  0.3331 -0.2574  0.1792
 6620W        W 8820  11.778   2.261   4.017  0.0662 -0.1057 -0.1047
 6621W        W 8821   8.143   1.946  10.822  0.3091 -0.0718  0.2685
 6622W        W 8822  14.429   3.273  29.493 -0.2434  0.0165  0.0564
 6623W        W 8823  11.932   0.498   5.175  0.0640  0.1137 -0.1007
 6624W        W 8824  20.218   0.069  35.519 -0.4721 -0.1179 -0.3908
 6625W        W 8825   6.372   4.506  22.970 -0.1585  0.2714  0.0699
 6626W        W 8826  23.203   5.264  26.252 -0.0135  0.2041 -0.0890
 6627W        W 8827  13.430   4.295  12.608  0.2887  0.0018 -0.1369
 6628W        W 8828  17.764   3.349  27.476 -0.0388  0.1016 -0.0098
 6629W        W 8829  12.112   5.603   2.922 -0.1096  0.2509 -0.3315
 6630W        W 8830   8.818   4.592  27.061  0.0708  0.2832  0.1058
 6631W        W 8831  14.098   0.700  10.967 -0.0224  0.0299  0.0392
 6632W        W 8832  24.864   4.650  23.185 -0.1050  0.2736  0.0546
 6633W        W 8833  10.977   0.660  22.618 -0.0275  0.2495 -0.0229
 6634W        W 8834  10.479   5.552   1.454  0.1256 -0.0250  0.0530
 6635W        W 8835   3.780   6.489   1.049  0.2045 -0.1074  0.0616
 6636W        W 8836  22.745   2.055  12.794 -0.3190 -0.0031 -0.0449
 6637W        W 8837  13.070   2.139  22.577  0.2344  0.0580  0.0189
 6638W        W 8838  20.437   4.259  32.324  0.1160  0.0437 -0.1020
 6639W        W 8839  18.123   2.249   6.519  0.2885  0.0114 -0.1650
 6640W        W 8840  16.177   4.134  35.344 -0.2150 -0.0360  0.2551
 6641W        W 8841  25.946   3.165  32.091  0.2164  0.2136 -0.2031
 6642W        W 8842   7.904   1.101  12.489  0.1695 -0.5954 -0.0614
 6643W        W 8843  15.718   5.856  30.063 -0.0041 -0.0199  0.0987
 6644W        W 8844  13.468   5.115  10.680 -0.1798  0.1761 -0.0702
 6645W        W 8845  11.961   2.171   2.297 -0.0860  0.0466  0.4529
 6646W        W 8846   7.885   6.064  27.767 -0.0010 -0.0804 -0.2493
 6647W        W 8847  16.305   6.209   7.221  0.1265  0.0836 -0.3684
 6648W        W 8848  17.470   1.179  21.812  0.2433 -0.0193  0.1618
 6649W        W 8849  14.787   4.550   7.619 -0.2280 -0.2122 -0.0192
 6650W        W 8850   5.673   4.508  14.128 -0.5494  0.0503 -0.2410
 6651W        W 8851  12.086   5.155  26.504 -0.0261 -0.1944 -0.0397
 6652W        W 8852   7.357   2.002  25.986  0.2178 -0.0225 -0.1128
 6653W        W 8853  18.827   1.701  29.995 -0.0545 -0.0555  0.0072
 6654W        W 8854  23.570   4.680  35.517  0.0801 -0.1101 -0.2301
 6655W        W 8855  25.107   3.166   4.113  0.1365 -0.0764  0.0440
 6656W        W 8856   4.879   0.026  12.606  0.3573  0.0648  0.4291
 6657W        W 8857   4.261   2.809   3.658  0.0332  0.2545  0.1617
 6658W        W 8858  13.011   3.876   4.815  0.0066  0.2699 -0.1135
 6659W        W 8859   1.437   3.738  25.607 -0.0180  0.4708 -0.0304
 6660W        W 8860   8.269   4.258   8.932  0.0215  0.0307 -0.1016
 6661W        W 8861  23.168   3.354  22.204  0.0988 -0.0036  0.3766
 6662W        W 8862  25.386   5.373   5.990 -0.2018 -0.0906  0.0133
 6663W        W 8863   2.420   3.019   1.787 -0.1903 -0.3165 -0.1863
 6664W        W 8864   0.871   6.327  34.382  0.2182 -0.2675 -0.4536
 6665W        W 8865   6.448   4.981  26.634  0.1822  0.1571 -0.1182
 6666W        W 8866  13.442   2.554  22.582 -0.2993 -0.0647  0.3229
 6667W        W 8867  23.551   2.712  26.367  0.1884  0.1790 -0.2153
 6668W        W 8868  11.843   2.123   5.107 -0.0999 -0.4276  0.1602
 6669W        W 8869  20.320   6.530  35.962  0.1028 -0.0002 -0.0473
 6670W        W 8870   8.532   2.941  10.770 -0.2604 -0.1307 -0.0611
 6671W        W 8871  11.586   5.127   6.760 -0.1381 -0.0684 -0.2421
 6672W        W 8872  17.454   3.258   5.274 -0.0568 -0.3017  0.2596
 6673W        W 8873  17.532   4.604  32.035  0.2197 -0.0158 -0.1247
 6674W        W 8874   2.091   5.782   8.999 -0.0718  0.1154 -0.2250
 6675W        W 8875  21.495   0.561   4.377  0.1018 -0.0440  0.0009
 6676W        W 8876   7.903   5.911  30.583 -0.3299 -0.0335 -0.3265
 6677W        W 8877  12.773   6.055  14.180  0.4331 -0.3246  0.2935
 6678W        W 8878  15.135   6.199   6.730 -0.2228 -0.0532  0.2309
 6679W        W 8879  16.790   0.159  20.415  0.0222 -0.1867 -0.1100
 6680W        W 8880  23.170   5.852  27.007 -0.2219 -0.1443  0.1415
 6681W        W 8881   3.060   0.866   1.051 -0.1175 -0.2121 -0.0247
 6682W        W 8882   0.731   5.197  29.700  0.0094  0.0122 -0.1133
 6683W        W 8883  16.878   3.883  11.084  0.0951 -0.0368 -0.0976
 6684W        W 8884   0.283   3.703  14.745 -0.0245 -0.2264 -0.1157
 6685W        W 8885  12.574   4.675  35.784 -0.0121  0.1988  0.0306
 6686W        W 8886   3.329   3.882   3.976  0.1833  0.0853  0.0882
 6687W        W 8887  19.248   6.527  26.975  0.1218 -0.2072 -0.1643
 6688W        W 8888   4.200   6.520  24.868 -0.1174  0.4416 -0.1331
 6689W        W 8889   2.990   4.346  22.551 -0.2580  0.0000 -0.1002
 6690W        W 8890  22.846   0.138   3.071 -0.0672  0.1009  0.1812
 6691W        W 8891  21.077   4.599  24.868 -0.1196 -0.0080  0.1713
 6692W        W 8892   7.223   2.051  28.104 -0.0674 -0.2861 -0.2122
 6693W        W 8893  22.348   5.107  11.385  0.1512  0.1110  0.0517
 6694W        W 8894  13.865   3.784   7.846  0.1146 -0.0926  0.4397
 6695W        W 8895  20.490   6.367  35.231 -0.0968 -0.0262  0.1913
 6696W        W 8896   4.860   3.553  10.300 -0.0317  0.0112  0.1022
 6697W        W 8897   8.681   0.236  10.029 -0.0249  0.0262 -0.1914
 6698W        W 8898  18.982   6.028  23.550 -0.0304  0.1600  0.1466
 6699W        W 8899  25.469   5.746   2.151 -0.1064  0.3209  0.0788
 6700W        W 8900  11.822   5.248  10.906 -0.6247 -0.1224 -0.1569
 6701W        W 8901  21.576   4.286   9.154 -0.1730 -0.3241  0.1735
 6702W        W 8902  25.539   3.311   6.420  0.0336  0.0951  0.2679
 6703W        W 8903   4.620   0.940  33.051 -0.0037 -0.3337  0.0443
 6704W        W 8904  10.999   4.962  24.909  0.1476  0.0960  0.0073
 6705W        W 8905   0.509   5.859  32.048  0.0634  0.1109  0.0350
 6706W        W 8906  12.986   4.671  14.224  0.1451 -0.1511  0.0869
 6707W        W 8907  24.587   2.842  27.273 -0.2981  0.1568 -0.2054
 6708W        W 8908  10.397   1.244  21.238 -0.0413 -0.1860 -0.0079
 6709W        W 8909   1.370   0.561  24.960  0.0083  0.0993  0.2264
 6710W        W 8910  23.525   5.398  10.805 -0.0762  0.0146 -0.2346
 6711W        W 8911  10.801   5.402  14.272 -0.0637 -0.2450 -0.0967
 6712W        W 8912   2.835   5.533   5.244  0.1737 -0.1641  0.1329
 6713W        W 8913  24.976   5.166  26.636 -0.0474 -0.0172  0.2130
 6714W        W 8914   8.312   1.194  24.146 -0.2370 -0.0106  0.1510
 6715W        W 8915   6.756   3.162  27.271 -0.0508 -0.0640 -0.2197
 6716W        W 8916   6.339   3.959  30.436  0.1457  0.0220 -0.3868
 6717W        W 8917  10.149   5.149  34.098 -0.2362  0.0820  0.1632
 6718W        W 8918  20.089   2.730  29.225 -0.1023  0.1531  0.1870
 6719W        W 8919   4.792   2.737   1.020 -0.0171  0.0928  0.2111
 6720W        W 8920  15.801   3.913  12.565  0.0550  0.2755 -0.3059
 6721W        W 8921   0.391   5.748   5.351 -0.2903 -0.1275  0.1544
 6722W        W 8922   2.258   4.282  21.502  0.2068 -0.3633  0.0005
 6723W        W 8923  18.460   2.884   2.875  0.0334  0.0429  0.1624
 6724W        W 8924   1.450   3.269   3.927 -0.1329 -0.2177 -0.1826
 6725W        W 8925   7.491   5.077   8.272  0.0204  0.1907  0.2188
 6726W        W 8926  10.220   1.496  14.419 -0.2706  0.0100  0.0588
 6727W        W 8927  12.622   4.155  35.883 -0.2190  0.0111 -0.0339
 6728W        W 8928  19.242   5.205  11.293 -0.1573  0.0542  0.1522
 6729W        W 8929  10.228   1.492  10.861 -0.1510  0.0439 -0.1122
 6730W        W 8930  19.862   0.911  32.766  0.2402  0.1107 -0.1742
 6731W        W 8931   4.006   1.021   2.384 -0.2425  0.3378  0.2628
 6732W        W 8932   5.400   0.032   0.984 -0.0217 -0.2451  0.1203
 6733W        W 8933  10.717   1.297  10.739  0.1300 -0.0060 -0.0010
 6734W        W 8934   2.562   1.857   3.203  0.0585  0.0984  0.1176
 6735W        W 8935   6.702   0.914  32.697 -0.3306 -0.2415  0.1385
 6736W        W 8936  21.406   0.023  11.702 -0.1972 -0.1767  0.2018
 6737W        W 8937   0.426   0.295  12.716 -0.0129  0.0498  0.1433
 6738W        W 8938  14.926   0.371  31.632 -0.2572  0.0306 -0.1107
 6739W        W 8939   6.899   2.799   8.509  0.1231  0.0415  0.2349
 6740W        W 8940  25.135   4.471  35.111 -0.0129  0.3296 -0.0259
 6741W        W 8941   8.908   5.255  32.681 -0.0379  0.4947 -0.1078
 6742W        W 8942  26.118   1.802   9.399 -0.1891  0.1336 -0.2483
 6743W        W 8943   9.680   2.936  27.608 -0.0183 -0.2376  0.0859
 6744W        W 8944  11.193   2.181  32.056 -0.2661  0.0209  0.1283
 6745W        W 8945  14.142   2.128  33.532 -0.0654  0.1568  0.1022
 6746W        W 8946   5.727   4.290  21.673 -0.1680 -0.0410 -0.2771
 6747W        W 8947  25.847   6.269  29.201 -0.1906 -0.3147 -0.0316
 6748W        W 8948  18.791   6.124  28.000 -0.2851  0.0663  0.0267
 6749W        W 8949  11.727   1.492   7.740  0.1556 -0.1700  0.0870
 6750W        W 8950   5.706   3.594  27.296  0.1679  0.0079  0.0767
 6751W        W 8951   2.101   6.413  12.976  0.0342 -0.1164 -0.3963
 6752W        W 8952   9.778   5.752   0.720  0.1028  0.0242  0.0129
 6753W        W 8953  15.933   0.229  22.982  0.1368  0.1033 -0.1528
 6754W        W 8954  24.531   3.505   8.989  0.2470 -0.0392 -0.1416
 6755W        W 8955  13.547   1.183  12.006 -0.2436  0.0813  0.3296
 6756W        W 8956   1.850   3.349  35.981 -0.2994  0.0958  0.0932
 6757W        W 8957   8.588   0.155  20.603  0.0950  0.0889 -0.0788
 6758W        W 8958  25.207   6.078   2.922 -0.1188  0.1167  0.2694
 6759W        W 8959  17.546   2.324  28.959 -0.0042  0.1312 -0.1584
 6760W        W 8960   6.013   2.617  21.313 -0.2093  0.2188 -0.1448
 6761W        W 8961  11.244   0.013   2.312 -0.0666  0.2501 -0.0592
 6762W        W 8962  24.515   3.976  10.125  0.3455 -0.0644 -0.2085
 6763W        W 8963   5.190   3.663   7.485  0.1988 -0.2326 -0.0711
 6764W        W 8964   2.230   6.127  29.551 -0.0622 -0.0785  0.0048
 6765W        W 8965   4.895   5.602  12.674  0.0995  0.1975 -0.4120
 6766W        W 8966   8.437   5.289  34.774  0.0599 -0.2311  0.3876
 6767W        W 8967   1.391   0.439   3.924  0.1622 -0.3094 -0.2790
 6768W        W 8968  21.407   1.069  22.984 -0.2091 -0.2653 -0.0371
 6769W        W 8969  23.966   4.962   7.916  0.0053 -0.0875 -0.1215
 6770W        W 8970  12.685   2.495  10.107  0.0634 -0.1204 -0.0059
 6771W        W 8971  21.474   3.825  36.004 -0.1095  0.0987 -0.0866
 6772W        W 8972   4.734   3.551  31.657  0.0508  0.1512  0.0508
 6773W        W 8973  18.809   6.559  33.298 -0.0608  0.0678 -0.0636
 6774W        W 8974   1.234   0.817  12.390  0.2119 -0.1877 -0.1459
 6775W        W 8975   5.325   1.166  23.883 -0.5628  0.1188  0.0227
 6776W        W 8976  23.533   3.289  12.287 -0.0608  0.0703  0.1599
 6777W        W 8977  15.611   5.849   2.131  0.0081 -0.1301  0.4073
 6778W        W 8978   8.134   1.044  33.670  0.1591 -0.3175 -0.1840
 6779W        W 8979  16.053   0.418  11.172 -0.0429  0.0770  0.3794
 6780W        W 8980   3.541   3.977  26.386 -0.0345  0.0221 -0.1772
 6781W        W 8981  15.340   0.581   0.308  0.1248 -0.1312 -0.0125
 6782W        W 8982   8.371   5.932   5.423 -0.4128  0.0107 -0.1925
 6783W        W 8983  19.502   5.567   0.411  0.2458  0.0254  0.1965
 6784W        W 8984   8.390   6.246  27.402 -0.0310 -0.1469 -0.0494
 6785W        W 8985   9.835   5.860  12.232  0.1361  0.0655 -0.1021
 6786W        W 8986  13.678   3.405  26.481 -0.2674 -0.1051  0.0768
 6787W        W 8987   5.911   2.687  28.030  0.2351  0.0238  0.0362
 6788W        W 8988  22.613   6.500   5.392 -0.0168  0.3486  0.1512
 6789W        W 8989   8.325   2.848  25.805 -0.1053  0.0818 -0.0627
 6790W        W 8990  16.388   3.300   4.529  0.0231 -0.1042 -0.1536
 6791W        W 8991   0.948   0.563  31.635  0.3895 -0.1150 -0.0721
 6792W        W 8992   9.272   1.363  29.052 -0.0770  0.0222  0.2624
 6793W        W 8993  21.533   2.178   7.963  0.1508  0.1712 -0.0036
 6794W        W 8994   4.811   5.892  14.182  0.0462  0.2345 -0.2824
 6795W        W 8995  18.674   4.765  21.362 -0.3214 -0.3054 -0.2322
 6796W        W 8996  24.523   4.091   7.170 -0.0352 -0.2292  0.3074
 6797W        W 8997  25.064   3.321   8.862 -0.1786 -0.2031 -0.0781
 6798W        W 8998  11.410   0.184  14.525  0.3659 -0.0189  0.1558
 6799W        W 8999   5.950   0.408  22.207  0.2170  0.3632 -0.1747
 6800W        W 9000  20.882   1.574  30.599  0.0577 -0.3180 -0.3338
 6801W        W 9001  14.402   6.213  27.153 -0.1328  0.1431 -0.0368
 6802W        W 9002  11.594   6.592  25.497 -0.0192  0.0814 -0.0729
 6803W        W 9003   1.395   1.121  33.719 -0.2041 -0.2415 -0.0445
 6804W        W 9004  14.881   0.097   5.131  0.0282  0.1529  0.0852
 6805W        W 9005   7.793   3.419  34.493 -0.0893  0.0210 -0.0707
 6806W        W 9006  18.293   5.442   8.723  0.0763  0.2392 -0.2846
 6807W        W 9007  10.946   2.560  26.710 -0.0871 -0.1901  0.0416
 6808W        W 9008  10.360   1.712  23.430 -0.1058  0.0018 -0.2488
 6809W        W 9009   4.945   4.954  14.741 -0.0309  0.1615 -0.0498
 6810W        W 9010   2.900   1.224  35.925  0.0337  0.1213 -0.3358
 6811W        W 9011   4.868   1.966  21.052  0.0787  0.3443 -0.2847
 6812W        W 9012  18.337   3.198  13.049 -0.2194 -0.0591 -0.3469
 6813W        W 9013  26.292   6.340   6.128  0.1145 -0.0896 -0.2489
 6814W        W 9014  21.757   6.427   8.848  0.4654  0.0163 -0.0837
 6815W        W 9015   5.526   5.610  28.619  0.2844  0.1126 -0.0741
 6816W        W 9016  22.926   3.662  25.252 -0.3677  0.1458  0.0423
 6817W        W 9017  20.070   2.825  22.753 -0.0289  0.0711  0.2713
 6818W        W 9018  22.246   3.880  35.349 -0.2717  0.1357 -0.4007
 6819W        W 9019  16.688   3.066   5.875 -0.2308 -0.0093 -0.1356
 6820W        W 9020  14.041   4.128  15.216 -0.1519 -0.1395 -0.1548
 6821W        W 9021  16.713   3.622  32.142  0.0939  0.1246  0.1606
 6822W        W 9022  12.821   5.335   3.714 -0.1608  0.1765 -0.3434
 6823W        W 9023   0.895   4.796  26.231 -0.3315 -0.0582 -0.0293
 6824W        W 9024   2.382   3.868   2.587 -0.1206  0.1954 -0.1226
 6825W        W 9025   1.677   1.662   8.768 -0.0527  0.0503 -0.0808
 6826W        W 9026   9.769   0.930  34.873  0.1847  0.0934  0.1828
 6827W        W 9027   3.999   1.255  33.620 -0.0814 -0.1142 -0.1798
 6828W        W 9028  20.630   2.410   8.069  0.0349 -0.0373 -0.2767
 6829W        W 9029   1.310   2.896   8.455  0.0895  0.2154  0.2172
 6830W        W 9030  22.640   4.609  10.091  0.0398 -0.0142  0.1256
 6831W        W 9031  22.795   3.261   9.899 -0.2162  0.0658  0.0764
 6832W        W 9032  23.474   2.837  21.433 -0.1748 -0.2829 -0.0594
 6833W        W 9033  16.582   3.594   6.681 -0.0147 -0.0464  0.2166
 6834W        W 9034  23.351   6.012   6.289 -0.0171 -0.0626  0.2060
 6835W        W 9035  21.368   3.473  27.175  0.1381  0.2725  0.3143
 6836W        W 9036   5.517   2.432  22.261 -0.1794 -0.4194 -0.2002
 6837W        W 9037  16.509   3.221   7.233 -0.0912 -0.1718 -0.2490
 6838W        W 9038  14.310   1.324  13.273 -0.2166  0.3534 -0.0834
 6839W        W 9039   6.727   3.173  28.091  0.1607 -0.2700 -0.0503
 6840W        W 9040  19.452   1.912  34.295 -0.1261 -0.4432  0.0308
 6841W        W 9041  23.978   5.969   7.456  0.4291  0.1204  0.2630
 6842W        W 9042   9.935   4.833  26.846  0.1075  0.2991  0.1168
 6843W        W 9043   8.618   0.501  33.943 -0.2323 -0.2627 -0.2177
 6844W        W 9044   6.073   3.691   1.402  0.0185 -0.1510 -0.0242
 6845W        W 9045  22.102   0.119  14.828  0.1773  0.1776  0.2864
 6846W        W 9046  17.376   6.493  10.345  0.1256  0.2947  0.1927
 6847W        W 9047  13.040   0.097  32.413 -0.0954  0.1717  0.1290
 6848W        W 9048  15.241   5.275  15.206 -0.0699 -0.0610 -0.3349
 6849W        W 9049   7.849   4.422  32.139 -0.0246 -0.3547 -0.0400
 6850W        W 9050  21.895   5.373  27.064 -0.1035  0.4355 -0.0220
 6851W        W 9051  26.207   2.546  33.511  0.0825  0.1574 -0.4042
 6852W        W 9052   8.159   1.403  25.744  0.1010 -0.1008 -0.0182
 6853W        W 9053  21.634   0.557  30.452 -0.2404  0.0237 -0.3639
 6854W        W 9054  25.086   2.138   6.440  0.0494 -0.2560  0.2659
 6855W        W 9055  22.957   1.888  30.759 -0.1015  0.0150  0.0768
 6856W        W 9056   4.279   2.451   3.204 -0.0467 -0.0313 -0.0726
 6857W        W 9057   8.112   3.057  28.903 -0.0386  0.0086  0.1893
 6858W        W 9058   0.600   2.340  24.508  0.2326 -0.3807 -0.2362
 6859W        W 9059   4.225   5.796  23.205 -0.0743  0.1724 -0.2911
 6860W        W 9060   8.274   5.307  29.462 -0.0935 -0.1026  0.0718
 6861W        W 9061   5.684   1.105   1.697 -0.1341  0.0594 -0.0802
 6862W        W 9062   1.100   3.065   3.512  0.0946 -0.2167 -0.1933
 6863W        W 9063  22.710   3.534  34.564 -0.1761 -0.2305  0.1064
 6864W        W 9064  20.311   2.209   0.074 -0.1307  0.0633 -0.0408
 6865W        W 9065  26.284   3.727  26.938  0.0115 -0.1181 -0.0510
 6866W        W 9066  24.829   4.255   2.908  0.1056 -0.1615 -0.1294
 6867W        W 9067  19.200   5.441  30.098  0.2050 -0.4774 -0.3083
 6868W        W 9068  13.154   2.093   6.838  0.2163 -0.2038  0.2504
 6869W        W 9069  10.049   1.893   3.848 -0.1805 -0.1386 -0.2181
 6870W        W 9070  20.203   2.388   9.901 -0.0742 -0.1092 -0.0317
 6871W        W 9071   4.577   5.483  10.923 -0.0944 -0.0600 -0.0281
 6872W        W 9072   7.956   5.257   2.998 -0.1155  0.1547  0.3695
 6873W        W 9073  13.714   0.714  31.019  0.0233 -0.2057 -0.0482
 6874W        W 9074   4.700   5.670  21.457 -0.1358 -0.1344 -0.0148
 6875W        W 9075   3.989   4.598  28.917  0.0036 -0.1940  0.2062
 6876W        W 9076   7.219   1.923  12.355  0.2881  0.0216 -0.0158
 6877W        W 9077  21.208   3.530   3.407  0.1767 -0.2724 -0.0830
 6878W        W 9078  15.156   6.088   5.764  0.1436 -0.1467  0.2189
 6879W        W 9079   6.818   2.375   6.862 -0.0954 -0.0845 -0.0244
 6880W        W 9080  10.159   6.258  30.796  0.1856 -0.1293  0.2166
 6881W        W 9081  26.219   3.310  15.825  0.0298 -0.3586  0.1641
 6882W        W 9082  15.358   2.878   4.951  0.0665  0.0383  0.2340
 6883W        W 9083  13.587   2.999   8.794  0.1710  0.0054  0.0295
 6884W        W 9084  18.755   4.981   1.383 -0.0595  0.1677 -0.3032
 6885W        W 9085  26.346   2.282  33.885 -0.0143  0.1266 -0.1974
 6886W        W 9086  11.323   0.170   7.541 -0.0821  0.1948  0.3983
 6887W        W 9087  22.195   3.770  14.111 -0.0231  0.1296 -0.1216
 6888W        W 9088   4.232   5.094  10.279  0.0258  0.1499  0.0651
 6889W        W 9089  13.189   2.209  25.058  0.1714 -0.0661 -0.0010
 6890W        W 9090  12.809   2.233   4.784 -0.0550 -0.2526 -0.0177
 6891W        W 9091  20.450   2.307  28.328  0.1498 -0.2386 -0.0712
 6892W        W 9092  20.298   5.930   2.434 -0.0982  0.4368  0.1047
 6893W        W 9093  16.248   1.478   3.881  0.0914  0.2986  0.0596
 6894W        W 9094  16.951   0.960  20.923 -0.3062 -0.2782 -0.0210
 6895W        W 9095  21.384   0.954  30.379 -0.0244  0.1160  0.5748
 6896W        W 9096  16.790   5.504  12.070  0.0241  0.5175  0.0876
 6897W        W 9097   7.450   4.065  26.959  0.0322  0.2702 -0.0688
 6898W        W 9098  18.557   1.807  11.797  0.0969  0.0373 -0.5538
 6899W        W 9099  16.349   6.230  34.179  0.2787  0.1630 -0.1269
 6900W        W 9100   8.477   4.281  31.546  0.2769  0.1076  0.2400
 6901W        W 9101   5.992   1.931   3.324  0.0018 -0.0794  0.0472
 6902W        W 9102  20.163   2.563   8.193  0.1925  0.1575  0.1527
 6903W        W 9103  13.648   5.435   9.030 -0.0820 -0.0836 -0.3337
 6904W        W 9104   1.632   1.960  36.015 -0.1199  0.1340  0.2955
 6905W        W 9105   3.811   5.685  24.491 -0.0313 -0.1332 -0.2970
 6906W        W 9106   1.569   4.841   9.326  0.0489  0.1678  0.0148
 6907W        W 9107  17.701   6.102   1.155 -0.0211 -0.1255  0.0436
 6908W        W 9108  22.517   1.745  29.005  0.0456  0.3439  0.0186
 6909W        W 9109  16.220   2.845   5.866  0.0362  0.2757 -0.2499
 6910W        W 9110   0.422   0.268  10.775  0.2323  0.2653  0.0630
 6911W        W 9111  16.390   3.532  28.304 -0.0806  0.0003 -0.0325
 6912W        W 9112   9.300   5.175   1.402 -0.0625  0.1106  0.0700
 6913W        W 9113   1.090   2.841   4.592 -0.0430  0.1193 -0.0153
 6914W        W 9114   4.610   4.904  31.415  0.0007  0.2057  0.0825
 6915W        W 9115  18.156   1.845  25.901  0.0324  0.1696  0.1846
 6916W        W 9116  16.578   2.031  26.136  0.1756 -0.1349  0.3012
 6917W        W 9117  25.182   0.535   1.277  0.0222 -0.0876 -0.3448
 6918W        W 9118  19.898   5.648   7.221 -0.1199 -0.2206  0.0543
 6919W        W 9119  10.240   0.108   0.451  0.0745  0.0091 -0.1754
 6920W        W 9120  13.971   5.308  28.811  0.0345  0.1442 -0.1259
 6921W        W 9121   6.624   6.154  30.591  0.1083 -0.3068 -0.0714
 6922W        W 9122  21.325   2.415  11.458 -0.5134  0.2566  0.1104
 6923W        W 9123  14.922   6.551   3.306  0.0173 -0.0112  0.1215
 6924W        W 9124  13.235   0.691  23.823 -0.0845 -0.1420  0.0725
 6925W        W 9125  26.200   5.733  20.133 -0.0325  0.3420 -0.1286
 6926W        W 9126  25.951   6.023  35.632  0.1885  0.0273 -0.1680
 6927W        W 9127  11.408   6.389   5.751 -0.0018  0.2404  0.2817
 6928W        W 9128   5.038   1.218  31.516  0.0311 -0.0419  0.0969
 6929W        W 9129  24.769   6.105  22.888 -0.0015  0.0465 -0.2063
 6930W        W 9130   8.716   5.477  14.849  0.0635  0.2405 -0.0330
 6931W        W 9131  19.349   3.599  31.998 -0.5791  0.1613  0.1679
 6932W        W 9132  13.277   1.406   7.043  0.2400  0.0601  0.0329
 6933W        W 9133   1.558   2.289   9.800  0.1543  0.2499 -0.1636
 6934W        W 9134   1.138   6.156  13.472 -0.1432 -0.0343  0.1450
 6935W        W 9135  13.169   1.371   6.079  0.3677  0.0800  0.0499
 6936W        W 9136  25.059   2.625  22.724  0.1556 -0.2496  0.2373
 6937W        W 9137   9.641   1.639  27.326 -0.2284 -0.0578  0.3702
 6938W        W 9138  15.930   1.585  29.906 -0.0953  0.4714 -0.3007
 6939W        W 9139  17.254   4.722   9.063 -0.4286  0.2974 -0.1201
 6940W        W 9140  14.296   6.507   6.867 -0.1306 -0.2945  0.3248
 6941W        W 9141   8.897   3.862  22.684  0.0801 -0.0599  0.3951
 6942W        W 9142  20.331   0.767  35.952 -0.2285  0.1727 -0.0056
 6943W        W 9143  23.278   0.257  22.317 -0.2387  0.1736  0.0491
 6944W        W 9144  11.556   3.938  22.332 -0.2916 -0.3003  0.0274
 6945W        W 9145  21.447   3.685  20.993 -0.1040 -0.1336  0.0525
 6946W        W 9146  22.513   4.737  23.864  0.1064 -0.0247 -0.0888
 6947W        W 9147  26.243   0.858  26.331  0.1623  0.0336 -0.0330
 6948W        W 9148   7.408   4.944  12.015  0.0612 -0.0761 -0.0355
 6949W        W 9149  22.081   4.479  24.081 -0.0639 -0.3022  0.0685
 6950W        W 9150   1.166   0.224  30.505 -0.0365  0.0041  0.0473
 6951W        W 9151   0.573   4.040  20.446 -0.2874  0.0274  0.1419
 6952W        W 9152   8.279   5.676   9.758  0.0514  0.0614 -0.0869
 6953W        W 9153   6.813   6.228  33.104  0.2090 -0.2479 -0.2100
 6954W        W 9154  14.732   1.520  25.775 -0.1005  0.0462  0.0298
 6955W        W 9155   2.182   3.795  26.247 -0.0883  0.0459 -0.1201
 6956W        W 9156  23.615   0.950   6.167 -0.1914 -0.1738  0.1249
 6957W        W 9157   4.898   5.703  21.952 -0.1674  0.0044 -0.0729
 6958W        W 9158  11.530   5.180  25.822 -0.0139  0.0334  0.1512
 6959W        W 9159   1.902   1.859  28.622 -0.0921 -0.0027 -0.1282
 6960W        W 9160  26.151   3.848  23.413  0.2628 -0.0980 -0.2169
 6961W        W 9161  14.473   3.670  27.330  0.1940 -0.0247  0.1248
 6962W        W 9162   0.438   3.118  24.458 -0.3039 -0.2560  0.3703
 6963W        W 9163   8.467   5.610  35.221  0.0754  0.0851 -0.1114
 6964W        W 9164  17.185   5.158   0.045  0.3463  0.0523  0.1056
 6965W        W 9165  10.950   2.387   5.468 -0.1966  0.0241  0.0383
 6966W        W 9166  10.379   0.876  12.214 -0.1706  0.1093 -0.1022
 6967W        W 9167   7.295   4.901  31.296 -0.0574  0.0885 -0.0214
 6968W        W 9168  18.617   5.586   3.887  0.0631  0.0949 -0.0444
 6969W        W 9169  18.696   5.073   3.784  0.3870 -0.1529 -0.2930
 6970W        W 9170  20.806   0.078  20.880  0.0173 -0.2556  0.0505
 6971W        W 9171   6.626   3.277   2.963 -0.3558 -0.2219 -0.0728
 6972W        W 9172  18.438   3.953  14.832 -0.0908  0.2685 -0.0870
 6973W        W 9173   5.757   2.962   2.253  0.2561 -0.1088  0.0662
 6974W        W 9174  25.902   6.061  34.349  0.2469  0.4249  0.0047
 6975W        W 9175  12.434   1.852  28.506 -0.2347 -0.0782  0.1247
 6976W        W 9176   0.987   0.132  25.078  0.0925  0.1116 -0.1960
 6977W        W 9177   1.028   4.610  25.801 -0.2808  0.0196 -0.0006
 6978W        W 9178  15.128   0.827  12.398 -0.0037  0.0247 -0.0896
 6979W        W 9179   5.222   4.435   6.386 -0.0599  0.1355  0.1530
 6980W        W 9180  22.778   4.480  31.425 -0.0972  0.3277 -0.1924
 6981W        W 9181  10.227   1.232   6.910 -0.2996 -0.1866  0.0000
 6982W        W 9182  19.372   2.929   3.745 -0.3353 -0.1847 -0.0306
 6983W        W 9183  10.385   4.849  30.271 -0.1124 -0.0095 -0.2178
 6984W        W 9184  12.207   3.156  15.159  0.0822  0.0798  0.2800
 6985W        W 9185  16.699   5.592  36.133 -0.2175  0.2366  0.1119
 6986W        W 9186  19.037   4.964   7.137  0.0312  0.0949  0.0392
 6987W        W 9187  10.924   5.351   7.459  0.0593  0.3425  0.5492
 6988W        W 9188   5.950   5.021  31.120 -0.4148 -0.1315 -0.3185
 6989W        W 9189  19.800   2.329   0.216  0.0308  0.1082  0.1667
 6990W        W 9190   1.451   2.297   9.293  0.0444 -0.0023 -0.0632
 6991W        W 9191   9.783   2.846   7.482  0.1842 -0.2462 -0.0300
 6992W        W 9192  11.639   3.785  30.171  0.3044  0.0434 -0.0765
 6993W        W 9193  15.506   4.964  35.456  0.2142 -0.2054 -0.0251
 6994W        W 9194  22.558   3.417  26.156  0.1487  0.1434  0.0507
 6995W        W 9195   0.359   1.789   7.165 -0.0122 -0.2638  0.0496
 6996W        W 9196  15.719   6.312  28.049  0.0853 -0.4054 -0.1121
 6997W        W 9197  21.015   5.836  28.605 -0.3722 -0.1181  0.0753
 6998W        W 9198   2.840   5.832  30.131  0.2394 -0.0456 -0.1470
 6999W        W 9199   3.094   0.468   3.489  0.0584 -0.1353 -0.1641
 7000W        W 9200  14.568   1.765  23.979 -0.4416  0.0990 -0.2585
 7001W        W 9201   5.659   6.400  28.523 -0.0067  0.1116 -0.0178
 7002W        W 9202  16.825   6.207  26.205  0.1183  0.4721 -0.3574
 7003W        W 9203  20.889   0.995  25.369 -0.3673 -0.3297 -0.0512
 7004W        W 9204  16.014   6.092  28.431 -0.1877 -0.0898  0.1538
 7005W        W 9205   0.615   4.653   8.256 -0.0379  0.0223  0.0136
 7006W        W 9206  16.395   0.064   9.157  0.3534 -0.1706 -0.0631
 7007W        W 9207  18.041   5.761   1.449 -0.0917  0.1388 -0.1236
 7008W        W 9208   1.431   4.027  10.312 -0.3991  0.0405 -0.0827
 7009W        W 9209   8.828   0.237  32.400  0.1801 -0.1896 -0.2281
 7010W        W 9210   9.166   5.352   3.537 -0.0086  0.0689  0.0373
 7011W        W 9211  21.586   3.246   7.206 -0.1101  0.1474 -0.0728
 7012W        W 9212  20.973   5.340  33.018  0.2428 -0.0193 -0.2229
 7013W        W 9213   4.549   6.478  34.775  0.1760 -0.2269 -0.0580
 7014W        W 9214  21.526   0.603  35.448  0.0744 -0.0801  0.2818
 7015W        W 9215   0.282   3.674  30.884 -0.2840 -0.1153  0.1254
 7016W        W 9216  14.738   6.450  29.957  0.0656  0.0162  0.0391
 7017W        W 9217   0.366   4.903  36.059  0.2432  0.1439  0.2831
 7018W        W 9218   6.227   2.602   3.940 -0.1618  0.0543 -0.2245
 7019W        W 9219   3.436   4.552  24.415  0.3615  0.2983  0.0298
 7020W        W 9220  20.039   4.701  24.276 -0.0100 -0.0681  0.0452
 7021W        W 9221  12.683   4.486  10.682 -0.1482  0.0980  0.1506
 7022W        W 9222  21.576   6.369  27.588  0.0281  0.0008 -0.0050
 7023W        W 9223  22.151   5.439  22.521  0.2614 -0.2013 -0.1025
 7024W        W 9224  16.095   0.986  34.045 -0.0302 -0.1278  0.1286
 7025W        W 9225  11.309   2.886  12.698  0.4728  0.0476  0.1435
 7026W        W 9226  14.463   4.344  12.960 -0.2021  0.0863  0.1202
 7027W        W 9227  18.489   5.893  20.923 -0.0693  0.2949  0.0937
 7028W        W 9228   4.480   5.269  20.147  0.0692  0.0759  0.1528
 7029W        W 9229   0.973   0.450  28.172  0.0285  0.0882  0.0766
 7030W        W 9230   1.231   2.991   5.045  0.0624  0.1877 -0.0424
 7031W        W 9231   8.781   1.176   7.288  0.1798  0.1918 -0.0312
 7032W        W 9232  18.412   0.337  29.067 -0.1900  0.0530  0.3087
 7033W        W 9233  15.145   3.463   0.508  0.0823 -0.2035 -0.1301
 7034W        W 9234  24.516   6.202  27.919  0.0731 -0.3879  0.3137
 7035W        W 9235   3.268   0.070  24.958 -0.0838 -0.2031 -0.0241
 7036W        W 9236   0.382   5.928   1.323 -0.1945  0.1241 -0.1239
 7037W        W 9237  14.276   1.005  31.239  0.0665  0.0454  0.3607
 7038W        W 9238  22.688   3.422   2.914 -0.0387  0.1003 -0.0710
 7039W        W 9239   6.578   5.585  14.220 -0.0254 -0.0330 -0.1816
 7040W        W 9240   3.712   0.220  21.149 -0.0040 -0.0129 -0.0224
 7041W        W 9241  15.824   4.731  28.102 -0.0853  0.3124 -0.1616
 7042W        W 9242  17.110   0.272  13.119 -0.0622 -0.2455 -0.0587
 7043W        W 9243  13.376   2.725  21.811 -0.1048  0.0266  0.0782
 7044W        W 9244  25.959   5.299  26.093  0.0405 -0.0034 -0.2456
 7045W        W 9245  15.566   1.014  10.473  0.1356 -0.0061  0.1976
 7046W        W 9246  21.746   0.313  11.987  0.0439  0.1658 -0.0143
 7047W        W 9247  24.024   0.900  11.540 -0.0203 -0.1484 -0.0942
 7048W        W 9248   9.409   3.819   7.585  0.1885 -0.3526  0.0791
 7049W        W 9249  19.900   4.379   5.266 -0.3555 -0.3630 -0.2843
 7050W        W 9250  15.087   2.079  12.373 -0.0579  0.0921 -0.0346
 7051W        W 9251   9.804   6.375  27.877 -0.1683 -0.1167 -0.1081
 7052W        W 9252   4.640   4.633  13.980 -0.1515 -0.3452 -0.0021
 7053W        W 9253  26.349   5.593   2.661 -0.2889  0.0810  0.0907
 7054W        W 9254  12.592   4.161  12.525  0.3908 -0.3178  0.2816
 7055W        W 9255  14.897   5.544  26.978 -0.1203  0.0434 -0.0127
 7056W        W 9256  14.491   1.946  35.117  0.1047  0.0068  0.2817
 7057W        W 9257  24.164   4.905  30.641 -0.0621  0.0951 -0.0569
 7058W        W 9258  18.945   0.962  33.230 -0.0322 -0.0758 -0.0330
 7059W        W 9259  17.819   0.931  33.188  0.0526  0.1535 -0.0035
 7060W        W 9260   5.992   1.331  31.601  0.1427 -0.2760 -0.0201
 7061W        W 9261  22.982   1.487   9.767  0.0394 -0.1605 -0.5126
 7062W        W 9262   3.966   4.564  11.695  0.1009  0.0526  0.1548
 7063W        W 9263   6.449   5.508  15.126 -0.2054  0.0448  0.3240
 7064W        W 9264  17.666   2.314  34.524 -0.2691 -0.2876  0.2007
 7065W        W 9265  12.778   0.462   3.888 -0.1311  0.0929 -0.0723
 7066W        W 9266   2.023   4.830  12.523 -0.0525 -0.1043 -0.5539
 7067W        W 9267  15.565   3.609   4.657  0.0126 -0.0574 -0.2750
 7068W        W 9268  20.530   3.837  34.565 -0.2271  0.1543 -0.1966
 7069W        W 9269   9.020   3.683   2.928 -0.0204 -0.0242  0.2869
 7070W        W 9270   1.467   5.754   0.560  0.3249 -0.2603  0.1544
 7071W        W 9271  25.771   4.479   7.820 -0.0012  0.1085  0.0973
 7072W        W 9272  19.268   5.500  32.569  0.3163  0.3347 -0.0284
 7073W        W 9273  11.377   3.650  23.971 -0.2206  0.0990 -0.3435
 7074W        W 9274   5.164   3.953   1.134  0.2214  0.1744  0.1298
 7075W        W 9275   9.688   2.176  12.102  0.0310 -0.1091  0.2554
 7076W        W 9276   3.547   0.681  33.505  0.1275 -0.2565 -0.1113
 7077W        W 9277  23.165   0.568   9.445 -0.0698  0.1134  0.0879
 7078W        W 9278  17.629   2.960  22.450  0.1183  0.2129 -0.4759
 7079W        W 9279   5.141   5.392  14.028 -0.2455 -0.2480 -0.2229
 7080W        W 9280  14.315   6.019   4.503 -0.0327  0.0578 -0.0749
 7081W        W 9281   9.618   3.222  12.178  0.1695 -0.0244  0.1869
 7082W        W 9282  12.324   1.083   5.604  0.3478  0.1073 -0.1046
 7083W        W 9283   3.027   5.374  25.454 -0.1742 -0.0968  0.0043
 7084W        W 9284   6.027   0.612  14.997 -0.0544  0.0184 -0.1231
 7085W        W 9285  19.249   3.073  30.279 -0.0319  0.0899  0.1982
 7086W        W 9286  17.375   5.518   3.827 -0.0124 -0.1606 -0.1912
 7087W        W 9287  25.289   5.878  31.557  0.2977  0.0552 -0.0177
 7088W        W 9288  17.301   2.439   0.806  0.0708  0.4257 -0.0547
 7089W        W 9289   1.841   6.043   7.705 -0.0335 -0.0774 -0.4262
 7090W        W 9290  11.356   2.075  13.166  0.0196 -0.2852  0.1649
 7091W        W 9291  22.059   6.072  31.225  0.1479 -0.2428  0.2470
 7092W        W 9292  21.389   1.592  20.771  0.2396 -0.0398  0.0644
 7093W        W 9293  10.135   0.650   2.710  0.3814 -0.0183 -0.3069
 7094W        W 9294   6.211   2.598  34.030  0.1462  0.1485  0.1747
 7095W        W 9295  13.063   6.315  30.528 -0.2068 -0.0015  0.0889
 7096W        W 9296   9.551   5.630   1.624  0.0068 -0.1928  0.1378
 7097W        W 9297  11.407   5.602   3.278  0.4430 -0.2479  0.1178
 7098W        W 9298   2.273   4.298   9.098 -0.1190 -0.1873  0.1080
 7099W        W 9299   6.867   5.075  28.591 -0.1189 -0.4596 -0.0155
 7100W        W 9300   4.799   0.747  13.879 -0.0428 -0.2734  0.0465
 7101W        W 9301  13.717   4.500  33.850  0.1556 -0.0520 -0.0362
 7102W        W 9302  15.971   2.609  15.481 -0.0186  0.1969 -0.0279
 7103W        W 9303  17.263   0.614  27.814  0.1117 -0.2357  0.1651
 7104W        W 9304  10.152   4.267  14.626 -0.3260  0.2534 -0.0447
 7105W        W 9305   0.612   1.807  11.211  0.0098 -0.4792  0.0609
 7106W        W 9306   2.345   5.695  33.535 -0.3330  0.1159 -0.3076
 7107W        W 9307  18.740   3.012  14.538  0.1569  0.2207  0.2547
 7108W        W 9308   4.513   0.553  10.805 -0.2706  0.4374 -0.0526
 7109W        W 9309   1.661   0.925   8.214 -0.3421  0.0833 -0.0788
 7110W        W 9310   4.991   5.644   5.753  0.0176 -0.0117 -0.1915
 7111W        W 9311   0.019   3.562   0.349  0.1878 -0.1406 -0.1583
 7112W        W 9312  18.477   2.122  13.336  0.3030 -0.3222  0.0861
 7113W        W 9313  14.948   0.208  34.378  0.0912 -0.2182  0.0606
 7114W        W 9314   7.418   2.197   4.654  0.0902  0.1669 -0.0607
 7115W        W 9315  12.806   1.633   9.662  0.2363  0.2835 -0.1529
 7116W        W 9316   0.570   3.017  33.075 -0.1782  0.0538 -0.0805
 7117W        W 9317   6.486   1.182  13.481  0.2728 -0.0562 -0.0262
 7118W        W 9318  24.699   5.866   2.918  0.2234 -0.4861 -0.2332
 7119W        W 9319  10.216   0.861  29.354 -0.0562 -0.1463 -0.0556
 7120W        W 9320   8.348   6.051  23.687 -0.3431 -0.2951  0.2166
 7121W        W 9321   6.396   5.443   6.825 -0.0782 -0.1424  0.1915
 7122W        W 9322  16.297   2.910  12.001  0.0477 -0.2380 -0.2463
 7123W        W 9323  19.180   0.593   2.443  0.0146 -0.2094  0.0360
 7124W        W 9324  23.921   4.176  20.967  0.1369  0.0676 -0.1145
 7125W        W 9325  21.939   0.477   1.723  0.0970 -0.1183  0.3065
 7126W        W 9326  14.628   4.124  29.505  0.2177  0.0701  0.1388
 7127W        W 9327  17.632   4.612   6.839 -0.0985 -0.0571  0.3653
 7128W        W 9328   5.993   1.037  22.967 -0.2631 -0.1177  0.2678
 7129W        W 9329  13.682   1.854   0.622 -0.2120  0.4305  0.1656
 7130W        W 9330   9.138   2.947  27.427 -0.4872  0.1039  0.1152
 7131W        W 9331   0.004   6.040  23.837 -0.0690 -0.0961  0.2966
 7132W        W 9332  17.769   0.050  29.476 -0.0728  0.3117 -0.1991
 7133W        W 9333   8.546   3.873  24.800 -0.1638  0.0082  0.0971
 7134W        W 9334  18.650   5.346  22.159  0.1669  0.0487  0.0382
 7135W        W 9335   1.065   3.968  10.827 -0.1589  0.0251 -0.1441
 7136W        W 9336  10.956   1.459  31.672  0.1057 -0.0825 -0.0586
 7137W        W 9337  19.421   4.038  26.365  0.2149  0.0018  0.2623
 7138W        W 9338  14.372   5.444   3.357  0.0914  0.1402 -0.2889
 7139W        W 9339  24.930   5.544  22.101  0.1249 -0.4034  0.0688
 7140W        W 9340  24.695   0.232   6.843 -0.2631 -0.0394  0.1580
 7141W        W 9341  17.203   3.747  32.425  0.1783 -0.1560  0.2171
 7142W        W 9342  19.424   1.848  11.387  0.1838  0.1223 -0.2459
 7143W        W 9343  10.107   1.025  22.509 -0.1625  0.0531 -0.0616
 7144W        W 9344   2.095   3.609   1.993 -0.0490  0.1434  0.2130
 7145W        W 9345   2.221   1.159  25.661  0.1841  0.1091  0.0796
 7146W        W 9346   3.948   4.697  23.236 -0.1144  0.0178  0.2819
 7147W        W 9347   4.994   4.656  13.594  0.2041 -0.2207  0.2145
 7148W        W 9348  20.206   1.691   1.385  0.2907 -0.0472 -0.1445
 7149W        W 9349  23.224   5.605   7.570 -0.3441 -0.1790 -0.1226
 7150W        W 9350  14.587   0.777  28.662 -0.2758  0.1638  0.1948
 7151W        W 9351  24.330   4.993  24.443  0.2218  0.1835  0.1448
 7152W        W 9352  15.507   6.537  20.568  0.1179  0.0727 -0.0226
 7153W        W 9353  25.082   5.106  22.454 -0.1223  0.1710  0.1762
 7154W        W 9354  16.764   3.476  27.893 -0.2527 -0.2355 -0.1242
 7155W        W 9355  13.063   2.455  21.394  0.0222 -0.1299  0.0125
 7156W        W 9356   2.616   5.784   6.659 -0.2934  0.2000 -0.1010
 7157W        W 9357  18.977   0.625  31.722 -0.1411  0.0478  0.0416
 7158W        W 9358  17.982   3.681   0.486 -0.1828 -0.1199  0.1071
 7159W        W 9359  21.261   1.281   0.511  0.1543  0.0741  0.2488
 7160W        W 9360  21.521   0.470  11.525  0.4893  0.1338  0.0735
 7161W        W 9361  15.760   2.114  24.752 -0.2809 -0.0848  0.0407
 7162W        W 9362   1.929   5.819  27.809  0.2103 -0.0674  0.1798
 7163W        W 9363  14.419   0.724  11.852  0.0416 -0.0028 -0.2269
 7164W        W 9364   5.122   6.139   2.204 -0.1393  0.0501  0.1837
 7165W        W 9365  10.109   1.384  24.825 -0.1722 -0.0791  0.0359
 7166W        W 9366   0.200   4.057   6.624 -0.2646  0.0313  0.1774
 7167W        W 9367   8.725   4.936  13.669  0.0416 -0.1337  0.1498
 7168W        W 9368   9.287   6.010  22.975  0.1633  0.0246 -0.0174
 7169W        W 9369  22.876   6.092  27.410 -0.0098 -0.1312 -0.0153
 7170W        W 9370  15.950   0.165  13.906  0.0296 -0.0452 -0.1274
 7171W        W 9371  26.404   1.965  12.364  0.0103  0.2809 -0.2896
 7172W        W 9372  19.469   1.704  25.859 -0.2676  0.3364 -0.2478
 7173W        W 9373  13.763   1.790   2.569  0.0706 -0.1990 -0.0794
 7174W        W 9374   2.198   4.240  26.682  0.3928 -0.1199 -0.0932
 7175W        W 9375  10.528   5.102   6.848 -0.3523  0.1202 -0.3409
 7176W        W 9376  11.847   3.737  11.830 -0.3299  0.1065 -0.1659
 7177W        W 9377  19.342   1.860  36.038  0.2878 -0.0758  0.3273
 7178W        W 9378  20.163   1.724   1.994 -0.1861  0.2624  0.3067
 7179W        W 9379   1.719   6.308   5.610 -0.4409 -0.0932  0.1371
 7180W        W 9380  15.223   4.693  31.653  0.2186 -0.1431 -0.1317
 7181W        W 9381  21.001   5.145  12.909 -0.2396  0.1698 -0.2953
 7182W        W 9382  20.752   0.133   6.678 -0.2877  0.3029  0.3939
 7183W        W 9383  16.478   0.842  20.921  0.0166  0.0978  0.0111
 7184W        W 9384  15.146   0.957  26.378 -0.0487  0.2435 -0.1432
 7185W        W 9385   3.270   4.624  23.966  0.0863  0.3994 -0.0435
 7186W        W 9386  24.727   0.817  21.364 -0.0308  0.0675  0.1671
 7187W        W 9387  17.213   5.662   2.983 -0.5619 -0.0839 -0.0310
 7188W        W 9388   1.043   2.443   3.857  0.2300  0.0687  0.1865
 7189W        W 9389  21.942   2.866  33.610 -0.1038 -0.0628 -0.3067
 7190W        W 9390  13.005   5.387   6.398  0.1188  0.2080 -0.0273
 7191W        W 9391  14.508   0.087  30.299  0.0949 -0.2892  0.2214
 7192W        W 9392  15.787   2.443  35.422  0.0239 -0.1998  0.0044
 7193W        W 9393   2.546   1.210  13.594  0.0473  0.0965 -0.1651
 7194W        W 9394  15.877   1.225   5.397 -0.0376  0.1842  0.3152
 7195W        W 9395  20.418   3.244  20.010 -0.1485 -0.0155  0.1964
 7196W        W 9396  21.336   5.827   9.695 -0.1520 -0.2165  0.2891
 7197W        W 9397   9.923   3.512  36.126 -0.2095 -0.4944 -0.0452
 7198W        W 9398  25.235   5.344   1.821  0.0502  0.1126  0.1483
 7199W        W 9399   2.597   6.026  28.772  0.2094  0.3199  0.0502
 7200W        W 9400  18.469   0.259  34.607 -0.3075  0.1332  0.0590
 7201W        W 9401  10.303   6.232  10.377  0.1205  0.0613 -0.1478
 7202W        W 9402  25.605   3.566  35.923 -0.0985 -0.3047 -0.1887
 7203W        W 9403  11.419   0.565  24.451 -0.1429  0.0448  0.1891
 7204W        W 9404  14.703   2.180  28.668  0.0343 -0.0386  0.0301
 7205W        W 9405   4.576   4.416  34.513  0.2059  0.2289 -0.0988
 7206W        W 9406  11.473   0.797  23.587  0.2489 -0.3556 -0.0245
 7207W        W 9407  15.480   5.006  24.272 -0.2950 -0.3566  0.0620
 7208W        W 9408   9.176   3.401   7.274 -0.5036  0.3119 -0.3015
 7209W        W 9409  20.277   2.175  34.726  0.1898  0.4484  0.2898
 7210W        W 9410   7.002   2.825  26.177  0.0912 -0.2294 -0.0045
 7211W        W 9411  23.020   1.589   6.323 -0.3796 -0.1628 -0.1184
 7212W        W 9412   5.129   0.696  28.561  0.0317 -0.0784 -0.0977
 7213W        W 9413  23.395   3.907   9.332  0.1019 -0.0080  0.0060
 7214W        W 9414  20.202   1.074  31.882  0.2045  0.2658 -0.0425
 7215W        W 9415  20.065   5.151  31.222  0.0508  0.1120 -0.0582
 7216W        W 9416  10.535   0.682  22.452  0.3317 -0.0067  0.0807
 7217W        W 9417  22.410   2.268   4.726  0.1808 -0.0029  0.0235
 7218W        W 9418  10.938   6.389   7.394  0.1892  0.0251 -0.1472
 7219W        W 9419   1.775   4.222   1.253 -0.0669  0.3327  0.1962
 7220W        W 9420   4.011   1.304   1.654 -0.2398 -0.0300 -0.1167
 7221W        W 9421  11.345   1.609  32.809  0.0575 -0.1546  0.0308
 7222W        W 9422   3.870   1.432  27.451 -0.1279  0.0604 -0.1615
 7223W        W 9423   7.455   6.214   9.490 -0.1197 -0.2102 -0.3181
 7224W        W 9424  14.601   0.306   3.662  0.0702  0.0824  0.1894
 7225W        W 9425  13.568   0.664  29.750 -0.2082  0.2011  0.1396
 7226W        W 9426  26.354   5.520  26.397 -0.2214  0.0718 -0.0216
 7227W        W 9427  13.274   2.363  23.418 -0.0727 -0.1752 -0.1329
 7228W        W 9428   4.220   0.614   9.518 -0.0215 -0.1126 -0.1418
 7229W        W 9429   2.053   4.431  11.733 -0.1834  0.0380 -0.0212
 7230W        W 9430  12.878   2.295  24.409  0.1710  0.0031  0.0843
 7231W        W 9431  19.481   6.030   8.062  0.1916  0.2653 -0.2813
 7232W        W 9432   6.770   2.097   0.697 -0.4207  0.3650 -0.0022
 7233W        W 9433  11.722   0.872   3.439 -0.1171 -0.0844  0.0439
 7234W        W 9434  10.758   1.578   8.369 -0.0071 -0.1471  0.0691
 7235W        W 9435  20.654   1.672  29.125  0.0653 -0.2338 -0.1757
 7236W        W 9436  23.939   2.983  32.961  0.0537 -0.1768 -0.1496
 7237W        W 9437  21.646   3.617   4.987  0.3233 -0.0987  0.0025
 7238W        W 9438   9.616   5.503   3.980 -0.0018  0.0226  0.0781
 7239W        W 9439  24.734   3.839  34.085 -0.2117 -0.1001  0.1446
 7240W        W 9440  22.353   1.115   7.335  0.1437  0.1216 -0.1150
 7241W        W 9441   8.619   3.863  10.160 -0.0385  0.1980  0.0930
 7242W        W 9442  19.836   1.578  11.530  0.1151 -0.6786  0.1545
 7243W        W 9443   6.775   0.509  26.649  0.1484 -0.3282 -0.1478
 7244W        W 9444   5.853   0.003  13.219 -0.0990  0.0134 -0.1609
 7245W        W 9445  24.253   3.931  22.251  0.0571  0.0718 -0.0582
 7246W        W 9446   2.387   3.741  30.192  0.2040  0.1366 -0.0884
 7247W        W 9447   3.232   2.269  33.346 -0.2534  0.0513  0.0377
 7248W        W 9448   6.894   2.957  23.756 -0.0289 -0.0279 -0.0926
 7249W        W 9449  13.935   4.363  35.150  0.0028 -0.0938  0.1091
 7250W        W 9450   4.483   5.164   8.938  0.4462 -0.1002 -0.1917
 7251W        W 9451   9.578   0.185  30.531  0.1809  0.1599  0.1324
 7252W        W 9452   4.045   5.921   5.970  0.0896 -0.0417 -0.3972
 7253W        W 9453  18.883   1.447  25.276 -0.0258 -0.2131 -0.0940
 7254W        W 9454   5.631   2.153  30.520 -0.1012 -0.0727 -0.0496
 7255W        W 9455  15.065   2.067   4.189  0.2526  0.0499 -0.1419
 7256W        W 9456  13.785   1.952   6.509  0.1265 -0.1133  0.0362
 7257W        W 9457   8.043   3.673  14.986  0.1616 -0.0837  0.2137
 7258W        W 9458   7.384   2.280  25.026  0.1190 -0.0785  0.2650
 7259W        W 9459  17.091   4.070   1.410 -0.1867  0.0517 -0.0755
 7260W        W 9460   9.605   6.559   7.647 -0.0262  0.0087  0.3115
 7261W        W 9461  22.222   4.440   6.130 -0.3616  0.2069 -0.4084
 7262W        W 9462   7.034   6.156   9.781  0.0750 -0.0445  0.1724
 7263W        W 9463  16.599   6.051   1.379  0.0264 -0.2136  0.0342
 7264W        W 9464  18.095   5.098   7.850  0.0216 -0.1369 -0.1617
 7265W        W 9465  26.204   2.448  32.454  0.1967  0.1570 -0.0320
 7266W        W 9466  13.524   4.984   0.351 -0.2046  0.1525 -0.0475
 7267W        W 9467   9.555   4.214   9.774 -0.0753 -0.1701 -0.2742
 7268W        W 9468  19.741   0.835  12.946  0.0474 -0.1545 -0.3382
 7269W        W 9469  23.838   2.639  12.346  0.2285 -0.1180 -0.2117
 7270W        W 9470   1.076   6.351   5.523 -0.0528  0.0570  0.1923
 7271W        W 9471   6.587   0.614   7.726  0.0660  0.1733  0.3064
 7272W        W 9472  13.093   3.452  27.360  0.2818  0.3998 -0.0438
 7273W        W 9473   7.617   0.223  25.392 -0.1932 -0.0498  0.1699
 7274W        W 9474   6.319   5.064  22.273  0.0733 -0.3859 -0.1853
 7275W        W 9475  19.563   2.678   3.016  0.3743  0.0828  0.0845
 7276W        W 9476   9.454   1.624   8.304  0.3481  0.1088  0.1923
 7277W        W 9477  10.864   5.324  28.449  0.0112  0.1616 -0.0105
 7278W        W 9478   7.870   6.463  25.052  0.1349 -0.1264  0.0144
 7279W        W 9479  20.537   4.762   9.133 -0.0278 -0.0639 -0.1537
 7280W        W 9480   8.672   5.614   0.029 -0.3328  0.2573 -0.1548
 7281W        W 9481  14.519   2.242  23.781  0.3571  0.0416  0.0275
 7282W        W 9482   4.659   3.471  25.360  0.0514  0.0048  0.0664
 7283W        W 9483   8.313   5.288  24.656  0.1951  0.0338  0.1746
 7284W        W 9484  18.287   4.162   6.159  0.0177  0.2426  0.1506
 7285W        W 9485  13.076   1.275  21.999 -0.2540 -0.0716  0.0780
 7286W        W 9486  20.235   3.263  26.701  0.0356 -0.0245 -0.0062
 7287W        W 9487  17.944   3.571  30.860 -0.1171 -0.2422  0.1242
 7288W        W 9488  21.050   1.174  34.797  0.0430  0.2210 -0.0940
 7289W        W 9489   6.536   5.865  32.910 -0.0407  0.1877  0.0003
 7290W        W 9490   1.965   5.257  11.361  0.1182 -0.2280 -0.1922
 7291W        W 9491  11.719   3.876  25.432  0.1627 -0.4751 -0.0765
 7292W        W 9492  25.606   2.314  25.532 -0.0952  0.1155 -0.2742
 7293W        W 9493  24.951   5.438   6.487  0.2422 -0.0297  0.0923
 7294W        W 9494  23.817   3.834  13.927 -0.0747 -0.1724  0.1310
 7295W        W 9495  25.660   0.999  20.728 -0.0845  0.0478 -0.0985
 7296W        W 9496  12.934   4.297  25.550  0.0238  0.0436  0.1384
 7297W        W 9497  24.382   5.181  11.122  0.2037 -0.2630 -0.0672
 7298W        W 9498  12.226   1.682  30.908  0.2189  0.1233 -0.0960
 7299W        W 9499   4.039   0.722   3.064 -0.1154 -0.1833 -0.1923
 7300W        W 9500  14.893   2.842   9.976  0.0717  0.0585  0.0057
 7301W        W 9501  23.996   1.108  24.354  0.3629 -0.0603  0.1397
 7302W        W 9502  22.130   4.920  20.355  0.0608  0.1904  0.1164
 7303W        W 9503  20.949   4.455   6.515  0.0270  0.3675 -0.2270
 7304W        W 9504  13.132   2.500   8.983 -0.1720 -0.0374 -0.0011
 7305W        W 9505  10.261   3.013  14.842  0.4036 -0.3710 -0.1250
 7306W        W 9506  13.345   5.414  31.496  0.1098  0.1673 -0.0971
 7307W        W 9507  23.003   4.129   2.503  0.2272  0.3805  0.1437
 7308W        W 9508   8.733   5.647  24.510  0.1203  0.1664 -0.0190
 7309W        W 9509  18.159   2.966   3.791 -0.2619 -0.3869  0.1445
 7310W        W 9510   8.093   5.575  35.660 -0.3273  0.2125 -0.1919
 7311W        W 9511   2.244   6.010   7.390 -0.1602  0.3925 -0.3834
 7312W        W 9512  13.497   0.917  28.424  0.1242  0.0407 -0.0847
 7313W        W 9513  23.211   5.073   4.314  0.4182 -0.1589 -0.1841
 7314W        W 9514  23.170   4.749  10.697  0.2298 -0.0567  0.0292
 7315W        W 9515  19.343   0.888  24.261 -0.1670 -0.2170  0.0033
 7316W        W 9516   1.700   5.635  14.166 -0.1216  0.2629 -0.2552
 7317W        W 9517  18.963   6.542  23.575 -0.0154  0.1613  0.1273
 7318W        W 9518  18.133   0.947  30.740 -0.3034 -0.1562  0.0529
 7319W        W 9519   7.150   5.435  11.627  0.0609  0.2779 -0.0746
 7320W        W 9520  13.185   1.263  14.000  0.0804 -0.0022  0.0477
 7321W        W 9521   5.528   1.723  34.622 -0.4468 -0.0383 -0.1914
 7322W        W 9522  18.856   3.740   7.721 -0.0064  0.2386  0.1887
 7323W        W 9523  17.760   5.507   2.696  0.0587  0.0230 -0.1764
 7324W        W 9524  23.105   2.631   7.222  0.1684 -0.3311 -0.4211
 7325W        W 9525  24.335   2.231  23.175 -0.0533 -0.0829  0.1305
 7326W        W 9526   8.142   1.239  13.415  0.0703  0.0510  0.0651
 7327W        W 9527  21.484   2.775   7.542  0.0022 -0.0259  0.1255
 7328W        W 9528   6.384   3.347  22.165  0.1067 -0.1740 -0.0402
 7329W        W 9529  26.286   5.291  20.322  0.2342  0.2046  0.4251
 7330W        W 9530   3.361   5.662  33.471  0.0930 -0.1296 -0.3162
 7331W        W 9531  17.132   5.974  10.491  0.0784  0.0267 -0.2099
 7332W        W 9532  14.133   5.988   6.944 -0.3034 -0.2213 -0.2965
 7333W        W 9533   6.718   3.646  23.192 -0.1671 -0.0691 -0.0088
 7334W        W 9534   7.785   0.912   8.534 -0.1178 -0.2815  0.2512
 7335W        W 9535  16.957   6.335  27.497 -0.1073 -0.3798 -0.0242
 7336W        W 9536  11.143   5.666  25.700 -0.2756  0.2389  0.3132
 7337W        W 9537   8.570   5.600  26.769  0.0144  0.1512  0.0941
 7338W        W 9538   6.152   0.180  32.452  0.1531  0.2830  0.1582
 7339W        W 9539   5.183   0.871   2.769 -0.1842  0.0301 -0.1691
 7340W        W 9540  23.826   4.777   9.215 -0.2782 -0.0003  0.0451
 7341W        W 9541   1.419   6.404  25.941  0.1880  0.0548  0.0746
 7342W        W 9542  14.862   5.004   1.858  0.0518  0.1089 -0.0032
 7343W        W 9543  21.996   5.437  24.558 -0.1155  0.0041 -0.0843
 7344W        W 9544  17.093   6.094  21.980  0.1923 -0.2786 -0.1766
 7345W        W 9545   3.545   1.380  20.435  0.1107 -0.2798  0.1347
 7346W        W 9546   6.176   5.290   5.375  0.2526  0.0412 -0.2100
 7347W        W 9547   1.033   5.978  11.471  0.2010 -0.1804  0.0972
 7348W        W 9548   0.279   1.653   8.545 -0.0166  0.1136 -0.2250
 7349W        W 9549  19.436   0.341  15.450  0.3057 -0.0179 -0.2082
 7350W        W 9550  11.765   5.583   6.612 -0.0286 -0.0050  0.2298
 7351W        W 9551   4.049   2.846  34.517  0.1646 -0.3351 -0.0457
 7352W        W 9552  12.461   6.408  23.443  0.0756  0.1089 -0.2152
 7353W        W 9553   1.760   3.660  22.694  0.1626  0.0225  0.1293
 7354W        W 9554  25.190   1.885   9.153 -0.0688 -0.0618 -0.1511
 7355W        W 9555   3.193   6.543   7.480 -0.0070 -0.5034 -0.0064
 7356W        W 9556   1.653   0.981  30.136 -0.0016  0.0311 -0.1159
 7357W        W 9557   5.795   6.102   6.544 -0.0394  0.0639 -0.2425
 7358W        W 9558  24.231   5.523   1.475  0.1899 -0.0984 -0.1979
 7359W        W 9559   6.021   5.910  13.521  0.1925 -0.1081 -0.0416
 7360W        W 9560   6.472   3.481   6.489  0.2605  0.2065  0.0474
 7361W        W 9561  25.561   3.546  20.522  0.0259 -0.1510  0.1092
 7362W        W 9562  23.880   4.084  29.503 -0.2572  0.1463 -0.2495
 7363W        W 9563   6.004   0.115   8.629 -0.0364 -0.3460  0.1455
 7364W        W 9564   9.327   6.572   4.209 -0.1558  0.1724 -0.1037
 7365W        W 9565  20.838   4.470  25.332  0.0570  0.2337  0.1730
 7366W        W 9566  11.754   3.166  11.475  0.1049 -0.0659  0.1070
 7367W        W 9567  20.761   1.106  20.611 -0.0089  0.1368  0.1355
 7368W        W 9568  19.839   5.964   1.633  0.0243 -0.0264  0.1493
 7369W        W 9569  13.832   2.274  20.766 -0.2168 -0.3251  0.0525
 7370W        W 9570   8.350   0.232   3.492  0.1863  0.3296 -0.0699
 7371W        W 9571  14.427   6.562   3.934 -0.5241 -0.2315 -0.0927
 7372W        W 9572   9.371   2.758  21.995  0.1591  0.0574 -0.2497
 7373W        W 9573  16.246   3.136  10.675  0.1231  0.2739  0.0292
 7374W        W 9574  23.673   1.362  11.477 -0.2580 -0.0986 -0.3754
 7375W        W 9575  17.539   0.296  22.536 -0.3236  0.1645  0.3162
 7376W        W 9576   0.790   3.898  12.619  0.2385 -0.2726  0.0604
 7377W        W 9577  15.262   1.598  12.415  0.0136 -0.2308 -0.2817
 7378W        W 9578  23.456   2.267  31.477 -0.0858 -0.0615 -0.2532
 7379W        W 9579  10.220   0.762  28.801 -0.2841  0.0390  0.1542
 7380W        W 9580   8.204   5.057  30.598 -0.3154  0.1337 -0.0111
 7381W        W 9581   6.651   1.055  35.058 -0.0005  0.1637 -0.1362
 7382W        W 9582   4.099   5.649   2.104  0.0486  0.0515 -0.1088
 7383W        W 9583   3.413   6.131  31.185  0.0549  0.0515 -0.5459
 7384W        W 9584  23.258   5.450  20.369 -0.0525 -0.0130 -0.1450
 7385W        W 9585  13.207   0.716  22.858 -0.1332 -0.0308 -0.2617
 7386W        W 9586  25.861   2.030   6.866 -0.1244  0.1059  0.0038
 7387W        W 9587  12.937   5.758  33.708 -0.1049  0.1036  0.1947
 7388W        W 9588  25.685   6.389  27.479 -0.0654  0.2752 -0.1493
 7389W        W 9589  20.966   4.617   3.443 -0.0055  0.1106  0.0560
 7390W        W 9590  22.829   0.657   7.981 -0.1721 -0.0255 -0.1674
 7391W        W 9591  24.076   1.063  28.715  0.0448  0.0962  0.0995
 7392W        W 9592   7.684   5.596  13.250  0.1003  0.3503 -0.0595
 7393W        W 9593   8.756   5.001   7.939  0.1599  0.1459  0.1201
 7394W        W 9594   0.318   0.517  20.333 -0.1182 -0.2581 -0.1623
 7395W        W 9595  10.010   2.163  33.289  0.0091 -0.3184  0.0049
 7396W        W 9596   6.848   0.055   7.755 -0.1354 -0.2977 -0.1573
 7397W        W 9597  15.545   6.051   5.221 -0.0130 -0.1600 -0.0859
 7398W        W 9598   9.323   1.688  31.211 -0.1687  0.0164  0.2501
 7399W        W 9599   3.709   5.300   1.068 -0.2171  0.0302 -0.0820
 7400W        W 9600   3.496   6.535   4.293 -0.0281 -0.2699  0.2366
 7401W        W 9601   5.943   0.437  12.990  0.1165 -0.2784  0.1166
 7402W        W 9602  14.052   5.990   6.210 -0.2304  0.1647  0.1249
 7403W        W 9603  19.887   1.025  29.062 -0.1015 -0.3134 -0.0980
 7404W        W 9604  16.934   1.676  31.269 -0.1075  0.1181 -0.0876
 7405W        W 9605   2.646   1.886   9.969 -0.2267  0.2426 -0.1049
 7406W        W 9606  25.848   6.282  10.969 -0.0834  0.0551  0.1505
 7407W        W 9607   5.043   5.171  32.535  0.1737  0.0333  0.1955
 7408W        W 9608  10.138   4.679  12.177 -0.0177  0.0697 -0.1584
 7409W        W 9609  11.656   2.962   1.362 -0.1466 -0.1642  0.1021
 7410W        W 9610  12.161   0.197   9.379 -0.2683 -0.2396 -0.0161
 7411W        W 9611  23.716   5.513  31.319 -0.1093 -0.3466  0.0795
 7412W        W 9612  25.782   4.180  29.145 -0.0113  0.0155 -0.2047
 7413W        W 9613   4.948   0.344  22.369  0.2574  0.2653 -0.3542
 7414W        W 9614  16.267   5.591  31.667 -0.4478  0.0170  0.0705
 7415W        W 9615   5.584   1.021  27.214  0.1187  0.0886  0.0463
 7416W        W 9616  10.722   4.167   3.465 -0.0614  0.0166  0.3223
 7417W        W 9617   4.027   6.220  23.316 -0.1321 -0.0092  0.1540
 7418W        W 9618   3.065   3.157   4.457 -0.0325  0.0129  0.0761
 7419W        W 9619   6.727   2.733  26.827  0.1216  0.0499 -0.0620
 7420W        W 9620  17.923   4.853  31.851  0.0571 -0.0976  0.0494
 7421W        W 9621  23.897   2.679   7.005  0.1366 -0.0715 -0.0787
 7422W        W 9622  26.051   5.131  27.081  0.0867 -0.1574 -0.3287
 7423W        W 9623  20.654   5.357  26.766 -0.0082  0.0339  0.0799
 7424W        W 9624  14.375   0.508   7.750  0.2170 -0.1060 -0.2586
 7425W        W 9625  26.072   4.124  22.972 -0.1248 -0.4048 -0.0234
 7426W        W 9626   9.460   3.795  12.554 -0.0618 -0.0558 -0.0405
 7427W        W 9627  18.896   6.077  27.552  0.1328 -0.1733  0.0413
 7428W        W 9628  12.484   1.975   9.725  0.2408 -0.1527  0.1127
 7429W        W 9629  20.581   4.430  34.459 -0.2819  0.2339  0.0465
 7430W        W 9630  22.851   1.506  32.278 -0.1468 -0.1559 -0.1984
 7431W        W 9631  17.856   0.100  26.611 -0.1072 -0.0642 -0.1079
 7432W        W 9632   8.665   6.478   1.010  0.0541 -0.2243 -0.2978
 7433W        W 9633   5.140   2.239  26.536 -0.0787 -0.4769 -0.1897
 7434W        W 9634   1.986   4.015   3.040 -0.1040 -0.0191  0.2554
 7435W        W 9635  16.195   1.488  27.585 -0.2675 -0.0208  0.1526
 7436W        W 9636   9.591   1.478  30.881 -0.0070 -0.0121  0.2827
 7437W        W 9637   6.367   5.069  14.135  0.2132 -0.1685 -0.1471
 7438W        W 9638  22.526   3.243  13.860  0.0390 -0.1346 -0.0578
 7439W        W 9639  20.274   6.519  27.715 -0.2600 -0.1047  0.2210
 7440W        W 9640   7.777   2.538  21.137  0.1287  0.1039 -0.0154
 7441W        W 9641  18.650   1.591  13.255 -0.3139  0.0243 -0.2668
 7442W        W 9642   2.439   2.017   8.328  0.0076  0.2450 -0.1010
 7443W        W 9643  12.090   4.161  33.988 -0.0729  0.1815  0.1898
 7444W        W 9644  13.842   6.072  32.142  0.1198 -0.0069  0.2559
 7445W        W 9645  18.561   6.412  28.334  0.3595 -0.2960  0.3534
 7446W        W 9646   9.348   5.428  14.332  0.1038 -0.0043 -0.0306
 7447W        W 9647  16.811   4.058  32.476 -0.0408 -0.0845 -0.0022
 7448W        W 9648   7.040   5.610  26.326  0.1781 -0.0315  0.2769
 7449W        W 9649  20.969   2.423  34.063 -0.2733  0.2861 -0.0539
 7450W        W 9650  10.462   3.736  35.923  0.2326  0.1326 -0.1215
 7451W        W 9651  13.849   5.186   8.409  0.0722  0.3586 -0.0697
 7452W        W 9652   3.871   4.709  34.741  0.0190 -0.2484  0.1057
 7453W        W 9653  13.514   6.117   9.036  0.2862  0.0332 -0.4192
 7454W        W 9654  25.950   6.255  25.222 -0.1918 -0.1907 -0.2933
 7455W        W 9655  10.216   5.354  10.282  0.3128 -0.1316 -0.1669
 7456W        W 9656  23.198   5.603  22.258  0.0494 -0.2751 -0.2051
 7457W        W 9657  11.868   3.028   3.401  0.1611  0.1094  0.1006
 7458W        W 9658   5.894   6.517   1.813  0.0078  0.0229 -0.0160
 7459W        W 9659   9.478   0.849  13.957  0.0619 -0.2018 -0.3125
 7460W        W 9660   3.827   1.515  32.667 -0.2929 -0.3437  0.0535
 7461W        W 9661   8.560   0.419   8.026  0.0308 -0.0883  0.1593
 7462W        W 9662   2.628   0.045  14.208  0.1662  0.0228 -0.2284
 7463W        W 9663   3.805   3.526  33.150  0.0658 -0.0123 -0.0936
 7464W        W 9664  16.766   0.248  31.705 -0.2147 -0.1289 -0.3326
 7465W        W 9665  23.816   2.832  14.058  0.1357 -0.1821  0.2614
 7466W        W 9666   1.301   2.674  13.806 -0.1940 -0.1051 -0.1530
 7467W        W 9667   3.804   1.442   7.558  0.2223 -0.2794  0.3228
 7468W        W 9668   5.382   6.342   5.957  0.3433  0.1376  0.0943
 7469W        W 9669   1.853   4.106  22.652 -0.0967  0.0835 -0.3042
 7470W        W 9670   8.291   6.086  35.628  0.1352  0.1286  0.1705
 7471W        W 9671   4.112   4.361  27.029 -0.2465 -0.2610 -0.3344
 7472W        W 9672  25.981   0.281   1.993 -0.0544 -0.0119  0.1519
 7473W        W 9673  18.689   3.909  34.660  0.0054  0.0097 -0.0184
 7474W        W 9674  18.536   1.367  21.644 -0.1454  0.1824 -0.1613
 7475W        W 9675  14.297   5.912  21.715  0.1016 -0.0794 -0.1149
 7476W        W 9676   4.992   3.162   3.286  0.1116  0.0717 -0.0463
 7477W        W 9677  11.836   0.196  21.339 -0.2362  0.0307 -0.1583
 7478W        W 9678   3.064   3.962  11.533 -0.0014  0.3209  0.0229
 7479W        W 9679  13.626   5.984   3.909  0.1902  0.0126  0.0142
 7480W        W 9680   3.152   3.182  28.326 -0.1461 -0.0834  0.2705
 7481W        W 9681   2.880   5.292   2.916  0.1808 -0.1549  0.0915
 7482W        W 9682   6.059   0.087   7.150 -0.2895  0.1711  0.1215
 7483W        W 9683   2.584   4.011  30.779  0.1033 -0.2200 -0.0137
 7484W        W 9684  14.504   4.431   8.041  0.3226  0.3180 -0.0166
 7485W        W 9685  26.262   4.465  10.696 -0.1453  0.1968  0.0348
 7486W        W 9686  24.305   6.469  24.969  0.1326  0.0989 -0.2725
 7487W        W 9687  14.184   4.484  27.023  0.0229  0.1067  0.1473
 7488W        W 9688  17.890   6.137  25.802 -0.0792  0.0177  0.0449
 7489W        W 9689   7.584   5.906   9.068 -0.0659 -0.1826  0.1108
 7490W        W 9690   2.255   0.342   3.433  0.1281  0.0157  0.1176
 7491W        W 9691  11.348   2.877  26.965 -0.2498  0.0901 -0.0854
 7492W        W 9692  19.523   0.996  36.032  0.2166 -0.1116  0.2618
 7493W        W 9693   9.689   4.328   0.826  0.0745 -0.0859  0.0438
 7494W        W 9694  10.062   4.137  32.402 -0.0294  0.2608 -0.0554
 7495W        W 9695  14.295   1.002  12.775 -0.0549 -0.0827  0.0698
 7496W        W 9696   0.631   4.147  24.447  0.0456  0.3725 -0.0868
 7497W        W 9697   0.185   0.533  14.722 -0.2461  0.0589  0.0618
 7498W        W 9698  12.461   0.740  30.748  0.1103 -0.4271 -0.1938
 7499W        W 9699  16.524   2.877   0.530 -0.2637 -0.0619 -0.0706
 7500W        W 9700  25.277   2.476  10.475 -0.0540 -0.1887 -0.4215
 7501W        W 9701   4.768   4.086   4.773  0.3040 -0.4552  0.0885
 7502W        W 9702  23.012   3.601  23.917 -0.0471  0.1597  0.0267
 7503W        W 9703  23.256   4.498   1.455 -0.0067  0.0078 -0.0225
 7504W        W 9704  12.731   0.698  36.000 -0.2231 -0.0034 -0.2489
 7505W        W 9705   3.813   0.980  12.047  0.2470  0.1822 -0.0161
 7506W        W 9706  19.131   2.944  27.977  0.1600 -0.1474  0.1583
 7507W        W 9707  16.870   5.959   2.693 -0.1293 -0.2769 -0.1212
 7508W        W 9708   9.880   4.298  29.180 -0.0123 -0.1945  0.3244
 7509W        W 9709  14.417   5.631   6.259  0.0472 -0.0209 -0.0591
 7510W        W 9710  21.685   3.218  27.723 -0.1713  0.3001 -0.1735
 7511W        W 9711   6.610   0.941  25.316  0.2186 -0.1657  0.0698
 7512W        W 9712  24.436   3.802  12.447 -0.0672 -0.1645  0.2446
 7513W        W 9713  19.741   0.178   9.385 -0.0357 -0.0863 -0.1625
 7514W        W 9714   6.974   3.294   7.075 -0.0656  0.0638  0.0172
 7515W        W 9715   6.367   5.162  28.791  0.2248 -0.1176  0.0214
 7516W        W 9716  24.910   5.810  28.882 -0.1079 -0.1660 -0.1822
 7517W        W 9717  13.522   4.993   5.173  0.0467 -0.0999 -0.1841
 7518W        W 9718   6.233   0.065  23.978  0.1786 -0.1145 -0.0641
 7519W        W 9719  19.437   6.204   8.545  0.0391 -0.0495  0.1454
 7520W        W 9720  24.530   2.423   0.220 -0.0447  0.0808  0.1556
 7521W        W 9721  19.361   5.066  34.743  0.0314 -0.2789  0.1501
 7522W        W 9722  21.607   4.007  10.499  0.0608 -0.0106  0.2431
 7523W        W 9723  21.379   5.568   3.770  0.0303 -0.1677 -0.0975
 7524W        W 9724  20.188   1.036  28.675  0.0845 -0.0390  0.2362
 7525W        W 9725   3.210   6.539  10.497 -0.0385 -0.2785  0.2879
 7526W        W 9726  16.075   3.118  16.392  0.2064  0.1179 -0.2864
 7527W        W 9727   1.430   2.116  34.922  0.0512  0.1646  0.1902
 7528W        W 9728  14.840   5.451   6.424  0.1866 -0.3559  0.0056
 7529W        W 9729   7.009   2.816  13.998 -0.1212 -0.1225  0.1947
 7530W        W 9730   9.847   2.156   2.604  0.1749  0.3010 -0.0989
 7531W        W 9731  19.574   2.282  21.562  0.1356  0.0082  0.1289
 7532W        W 9732  18.755   2.472  11.848 -0.1100  0.0247  0.0773
 7533W        W 9733  24.263   3.744  34.133  0.1295  0.0308 -0.1934
 7534W        W 9734  17.062   5.961  26.691 -0.0395  0.3355  0.0888
 7535W        W 9735   6.040   0.844  28.911 -0.1150 -0.1377 -0.0985
 7536W        W 9736  15.411   5.663  14.336 -0.0755  0.2837  0.0076
 7537W        W 9737   3.396   4.408  10.738 -0.1864 -0.1469 -0.0851
 7538W        W 9738   1.970   5.296  12.266  0.1395 -0.0532 -0.1116
 7539W        W 9739  19.679   5.057  33.602 -0.0353  0.0738 -0.1416
 7540W        W 9740  15.996   1.757  31.508 -0.0671 -0.2195 -0.0822
 7541W        W 9741   9.385   5.776  28.779  0.0886  0.0244 -0.0220
 7542W        W 9742  16.685   3.372  24.451  0.0127  0.0693 -0.2415
 7543W        W 9743  13.830   5.598   4.480  0.1361  0.0231 -0.3690
 7544W        W 9744  25.676   5.054   1.690 -0.0002 -0.1483  0.3131
 7545W        W 9745  22.949   3.428  31.300  0.1242  0.0653  0.2160
 7546W        W 9746  21.619   4.142  28.306 -0.0754 -0.0418 -0.0764
 7547W        W 9747  15.141   1.092  29.801  0.0304 -0.1544  0.2390
 7548W        W 9748  23.179   5.363   8.824 -0.2480 -0.1163  0.2737
 7549W        W 9749  16.263   1.945  12.366  0.1997 -0.3651  0.1078
 7550W        W 9750   2.804   4.398  12.913  0.1340 -0.0486  0.0578
 7551W        W 9751  14.607   1.636  32.301 -0.2053  0.0946  0.0264
 7552W        W 9752   3.286   2.848  25.929 -0.2371 -0.1606  0.1775
 7553W        W 9753   4.708   4.286  21.627 -0.0043  0.3875 -0.0894
 7554W        W 9754  10.757   3.881   1.936 -0.0557  0.3166 -0.1211
 7555W        W 9755  20.267   2.752  20.836 -0.0152  0.0076 -0.1362
 7556W        W 9756   4.107   4.133  24.366  0.1084  0.1990 -0.1523
 7557W        W 9757  23.855   2.250  15.090  0.0215  0.2637 -0.0087
 7558W        W 9758   1.825   2.953  31.136  0.1576 -0.1082 -0.1585
 7559W        W 9759  18.971   5.133  13.658 -0.1807 -0.0817  0.2346
 7560W        W 9760   5.014   2.321  33.976 -0.0448  0.2484 -0.1455
 7561W        W 9761   6.449   3.361  35.307 -0.1961 -0.2681 -0.0825
 7562W        W 9762   7.295   3.456  20.512  0.1929 -0.0178 -0.1338
 7563W        W 9763  18.571   1.838   9.606  0.4247  0.4026  0.3466
 7564W        W 9764   2.897   2.631   9.009  0.0830 -0.0563 -0.1500
 7565W        W 9765  14.336   2.580   3.153  0.1030 -0.0236 -0.0109
 7566W        W 9766  15.593   6.583  11.537  0.0381 -0.0178  0.0365
 7567W        W 9767  14.765   4.581  27.713 -0.0902 -0.2204 -0.3534
 7568W        W 9768  15.625   3.128   0.794 -0.0510  0.1300  0.0788
 7569W        W 9769  22.686   5.159   1.801 -0.1673  0.3023  0.0844
 7570W        W 9770  15.700   3.622   1.926 -0.2041 -0.0784 -0.0424
 7571W        W 9771  15.238   6.512  28.880 -0.3008 -0.0719  0.0169
 7572W        W 9772  18.547   3.237   1.137 -0.0898  0.1374  0.2187
 7573W        W 9773   3.174   4.630  20.350  0.1691  0.0485 -0.1148
 7574W        W 9774   2.918   6.492   7.891 -0.1851  0.4866 -0.1690
 7575W        W 9775  20.098   5.411   5.869 -0.2047 -0.1503  0.0704
 7576W        W 9776  22.223   1.342  22.103  0.1094  0.1879  0.1177
 7577W        W 9777   0.255   1.136  28.017 -0.0191  0.1666 -0.0651
 7578W        W 9778   0.391   2.219  33.868 -0.1694  0.0350 -0.0217
 7579W        W 9779  12.098   0.703   7.653  0.0353  0.0169 -0.2002
 7580W        W 9780   6.991   5.586  11.154 -0.0784  0.3910  0.4280
 7581W        W 9781  25.654   2.818   6.365  0.1663 -0.2692 -0.2384
 7582W        W 9782  22.139   6.266   7.093 -0.0562 -0.2235  0.1319
 7583W        W 9783   2.325   3.720  12.732 -0.0972 -0.1748  0.0171
 7584W        W 9784  21.526   1.571  27.637  0.0614  0.1174  0.3141
 7585W        W 9785   1.376   0.386  28.470 -0.0955 -0.2523 -0.0374
 7586W        W 9786  17.751   5.037  11.101  0.0144  0.0110 -0.0464
 7587W        W 9787  24.034   3.686  21.862  0.1763 -0.0469  0.1933
 7588W        W 9788   8.734   3.448  28.533 -0.1278 -0.1199 -0.2389
 7589W        W 9789  16.052   1.627   1.048  0.1626  0.0267  0.2862
 7590W        W 9790   1.169   3.726  22.109 -0.0664 -0.0557 -0.0367
 7591W        W 9791  25.547   4.481   1.276  0.1097  0.1476  0.1851
 7592W        W 9792  14.202   5.587   9.477  0.0601 -0.1015  0.2670
 7593W        W 9793  15.665   0.260  12.047 -0.0702 -0.0608 -0.0212
 7594W        W 9794   3.377   0.628   0.267  0.3626  0.3199 -0.2183
 7595W        W 9795  17.603   3.104  24.412  0.1356 -0.1537  0.0868
 7596W        W 9796   3.837   0.537  25.325  0.1354  0.1014 -0.3331
 7597W        W 9797   2.807   3.747  14.852  0.2132  0.0363  0.1643
 7598W        W 9798  20.651   1.172  13.429 -0.1929  0.0480  0.0409
 7599W        W 9799   8.338   2.032   9.052  0.0263  0.1278 -0.1125
 7600W        W 9800   8.274   0.127  30.736 -0.1331  0.1278 -0.2947
 7601W        W 9801  11.444   5.326   2.477  0.0697  0.1091  0.1657
 7602W        W 9802  12.856   4.336  29.423 -0.0036 -0.0975 -0.0798
 7603W        W 9803  17.940   3.651  27.794 -0.0563  0.0735 -0.0024
 7604W        W 9804   3.841   5.351   2.516  0.2067 -0.1248 -0.0988
 7605W        W 9805  26.320   0.202   1.398  0.1618  0.1423  0.1617
 7606W        W 9806   5.887   3.775  31.003 -0.0796 -0.2881  0.1244
 7607W        W 9807  12.207   2.914  31.521  0.0275 -0.0840 -0.1281
 7608W        W 9808  11.235   1.729  28.141 -0.0055 -0.1611 -0.2175
 7609W        W 9809  11.258   2.887   8.592 -0.0497 -0.3227 -0.1082
 7610W        W 9810   2.357   1.783  27.836  0.2287  0.0297  0.0480
 7611W        W 9811  20.388   2.745  24.644 -0.0117  0.2848  0.1364
 7612W        W 9812  14.108   3.292  27.164  0.0963 -0.0755 -0.1406
 7613W        W 9813   2.108   2.481   5.410 -0.0114 -0.0980 -0.2389
 7614W        W 9814  24.119   3.127  10.221  0.0961  0.0792 -0.3736
 7615W        W 9815  14.352   2.588  36.014 -0.1471  0.0602 -0.1570
 7616W        W 9816   8.278   2.173  31.957  0.0080 -0.1185  0.0669
 7617W        W 9817  11.142   4.704  11.507 -0.2122 -0.0914  0.2173
 7618W        W 9818   4.218   4.677  22.236 -0.1777  0.0867  0.1011
 7619W        W 9819  16.621   0.533  33.107 -0.1240  0.0889 -0.3200
 7620W        W 9820   5.885   2.068  32.848 -0.3040 -0.2261  0.1576
 7621W        W 9821  23.767   0.917  10.209 -0.3089 -0.2705 -0.0772
 7622W        W 9822   3.282   0.686   7.746  0.2931  0.3297  0.2739
 7623W        W 9823  19.105   2.882   4.201 -0.0743  0.1019 -0.0707
 7624W        W 9824  15.822   6.384   6.073 -0.5260  0.0054 -0.1600
 7625W        W 9825  13.068   6.419  26.073 -0.1193  0.0973 -0.0657
 7626W        W 9826  16.390   0.643  11.667 -0.2710  0.2574  0.2642
 7627W        W 9827   7.839   3.755  35.668 -0.1227 -0.1203 -0.1419
 7628W        W 9828   5.128   6.426  32.662 -0.0551  0.1028  0.1085
 7629W        W 9829  15.089   2.749  33.589 -0.2493 -0.0143 -0.1817
 7630W        W 9830  14.726   5.004  31.060 -0.0419 -0.0449  0.0084
 7631W        W 9831   0.757   4.777  25.354 -0.2014  0.0273  0.0155
 7632W        W 9832  23.716   4.455  27.740 -0.0853  0.0818  0.3460
 7633W        W 9833  12.120   4.505  33.647  0.0941 -0.2376  0.0833
 7634W        W 9834  16.815   4.572   1.414 -0.3456 -0.0781  0.0451
 7635W        W 9835  26.089   3.913  20.373  0.0857 -0.0787 -0.1721
 7636W        W 9836  21.259   2.127  24.936 -0.1072  0.0582 -0.2361
 7637W        W 9837  20.025   5.739   0.143 -0.0510  0.2533 -0.1013
 7638W        W 9838  22.830   0.317  11.007 -0.0842  0.0467  0.3649
 7639W        W 9839   6.856   0.090  27.419  0.1754  0.1119  0.0465
 7640W        W 9840   3.159   1.563   4.478  0.1091 -0.0597  0.2716
 7641W        W 9841   0.276   6.102   9.208  0.0107 -0.2334 -0.0700
 7642W        W 9842   5.151   1.626  23.928  0.0640  0.0562  0.1976
 7643W        W 9843   2.969   1.990  24.849 -0.0937  0.1117  0.0736
 7644W        W 9844   9.389   1.253  32.580  0.0819 -0.0595  0.2592
 7645W        W 9845  12.277   4.712   5.366 -0.1876 -0.2928 -0.0440
 7646W        W 9846   8.396   5.568   5.818  0.0334 -0.0265  0.2359
 7647W        W 9847  11.738   0.341   4.358 -0.1615  0.2016 -0.0198
 7648W        W 9848  15.782   3.640   8.906  0.0257 -0.0388 -0.2552
 7649W        W 9849   9.520   0.552   9.435 -0.1659  0.2273  0.0414
 7650W        W 9850  22.428   1.755  35.983  0.0622  0.1566  0.1602
 7651W        W 9851   4.905   4.450  34.098  0.1946 -0.2409 -0.1047
 7652W        W 9852   4.069   5.351  10.666  0.1319 -0.4945  0.2021
 7653W        W 9853  20.340   4.193   2.952 -0.0123 -0.1763  0.1005
 7654W        W 9854   3.217   6.023   7.559  0.2766 -0.1885 -0.2061
 7655W        W 9855  22.413   6.430   0.139  0.0626 -0.0420  0.0691
 7656W        W 9856   5.755   1.381  12.980  0.0676  0.1577 -0.0514
 7657W        W 9857  14.096   2.767  27.158  0.0354 -0.0068 -0.1311
 7658W        W 9858  15.126   5.212  26.044 -0.0664  0.2219  0.0393
 7659W        W 9859  25.955   5.746  30.257 -0.1683  0.2604  0.4441
 7660W        W 9860   9.046   5.468  24.930  0.0813  0.0527  0.1454
 7661W        W 9861   8.650   5.986  35.890  0.0538 -0.3553 -0.1881
 7662W        W 9862  14.042   6.055  15.406 -0.2115  0.2441 -0.1066
 7663W        W 9863  19.264   0.465  22.152  0.2175  0.1829 -0.2222
 7664W        W 9864  26.169   0.782   7.024  0.1744  0.1636 -0.0110
 7665W        W 9865   2.666   0.714  34.200 -0.5002 -0.1827 -0.1720
 7666W        W 9866  17.464   2.375   6.732  0.0229 -0.0390 -0.0614
 7667W        W 9867  15.976   5.071  11.274 -0.1846 -0.0545 -0.1005
 7668W        W 9868  14.213   1.565  10.106  0.1832  0.2066 -0.3522
 7669W        W 9869   8.555   1.576   2.258 -0.2145 -0.1936 -0.1087
 7670W        W 9870   9.178   0.399   7.021 -0.0200  0.1346 -0.0933
 7671W        W 9871  15.542   1.551  23.741  0.2297  0.1431 -0.2799
 7672W        W 9872  11.411   1.359  30.454 -0.0060 -0.0457 -0.3466
 7673W        W 9873  10.733   0.509  34.636 -0.2031 -0.1170  0.2355
 7674W        W 9874  11.759   2.197  32.051  0.0057  0.0101  0.2782
 7675W        W 9875  18.916   1.660  21.844  0.0684 -0.0518  0.0471
 7676W        W 9876  12.077   1.194  26.435  0.0319  0.1502  0.0016
 7677W        W 9877   5.376   4.669   9.680 -0.1448 -0.0441 -0.1012
 7678W        W 9878  13.048   3.673   5.616 -0.2225 -0.0550 -0.0623
 7679W        W 9879  24.805   2.794  21.822 -0.2043 -0.2855  0.1669
 7680W        W 9880  24.616   5.084   4.005 -0.0453  0.2643  0.2851
 7681W        W 9881   5.082   3.364  31.373 -0.0673  0.2064 -0.0117
 7682W        W 9882  24.484   0.541   2.289  0.0664  0.2159 -0.1152
 7683W        W 9883  17.810   3.782  13.545 -0.1604 -0.2658 -0.2100
 7684W        W 9884  15.848   3.383  28.441  0.4574  0.3651 -0.1593
 7685W        W 9885  15.230   1.176  10.119  0.0889  0.2216 -0.0221
 7686W        W 9886  18.685   2.622   9.775 -0.0186  0.0677  0.0648
 7687W        W 9887  17.704   5.822   5.111 -0.1727  0.0955 -0.2205
 7688W        W 9888  20.422   0.841  22.678  0.2543 -0.0197  0.0671
 7689W        W 9889   1.586   6.204   8.573 -0.0762 -0.0916  0.3069
 7690W        W 9890  21.912   4.252   3.958 -0.0928 -0.2583 -0.1839
 7691W        W 9891  17.786   2.365   0.569 -0.0006  0.1486  0.0799
 7692W        W 9892  25.325   0.139   2.175  0.2576 -0.1075 -0.0607
 7693W        W 9893  15.158   1.086  21.109  0.1255  0.2244  0.0391
 7694W        W 9894   7.733   1.285  33.652 -0.1024 -0.2626  0.1058
 7695W        W 9895  26.430   4.592   4.712  0.3917  0.3401 -0.3628
 7696W        W 9896   6.108   0.030  33.742 -0.0848  0.1099  0.2642
 7697W        W 9897  22.406   4.403  29.373 -0.1141 -0.1524 -0.1057
 7698W        W 9898  23.170   3.342   0.131 -0.3039 -0.0610  0.1178
 7699W        W 9899   0.568   6.083  11.574 -0.1033  0.0650 -0.1939
 7700W        W 9900  12.277   5.085   3.036 -0.0760 -0.0149  0.1461
 7701W        W 9901  17.025   1.833   5.334  0.0475  0.2629 -0.1173
 7702W        W 9902  15.702   2.351  15.821  0.2440  0.2998 -0.1836
 7703W        W 9903   0.233   2.662  32.106  0.1717  0.2442  0.0150
 7704W        W 9904  25.564   1.449  13.689  0.4597 -0.2612 -0.2770
 7705W        W 9905   7.273   3.089  23.324 -0.3436 -0.1673  0.3995
 7706W        W 9906  22.799   3.366  26.650 -0.1268 -0.0267  0.2093
 7707W        W 9907   8.343   2.844  20.232  0.2334 -0.1651  0.0108
 7708W        W 9908  17.872   6.284  29.903 -0.0131  0.0754  0.0864
 7709W        W 9909   1.465   2.563   2.757 -0.0152  0.3381  0.0066
 7710W        W 9910  16.421   6.389   4.646 -0.1627  0.0067  0.1502
 7711W        W 9911  21.986   5.379  31.858  0.1836 -0.0709  0.2184
 7712W        W 9912  20.538   3.217  25.066  0.0098 -0.2188  0.1118
 7713W        W 9913  15.833   1.447  34.114  0.0276 -0.0837  0.1951
 7714W        W 9914   1.085   0.660   7.337  0.3390 -0.0528  0.1841
 7715W        W 9915  17.036   2.742  10.175 -0.2930  0.1000  0.2378
 7716W        W 9916   7.085   3.017   8.916 -0.3349 -0.3011  0.0449
 7717W        W 9917  17.637   4.435  11.796 -0.0100 -0.2935 -0.1520
 7718W        W 9918   9.659   1.426   5.439 -0.0362 -0.1402 -0.1294
 7719W        W 9919   5.107   2.238  22.091  0.0821 -0.0350  0.0969
 7720W        W 9920   7.973   4.760  25.904 -0.1422  0.0509  0.3053
 7721W        W 9921  23.046   2.120  24.544 -0.2334  0.0889 -0.2434
 7722W        W 9922  25.958   1.204  20.358  0.1639  0.1861  0.2734
 7723W        W 9923   0.784   1.987  10.250  0.0499 -0.3738  0.1999
 7724W        W 9924  14.920   3.706  27.646 -0.2517  0.0633 -0.1267
 7725W        W 9925   4.405   4.872  20.814 -0.2006 -0.0846 -0.0531
 7726W        W 9926   0.421   2.651   8.566 -0.0688 -0.1063  0.1549
 7727W        W 9927   2.296   2.097   6.132  0.0743 -0.1561  0.0061
 7728W        W 9928  18.372   1.517  36.073 -0.0364  0.0216  0.2670
 7729W        W 9929  23.959   0.435  20.927  0.3718 -0.0039  0.2502
 7730W        W 9930  17.045   5.977  35.842  0.1148  0.0913  0.0438
 7731W        W 9931  20.268   3.339  29.452 -0.0932  0.2046  0.1778
 7732W        W 9932   4.406   3.550   7.048 -0.0153 -0.3077 -0.2221
 7733W        W 9933   5.849   6.324  28.030  0.0978 -0.1520 -0.0435
 7734W        W 9934  10.617   1.653  24.841 -0.0051 -0.0015 -0.0958
 7735W        W 9935  17.014   4.215  25.923 -0.2371 -0.1187  0.1189
 7736W        W 9936   1.418   3.149  15.302  0.1886 -0.1939  0.3772
 7737W        W 9937   3.814   4.560  13.847 -0.0861  0.0385  0.1846
 7738W        W 9938  22.107   1.982  21.421  0.0969  0.2021  0.0803
 7739W        W 9939  19.974   2.050   1.651 -0.0340  0.2613  0.0138
 7740W        W 9940  23.093   2.850  26.520 -0.0530  0.0044  0.4490
 7741W        W 9941  25.366   2.612  21.584 -0.1027  0.2509  0.0373
 7742W        W 9942   2.643   2.054  34.758  0.0781 -0.3937 -0.2626
 7743W        W 9943  21.400   2.853  35.238 -0.3348 -0.2490  0.2464
 7744W        W 9944  15.434   6.146   6.148 -0.2034 -0.0619  0.3468
 7745W        W 9945   9.441   3.684  11.189 -0.0761  0.0672 -0.0599
 7746W        W 9946   9.481   2.647   7.987 -0.1533 -0.0988  0.0639
 7747W        W 9947   4.553   5.783  11.868 -0.1468 -0.2939  0.0235
 7748W        W 9948   8.502   1.551  10.689  0.0192 -0.0543  0.2302
 7749W        W 9949   3.693   3.633  24.283  0.1395 -0.1564  0.2137
 7750W        W 9950  19.335   4.228   3.050 -0.0174 -0.5454 -0.1190
 7751W        W 9951  22.682   6.530  33.860 -0.1414 -0.1537 -0.0755
 7752W        W 9952  11.157   5.068  32.767 -0.0541  0.0472 -0.2115
 7753W        W 9953  19.119   1.771   4.043 -0.2840  0.0511  0.0486
 7754W        W 9954  18.902   5.034  34.920 -0.0121  0.1391 -0.0453
 7755W        W 9955  23.207   2.433  23.279 -0.2481  0.1763 -0.0586
 7756W        W 9956   5.350   4.623   1.852  0.1942  0.0404  0.0991
 7757W        W 9957   6.993   2.877  33.251  0.1202 -0.1184 -0.1351
 7758W        W 9958  15.657   3.955  29.403 -0.1624  0.0869 -0.0129
 7759W        W 9959   4.409   2.024  29.373  0.0720 -0.5482  0.1256
 7760W        W 9960  18.483   2.296  33.268  0.1093 -0.0525  0.0051
 7761W        W 9961  12.378   5.906  31.585 -0.0209  0.1861  0.1713
 7762W        W 9962  21.604   2.816  24.565  0.1578 -0.3631  0.1118
 7763W        W 9963  25.543   2.431  13.694 -0.0771  0.1987  0.0734
 7764W        W 9964  18.059   3.397   4.855 -0.1274 -0.2058  0.0184
 7765W        W 9965  22.586   3.896   2.732  0.3307  0.4393 -0.1873
 7766W        W 9966   5.772   3.764  14.196  0.1291  0.1000 -0.0056
 7767W        W 9967   0.166   4.249  32.754  0.2053  0.0061  0.0631
 7768W        W 9968   7.147   4.669   2.481  0.3259  0.2275 -0.1866
 7769W        W 9969  23.029   5.905  12.112 -0.0292  0.5078  0.0163
 7770W        W 9970   8.036   5.662  23.968  0.2603  0.0138  0.2247
 7771W        W 9971  20.669   5.489   2.367  0.1170 -0.0008 -0.1926
 7772W        W 9972  12.478   4.516  23.380  0.1183 -0.2472 -0.0697
 7773W        W 9973   3.828   2.789   6.741  0.0274 -0.3529  0.1321
 7774W        W 9974  15.236   5.503  33.880 -0.0865  0.1890  0.1554
 7775W        W 9975  25.706   2.964  12.728  0.0084 -0.0011  0.0919
 7776W        W 9976  15.865   3.611  14.571 -0.0398 -0.0676  0.0777
 7777W        W 9977  24.703   4.272  32.598  0.0477 -0.1586 -0.0469
 7778W        W 9978  14.335   4.249  21.218 -0.0343 -0.0827  0.0390
 7779W        W 9979   9.588   3.933  22.317 -0.1088  0.1648 -0.4227
 7780W        W 9980   9.413   2.204  24.671 -0.0753 -0.1396 -0.2481
 7781W        W 9981   4.438   4.754  21.781  0.1493  0.1690 -0.0352
 7782W        W 9982   8.461   0.742  21.855  0.0974  0.0728 -0.0810
 7783W        W 9983  20.694   4.565   1.157  0.0310  0.1076  0.4266
 7784W        W 9984   4.954   4.405  31.679  0.1086 -0.1831 -0.0444
 7785W        W 9985   8.737   0.005  34.933 -0.0444 -0.1925 -0.0215
 7786W        W 9986   5.437   1.303  11.597  0.1636 -0.0795  0.0920
 7787W        W 9987  14.888   0.218  14.511  0.2481 -0.1733  0.2465
 7788W        W 9988  17.938   3.411   2.130  0.1414  0.0941 -0.1668
 7789W        W 9989   8.290   5.929   2.928 -0.3211  0.0206 -0.1675
 7790W        W 9990  24.916   0.218  21.938  0.0899 -0.1932  0.1521
 7791W        W 9991  25.611   3.894   0.470 -0.0776  0.1984 -0.0597
 7792W        W 9992   8.258   0.309   7.575  0.1389 -0.1788  0.1460
 7793W        W 9993  22.550   4.299  24.144  0.5497 -0.1682 -0.1531
 7794W        W 9994  11.550   0.897   3.903  0.1055 -0.0792  0.1851
 7795W        W 9995   3.680   6.395   2.726 -0.1831 -0.2109 -0.2523
 7796W        W 9996  22.209   3.715  13.627 -0.2450  0.1331  0.0249
 7797W        W 9997  22.107   0.488  28.962 -0.0787 -0.0807 -0.0477
 7798W        W 9998   5.189   4.302  22.117 -0.1695 -0.1373 -0.2829
 7799W        W 9999  23.587   4.114   0.393  0.0148 -0.1527  0.0793
 7800W        W10000  23.803   6.389  28.384 -0.1302 -0.1977 -0.3319
 7801W        W10001  11.398   0.498   3.541  0.0257 -0.1732  0.2243
 7802W        W10002   9.066   3.372  15.904  0.1748  0.1265 -0.1109
 7803W        W10003   2.935   1.942   9.492  0.1081 -0.3212  0.2209
 7804W        W10004  20.258   2.739  31.510 -0.0104  0.0541  0.1222
 7805W        W10005  23.583   6.346   2.988  0.0973 -0.1670 -0.1487
 7806W        W10006   3.034   6.216  14.124  0.3807  0.0109 -0.1198
 7807W        W10007  12.865   2.597  28.887 -0.2275 -0.0641  0.0303
 7808W        W10008  11.690   1.677  13.108  0.1012  0.1936  0.1941
 7809W        W10009   2.703   2.299   2.729  0.0407  0.0477 -0.2090
 7810W        W10010   7.335   1.588   3.092  0.0805  0.1377 -0.0159
 7811W        W10011  15.588   5.097   8.052 -0.1283  0.0048 -0.2650
 7812W        W10012   2.855   0.332   5.560  0.2923 -0.2660 -0.0348
 7813W        W10013  19.403   0.924  21.653  0.0867  0.2049 -0.0631
 7814W        W10014  22.729   5.200  14.150 -0.2183 -0.0730 -0.1286
 7815W        W10015  25.058   4.528  11.090 -0.0799  0.0219  0.0256
 7816W        W10016  26.079   5.704  20.924 -0.1205 -0.0936  0.1553
 7817W        W10017   4.765   3.549  26.278  0.1205  0.0828  0.1049
 7818W        W10018  20.766   2.517   9.820  0.0608  0.2489  0.4765
 7819W        W10019  18.769   1.017   4.848  0.0161  0.1673  0.1699
 7820W        W10020   0.617   2.284   8.061 -0.3439  0.1842 -0.1857
 7821W        W10021  16.984   4.624   9.985  0.0926 -0.0492 -0.2264
 7822W        W10022   0.993   6.359  21.947 -0.0547  0.1902  0.1406
 7823W        W10023   4.050   4.036   3.699 -0.1526  0.1867 -0.2677
 7824W        W10024  10.146   3.382  25.937 -0.1306  0.3604  0.4037
 7825W        W10025  23.759   4.783  23.787 -0.0085  0.0074  0.1208
 7826W        W10026   4.673   3.561  31.108 -0.3326  0.1036 -0.1298
 7827W        W10027  23.887   5.131  11.107 -0.0433 -0.1566  0.0455
 7828W        W10028   8.590   0.842   5.984 -0.1116 -0.1566  0.0192
 7829W        W10029  21.123   2.573  22.891 -0.2718  0.2090 -0.2340
 7830W        W10030  17.539   0.944   4.250  0.0666 -0.2312  0.1050
 7831W        W10031  23.921   4.913  28.299  0.0011 -0.2531 -0.1728
 7832W        W10032  15.145   3.051  22.413 -0.0622  0.0342 -0.1686
 7833W        W10033  19.823   5.773  31.995 -0.0146  0.1698 -0.2192
 7834W        W10034  14.686   1.342   5.555 -0.1154 -0.1246 -0.0978
 7835W        W10035   3.308   6.459  25.419  0.0233  0.1803  0.3954
 7836W        W10036   4.212   5.324   1.719  0.1534  0.1278  0.2577
 7837W        W10037  11.689   6.060   6.845 -0.0826 -0.0657 -0.0945
 7838W        W10038   6.366   4.106   1.379 -0.1011  0.0976  0.0025
 7839W        W10039  14.586   5.969   3.182  0.0808  0.1356 -0.2284
 7840W        W10040   7.891   5.197   7.913 -0.2621 -0.0185  0.0088
 7841W        W10041   5.793   5.506  13.185  0.0614 -0.1385  0.3294
 7842W        W10042  13.496   1.347  33.633 -0.1880 -0.2858 -0.0018
 7843W        W10043  17.551   0.737  12.003  0.0905  0.1775  0.2539
 7844W        W10044   4.767   5.425  28.539 -0.1768  0.0321  0.2334
 7845W        W10045   3.677   5.986  10.180 -0.3343  0.1563  0.1639
 7846W        W10046  22.938   3.522  29.295  0.1128  0.0097  0.2582
 7847W        W10047  22.749   3.023   2.651 -0.0768 -0.1123  0.1375
 7848W        W10048  15.442   1.950  15.575 -0.1269 -0.1725  0.1088
 7849W        W10049   8.485   5.557   8.618 -0.2427  0.0499  0.0521
 7850W        W10050   1.441   5.627   6.720  0.0456  0.1338  0.0480
 7851W        W10051  13.548   1.676  21.594 -0.0486  0.0145  0.3880
 7852W        W10052   5.881   5.464  32.334 -0.0645  0.2191 -0.0619
 7853W        W10053  21.897   1.967  23.759  0.0561  0.0155  0.3235
 7854W        W10054  10.565   6.099  27.657  0.2882  0.0593 -0.1507
 7855W        W10055  18.279   6.379   1.190  0.3356 -0.2705 -0.3996
 7856W        W10056   7.262   1.399  28.469 -0.0933  0.0703  0.0731
 7857W        W10057  26.152   6.509  35.659  0.0659 -0.1015  0.0554
 7858W        W10058   3.340   4.980   0.962  0.0053 -0.1511  0.2027
 7859W        W10059   9.329   5.740  12.373 -0.1101 -0.2060 -0.2307
 7860W        W10060   0.788   5.447   5.115  0.1395  0.1054 -0.0786
 7861W        W10061  26.116   3.377  22.575  0.1477  0.2197  0.2784
 7862W        W10062   0.328   2.147   5.395 -0.0175 -0.1346  0.1720
 7863W        W10063  16.006   3.685  35.535 -0.0575 -0.0952 -0.1922
 7864W        W10064  21.964   4.257  14.374  0.2441  0.0273 -0.0432
 7865W        W10065  14.932   3.348  31.109 -0.0369  0.0500 -0.0687
 7866W        W10066  14.067   6.199   3.846  0.1223  0.0993 -0.1074
 7867W        W10067  18.059   4.441  30.750 -0.0179  0.0096  0.1529
 7868W        W10068  26.295   1.564  35.671  0.1896 -0.0166 -0.1992
 7869W        W10069  11.808   1.590  13.981 -0.0498 -0.0075  0.0977
 7870W        W10070  18.385   4.629   3.860 -0.1299 -0.0518  0.2412
 7871W        W10071   8.460   0.326  23.724  0.2992 -0.0783 -0.2074
 7872W        W10072  14.182   5.199  23.384  0.0438  0.1076 -0.0124
 7873W        W10073  19.189   3.602  28.171 -0.0762  0.0451  0.1050
 7874W        W10074  24.508   1.512   5.115 -0.1719 -0.3595  0.1460
 7875W        W10075   7.955   4.384   2.706 -0.4403  0.0985 -0.1786
 7876W        W10076  24.622   0.707   4.415 -0.0116 -0.0679  0.1804
 7877W        W10077   5.201   0.892  22.229 -0.1902 -0.1274  0.1895
 7878W        W10078  18.422   5.628  34.407 -0.3283 -0.0812  0.0210
 7879W        W10079  26.225   2.665   8.511  0.1959  0.2231  0.0796
 7880W        W10080  11.888   3.749  27.842 -0.0087 -0.2303  0.2592
 7881W        W10081  15.825   3.336   9.724 -0.2208  0.0744 -0.0413
 7882W        W10082   5.313   5.378  12.571 -0.2896 -0.2917  0.0594
 7883W        W10083   3.985   6.433  12.139 -0.1348 -0.2538  0.1991
 7884W        W10084   6.159   5.961   9.803 -0.4158 -0.1361  0.2228
 7885W        W10085  15.934   2.093  29.980  0.1203 -0.0592 -0.0338
 7886W        W10086   0.060   2.389   6.624  0.1284  0.0061  0.5699
 7887W        W10087  18.318   0.312  26.540 -0.1493  0.2998 -0.0781
 7888W        W10088   4.288   3.036   8.257 -0.1147  0.0136  0.0333
 7889W        W10089  16.613   4.097  14.300 -0.0333  0.0767  0.0089
 7890W        W10090  20.158   4.967  11.272 -0.1194  0.1368 -0.1487
 7891W        W10091  13.080   5.713  11.476  0.2958 -0.2270 -0.1210
 7892W        W10092  22.163   1.078   2.497 -0.1031 -0.0588 -0.3500
 7893W        W10093   7.699   1.973   1.284 -0.0814  0.1658  0.0246
 7894W        W10094   8.441   3.925  27.131 -0.0279  0.0552 -0.0491
 7895W        W10095   7.991   5.227  32.508 -0.3020 -0.0029  0.2184
 7896W        W10096  23.408   0.706  30.273  0.1786 -0.2058  0.3290
 7897W        W10097  16.789   1.526  34.187  0.0103 -0.1696 -0.0045
 7898W        W10098  24.172   1.263  31.357 -0.1785 -0.0650  0.4367
 7899W        W10099   6.186   0.706   8.624  0.2881  0.3295 -0.1717
 7900W        W10100  13.854   5.207  31.574  0.3510  0.1493  0.0710
 7901W        W10101  19.756   0.534  22.151  0.4354 -0.1803  0.1505
 7902W        W10102  11.291   2.758  21.087  0.1730  0.0388 -0.0367
 7903W        W10103  14.042   5.258  24.710 -0.0232  0.3132 -0.1823
 7904W        W10104   7.356   4.590   5.737 -0.0984 -0.1894  0.0624
 7905W        W10105  24.668   4.695  11.391  0.1110  0.3271 -0.1007
 7906W        W10106  10.606   5.181  25.072  0.1993  0.3180  0.1448
 7907W        W10107  16.678   4.163   1.165 -0.0391  0.1983  0.3390
 7908W        W10108  17.553   4.296  13.031  0.0951  0.0566 -0.3610
 7909W        W10109  11.321   0.675  29.669  0.3529 -0.2087  0.2540
 7910W        W10110  16.400   0.372  24.067 -0.2082 -0.1892 -0.1561
 7911W        W10111   3.381   2.047   0.584 -0.0697 -0.2506  0.4324
 7912W        W10112   0.451   0.265  26.132 -0.0330  0.3418  0.1958
 7913W        W10113  10.936   6.371   0.296 -0.0203 -0.2292 -0.0102
 7914W        W10114  17.310   2.123  32.470  0.0977 -0.0408 -0.1066
 7915W        W10115  11.632   4.124  24.958 -0.0346 -0.3504  0.0144
 7916W        W10116  24.218   5.662   0.421 -0.1832 -0.1956  0.1529
 7917W        W10117  20.121   0.873  35.111  0.0648 -0.1835  0.1152
 7918W        W10118  25.198   1.130  24.632 -0.0856 -0.0528 -0.0414
 7919W        W10119  20.332   5.307  35.071  0.1029  0.3597 -0.1172
 7920W        W10120  19.189   1.655  15.026 -0.1528  0.1338 -0.0339
 7921W        W10121  23.959   6.137   4.231 -0.1255  0.1985 -0.0447
 7922W        W10122   2.088   3.138  32.734  0.1794 -0.0604 -0.1539
 7923W        W10123  24.548   1.493  23.760 -0.1182 -0.0852  0.0549
 7924W        W10124  25.760   1.681  32.074  0.0739  0.0196  0.2512
 7925W        W10125  22.325   0.606  14.852  0.1344 -0.2485 -0.0132
 7926W        W10126  21.209   2.015  22.509 -0.3649  0.0436  0.3578
 7927W        W10127   9.428   1.248   2.840 -0.1953 -0.3255  0.0694
 7928W        W10128  16.499   2.774  23.314  0.1781  0.0695  0.0075
 7929W        W10129  17.362   3.617  20.790 -0.1147  0.1641 -0.1932
 7930W        W10130  15.098   2.951  31.413  0.1446  0.0299 -0.1164
 7931W        W10131  18.232   5.079  31.400  0.1124  0.0451  0.2881
 7932W        W10132  14.223   0.225  25.737 -0.0776  0.0344 -0.2099
 7933W        W10133  21.369   5.858   3.324  0.3286  0.1776 -0.0287
 7934W        W10134  17.453   5.184  24.792 -0.0306  0.1470  0.3807
 7935W        W10135  24.693   4.405  26.354  0.1465 -0.1907 -0.0408
 7936W        W10136   1.230   4.139  34.306  0.1948 -0.1823  0.0234
 7937W        W10137  12.042   1.333  15.202  0.2674  0.0562  0.1430
 7938W        W10138  25.596   1.796  21.099  0.2273  0.0151  0.0929
 7939W        W10139  18.051   0.767  34.023 -0.0853  0.0382  0.0523
 7940W        W10140  22.697   1.650  22.752  0.1210  0.0780 -0.0545
 7941W        W10141   2.123   3.275  31.646 -0.4166  0.3293  0.0201
 7942W        W10142   1.580   5.597  35.445 -0.2800  0.1494 -0.4129
 7943W        W10143  23.829   3.715   8.035 -0.2040  0.1302 -0.1745
 7944W        W10144   7.611   2.927  27.745  0.0570 -0.0446  0.1372
 7945W        W10145  12.089   4.615  23.073 -0.2489  0.1708 -0.0560
 7946W        W10146  10.606   6.237  24.886  0.2716  0.0738 -0.0321
 7947W        W10147   6.062   4.442  33.197 -0.0544  0.0852 -0.2718
 7948W        W10148  18.122   3.515  14.726 -0.1109  0.0552  0.1318
 7949W        W10149  11.725   6.392   7.415  0.2985  0.0817 -0.0412
 7950W        W10150  14.550   3.831  32.961  0.1292 -0.1618  0.3474
 7951W        W10151  18.803   1.851  15.329 -0.0275 -0.2493  0.0613
 7952W        W10152  14.246   4.221  33.045 -0.2666  0.1451  0.0386
 7953W        W10153  11.081   0.306  13.576 -0.1225  0.0538  0.1103
 7954W        W10154  16.447   2.037   6.970 -0.1296 -0.1034  0.1293
 7955W        W10155  12.165   6.568  22.315 -0.2431  0.3099  0.1159
 7956W        W10156  10.670   0.789   7.149  0.1345  0.1235  0.3692
 7957W        W10157  18.145   2.676  20.783  0.0450 -0.1706  0.1564
 7958W        W10158   3.714   5.200   9.146 -0.0271  0.0914  0.1628
 7959W        W10159   8.308   5.406  12.279  0.0871  0.0739  0.1420
 7960W        W10160  15.827   4.236   6.907  0.0406  0.0020  0.0782
 7961W        W10161  24.809   2.518  10.316 -0.1011 -0.0155 -0.0525
 7962W        W10162  17.925   5.798  23.518  0.1405  0.4420  0.0575
 7963W        W10163  24.344   3.772  28.637 -0.0388  0.1583 -0.1217
 7964W        W10164   0.709   6.482  26.987  0.4470  0.1994  0.0330
 7965W        W10165  19.094   3.781  27.406 -0.0814  0.0213 -0.3264
 7966W        W10166   5.962   5.569  22.396 -0.0446 -0.1142  0.1269
 7967W        W10167  12.188   1.510   6.580  0.1995 -0.1535  0.0934
 7968W        W10168  17.381   4.943   7.763  0.1336 -0.1098  0.1472
 7969W        W10169  15.662   1.264  10.889  0.1080 -0.1606 -0.1285
 7970W        W10170  11.019   2.425  35.057 -0.0989 -0.1968 -0.0359
 7971W        W10171   1.391   2.666   2.271  0.1384 -0.0247 -0.0883
 7972W        W10172  11.564   4.631   9.167  0.0435  0.0994  0.0220
 7973W        W10173  13.097   1.306  33.917  0.0055 -0.0245 -0.0726
 7974W        W10174  20.021   0.942  29.527  0.1847  0.1387 -0.2706
 7975W        W10175  19.724   2.438  12.522 -0.0672 -0.1027 -0.0495
 7976W        W10176   7.925   3.060  32.190 -0.1102 -0.2135 -0.3495
 7977W        W10177   0.077   0.715  13.933  0.2933 -0.0479 -0.0553
 7978W        W10178   9.628   3.235   8.983 -0.0273  0.0574  0.2521
 7979W        W10179  15.210   5.691  27.399 -0.0809 -0.1298  0.0872
 7980W        W10180  25.972   2.916   9.916  0.0033  0.0321 -0.0466
 7981W        W10181   1.385   0.344  12.569  0.1359 -0.0253 -0.3218
 7982W        W10182  22.342   6.116  22.027  0.0960  0.2544 -0.2230
 7983W        W10183  18.479   5.993  25.090 -0.0178 -0.1215  0.1402
 7984W        W10184   4.858   4.240  11.785 -0.2366 -0.1760  0.0331
 7985W        W10185  22.418   4.717   1.832  0.1546 -0.1668  0.2376
 7986W        W10186   6.028   1.904   4.242 -0.0304  0.2804 -0.2392
 7987W        W10187  19.646   5.560   6.028 -0.3945  0.0422 -0.0987
 7988W        W10188   1.658   0.063  25.012 -0.4126 -0.0816 -0.1281
 7989W        W10189   3.900   6.526   1.686  0.0763 -0.0260  0.3497
 7990W        W10190  16.324   1.587  33.955 -0.0429 -0.0547 -0.1395
 7991W        W10191   6.179   0.818   7.644  0.0324 -0.0841  0.0582
 7992W        W10192   2.012   3.848   4.164  0.1974  0.2262  0.0922
 7993W        W10193  15.672   2.898  29.455 -0.1538  0.2041  0.1614
 7994W        W10194   6.096   1.035  21.495  0.0653 -0.4130  0.0461
 7995W        W10195  22.059   6.456  21.039 -0.1946  0.1368  0.0528
 7996W        W10196  20.180   4.319   5.765  0.0638  0.1568  0.0765
 7997W        W10197  24.437   1.006   6.927 -0.0865 -0.2438 -0.1808
 7998W        W10198   8.567   1.892   3.852 -0.3625  0.3858 -0.2527
 7999W        W10199  16.511   4.018   8.162  0.0687 -0.2317  0.0343
 8000W        W10200  18.598   4.222   7.743 -0.0279 -0.0445  0.0162
 8001W        W10201  23.136   4.972  29.365  0.2282  0.0584  0.1156
 8002W        W10202   8.071   3.119  11.018 -0.2098 -0.1839 -0.0773
 8003W        W10203  23.754   6.340   0.061  0.0501 -0.0259  0.1856
 8004W        W10204  25.951   1.877  28.210 -0.3558 -0.0699  0.0356
 8005W        W10205  26.340   1.608  23.578 -0.0862  0.1458 -0.2248
 8006W        W10206  15.512   3.962   7.190 -0.0462  0.0710 -0.1729
 8007W        W10207   4.950   6.418  22.182 -0.1846 -0.1341 -0.2923
 8008W        W10208   7.301   0.682   6.746 -0.0934 -0.0598  0.0833
 8009W        W10209  12.472   4.036  14.058  0.1234 -0.0672 -0.0889
 8010W        W10210   9.199   1.551  35.894  0.2467 -0.1487 -0.0190
 8011W        W10211  13.999   1.246  24.495 -0.1388 -0.0044 -0.0381
 8012W        W10212   1.258   6.235  31.415 -0.2980  0.1714 -0.0327
 8013W        W10213   8.276   0.949  12.994 -0.1173  0.0043 -0.0941
 8014W        W10214  19.545   6.521  22.876  0.1565  0.0812 -0.1189
 8015W        W10215  23.326   5.647   1.017 -0.0296 -0.1103 -0.0570
 8016W        W10216  24.120   4.174  23.957 -0.0281  0.0073  0.3338
 8017W        W10217  16.514   0.610  10.982 -0.1702 -0.3994  0.1186
 8018W        W10218  23.403   5.073  11.265  0.1076 -0.2077 -0.1701
 8019W        W10219   0.740   3.844  21.850  0.1811  0.0099  0.4359
 8020W        W10220   2.859   1.293  29.676  0.0615 -0.0851  0.0205
 8021W        W10221  20.099   6.223  33.431 -0.0846 -0.0946 -0.4241
 8022W        W10222  10.944   1.203  33.570  0.2447 -0.1817 -0.0780
 8023W        W10223   1.409   3.846  27.352  0.1597  0.1085  0.1824
 8024W        W10224  21.241   6.455   2.179 -0.0162  0.0234 -0.3044
 8025W        W10225  14.484   4.037  23.555 -0.1874 -0.0576 -0.0061
 8026W        W10226   7.194   6.300   9.014 -0.3460  0.0928 -0.2245
 8027W        W10227  15.450   6.481  29.444 -0.0083  0.2451 -0.0181
 8028W        W10228   8.202   2.309  30.510  0.1734  0.0902 -0.1077
 8029W        W10229  14.224   0.482  29.521 -0.0712  0.2147  0.0892
 8030W        W10230   8.769   2.351   4.016 -0.0360  0.0719 -0.0193
 8031W        W10231  11.917   6.209  14.707  0.3286  0.0037 -0.1224
 8032W        W10232  12.837   1.022  31.042  0.0282  0.0162 -0.0150
 8033W        W10233  24.811   3.225   1.430 -0.1906 -0.1356 -0.0163
 8034W        W10234  10.678   4.889  11.588  0.2368  0.0641  0.0753
 8035W        W10235   5.977   1.909  28.165 -0.2231 -0.0340 -0.2640
 8036W        W10236  10.727   4.211  10.730  0.2016 -0.1847 -0.3513
 8037W        W10237  19.927   2.980   5.005 -0.1255  0.3231  0.3229
 8038W        W10238  23.952   4.387  29.968 -0.2925  0.0886  0.0505
 8039W        W10239   9.854   1.598  27.773 -0.3778  0.3314 -0.0894
 8040W        W10240   1.930   3.670   6.543  0.1397  0.1474  0.2884
 8041W        W10241  23.294   0.525  13.705 -0.0131  0.3164  0.1955
 8042W        W10242   9.600   2.994  10.772  0.0786  0.1285  0.0801
 8043W        W10243  11.793   2.906  26.641  0.1799 -0.0610 -0.2256
 8044W        W10244   7.372   5.306   7.819  0.2665  0.2086  0.1271
 8045W        W10245  22.670   5.705   4.055 -0.1629 -0.1917 -0.1333
 8046W        W10246  12.098   5.778  35.678 -0.0975  0.0654 -0.0499
 8047W        W10247  23.427   2.877  22.746 -0.0645  0.2578  0.0500
 8048W        W10248  20.771   3.082  31.148 -0.0730  0.1003  0.0588
 8049W        W10249   1.035   6.560  30.090  0.0957  0.0082  0.2335
 8050W        W10250  25.326   4.064  10.475 -0.1157  0.0849 -0.1990
 8051W        W10251  20.325   4.772  31.549 -0.1830 -0.1366  0.0172
 8052W        W10252   6.781   5.135  24.318  0.0993 -0.0648 -0.0317
 8053W        W10253   9.236   5.681  23.449  0.1136 -0.2794  0.0172
 8054W        W10254  22.654   6.587  34.901 -0.1802 -0.1382 -0.2063
 8055W        W10255  13.486   2.423  24.047  0.0883  0.1262  0.2025
 8056W        W10256   5.349   0.043   7.799  0.0346  0.2763 -0.0736
 8057W        W10257  20.341   6.229  29.369 -0.1402  0.2799 -0.1921
 8058W        W10258  16.862   1.756   4.548 -0.3156  0.1576  0.1659
 8059W        W10259   4.877   1.147   1.321 -0.0465  0.1703 -0.2785
 8060W        W10260  14.898   6.271   2.475 -0.0249  0.1711 -0.0721
 8061W        W10261  13.770   1.114  10.046  0.0994  0.2020  0.0614
 8062W        W10262  19.481   5.539  35.200  0.3642  0.0178 -0.1072
 8063W        W10263  18.858   3.084  10.881 -0.1127  0.0112  0.3274
 8064W        W10264  12.144   5.740  24.615 -0.0315 -0.1093 -0.0851
 8065W        W10265   6.350   4.784   0.209  0.2313 -0.0159 -0.1281
 8066W        W10266  11.299   2.722  10.398 -0.2001  0.2308  0.0200
 8067W        W10267   2.762   4.486  32.246 -0.0535  0.1027  0.0375
 8068W        W10268  12.582   1.603  30.032  0.1098  0.2682  0.2479
 8069W        W10269  23.275   0.278   1.462 -0.4237  0.2229 -0.0275
 8070W        W10270   0.642   4.223  13.358  0.1140 -0.3423 -0.1675
 8071W        W10271  15.147   4.144  21.653 -0.0799 -0.2658 -0.0058
 8072W        W10272  15.509   6.595  36.049  0.0685 -0.2547 -0.3124
 8073W        W10273   9.462   2.923  30.609  0.2066 -0.0614 -0.2196
 8074W        W10274   9.595   6.533  28.329 -0.0074 -0.2198 -0.1683
 8075W        W10275  15.907   2.474   3.836 -0.0981 -0.1935 -0.3995
 8076W        W10276  12.827   1.577  35.627 -0.0767 -0.1156 -0.1670
 8077W        W10277   5.658   2.193   5.024 -0.1223  0.2681  0.0454
 8078W        W10278  17.934   4.002   3.318 -0.0544 -0.0482 -0.0039
 8079W        W10279  18.926   1.723  13.989 -0.1396 -0.2693  0.3088
 8080W        W10280  14.378   3.268   7.694 -0.1400 -0.3590 -0.0328
 8081W        W10281   7.071   0.058  24.106  0.1003  0.2235 -0.3214
 8082W        W10282   2.631   1.410  24.305  0.0974  0.0199 -0.0223
 8083W        W10283   8.702   3.879  29.981 -0.2501  0.0450  0.1532
 8084W        W10284   3.100   4.004  30.813 -0.1620 -0.0624 -0.0013
 8085W        W10285  24.372   4.634   3.640 -0.1976  0.0777 -0.3761
 8086W        W10286  19.686   6.230  30.181 -0.1042  0.2143  0.3054
 8087W        W10287   7.469   0.377  13.181  0.2128 -0.3925 -0.0727
 8088W        W10288  13.659   1.866   3.091 -0.3202  0.1269 -0.0306
 8089W        W10289  10.150   1.887  24.745  0.3794 -0.0447  0.0298
 8090W        W10290  16.289   1.561  12.046  0.1554 -0.1692 -0.0602
 8091W        W10291   7.685   3.679  31.695  0.0704 -0.0637  0.0385
 8092W        W10292  23.585   2.615  29.762  0.1227 -0.1134 -0.0213
 8093W        W10293   4.938   0.846  35.786  0.0631  0.2376 -0.1711
 8094W        W10294   1.814   1.544  29.887 -0.1722  0.1296  0.3217
 8095W        W10295  20.600   5.810   2.788  0.2710  0.3322 -0.0744
 8096W        W10296   0.801   1.123   5.218  0.2035 -0.1299 -0.1267
 8097W        W10297  14.725   3.780   2.878  0.0105 -0.0380  0.0407
 8098W        W10298  17.719   4.373  29.132 -0.2746 -0.1917  0.0916
 8099W        W10299   9.450   2.414  20.719  0.2001  0.1150  0.2280
 8100W        W10300   3.337   1.086  13.528  0.3266  0.1557 -0.0420
 8101W        W10301   9.538   6.556   7.149  0.1233 -0.1848  0.0681
 8102W        W10302   0.117   0.818  15.118  0.1264  0.1908  0.0033
 8103W        W10303  25.463   4.435  31.090  0.0941  0.0484 -0.1166
 8104W        W10304  13.328   5.932   3.489  0.0563 -0.1325  0.0889
 8105W        W10305  12.983   1.947   8.912  0.0986 -0.2191 -0.1201
 8106W        W10306  23.825   2.355  13.379 -0.3618  0.1285 -0.1710
 8107W        W10307  19.195   4.768  24.683 -0.1188  0.1133 -0.3596
 8108W        W10308   7.499   6.087  30.626  0.2803  0.2059 -0.1445
 8109W        W10309   2.330   4.040   3.849 -0.1339 -0.1370 -0.1059
 8110W        W10310   1.900   6.365  26.590 -0.0766  0.1165  0.0188
 8111W        W10311   0.132   6.433  21.943 -0.0854 -0.0972  0.3487
 8112W        W10312  11.061   1.059  26.513  0.2952 -0.3243 -0.4073
 8113W        W10313  17.283   5.560  26.908 -0.0393 -0.0911  0.2228
 8114W        W10314  12.842   0.660  26.831  0.1495  0.0944 -0.1586
 8115W        W10315  24.071   1.816  29.403 -0.0808  0.0834  0.2932
 8116W        W10316   2.964   4.625  26.315  0.3154 -0.2488  0.1340
 8117W        W10317  17.779   4.912  30.844 -0.3078  0.0071  0.0330
 8118W        W10318  21.903   3.584  23.450 -0.0818  0.0227 -0.1118
 8119W        W10319   1.280   6.085   8.922 -0.1158  0.1889 -0.1679
 8120W        W10320   8.968   6.071  30.402 -0.2317  0.1264  0.1176
 8121W        W10321   8.845   1.593  28.983  0.0112  0.1174  0.0533
 8122W        W10322  23.794   4.256   3.912  0.3830 -0.1046  0.1879
 8123W        W10323  20.451   3.947  28.710 -0.0802 -0.0161 -0.2212
 8124W        W10324  19.426   1.395  21.900 -0.2886  0.0335 -0.5153
 8125W        W10325   6.632   4.874  28.106 -0.0456  0.1739  0.0259
 8126W        W10326  20.965   1.359   2.000  0.0775 -0.1442 -0.0803
 8127W        W10327  13.736   3.320  28.303 -0.2168  0.1609 -0.0229
 8128W        W10328  17.940   3.327  25.921 -0.1423  0.0476  0.0752
 8129W        W10329   3.662   4.686   9.376  0.2970  0.1906 -0.1148
 8130W        W10330  16.057   2.045  25.407 -0.1280 -0.1836 -0.1858
 8131W        W10331  25.454   4.178  34.439  0.3272  0.1043  0.0823
 8132W        W10332   1.388   6.460  21.529 -0.1047 -0.0610 -0.1407
 8133W        W10333  25.584   5.613  10.527  0.0798  0.1231 -0.0293
 8134W        W10334   9.464   0.405  30.096 -0.0000 -0.1084  0.0088
 8135W        W10335   7.029   4.054   3.624 -0.1315 -0.1946 -0.1296
 8136W        W10336   0.609   2.829  36.128  0.4043 -0.0981  0.0340
 8137W        W10337   3.508   4.346  29.871 -0.1409  0.0150  0.0154
 8138W        W10338  15.343   4.499   2.419 -0.1517  0.3087  0.2044
 8139W        W10339   3.739   5.090  35.585  0.3577  0.0316  0.2005
 8140W        W10340  13.392   2.284   6.462 -0.1315  0.0940  0.0317
 8141W        W10341  10.950   3.531  24.771 -0.3922  0.2634 -0.0585
 8142W        W10342  18.918   1.371   4.310 -0.1373  0.1264 -0.0763
 8143W        W10343   1.470   3.126  32.063 -0.0570  0.0065 -0.1937
 8144W        W10344   6.219   5.083  34.944 -0.0397 -0.0426 -0.1013
 8145W        W10345  25.968   1.189  27.046 -0.3288 -0.4464  0.0506
 8146W        W10346  15.627   5.471  24.434 -0.0232  0.0300 -0.0605
 8147W        W10347  12.199   3.558   7.797 -0.0357  0.0184  0.1898
 8148W        W10348  25.400   3.356  13.903 -0.2466 -0.3136 -0.3266
 8149W        W10349  24.510   6.489   8.404  0.1154 -0.0662  0.1981
 8150W        W10350   3.163   1.897  23.857 -0.2557  0.1206  0.1579
 8151W        W10351  24.985   5.779  27.414 -0.0024  0.0354 -0.2233
 8152W        W10352  23.079   1.933  35.597 -0.1837  0.1205  0.0422
 8153W        W10353  25.872   1.844   6.401 -0.2315 -0.0029  0.0038
 8154W        W10354  18.847   2.599  28.340  0.0219  0.2936  0.3605
 8155W        W10355   4.613   3.532   9.884 -0.1531  0.3056  0.0087
 8156W        W10356   1.547   6.556  30.936 -0.2278 -0.3412  0.3581
 8157W        W10357   3.803   4.085  11.791 -0.0004 -0.0123 -0.0348
 8158W        W10358   9.004   0.721  21.006  0.1194  0.0913 -0.3318
 8159W        W10359  14.738   6.503  29.112  0.1131 -0.0106  0.0200
 8160W        W10360  10.674   1.003   0.364 -0.1218 -0.0344  0.1286
 8161W        W10361   3.841   2.053  23.397 -0.1686 -0.3540  0.2320
 8162W        W10362   7.390   0.263  20.333  0.1842  0.1719  0.2645
 8163W        W10363   1.115   3.869   8.962 -0.1588  0.0288  0.3564
 8164W        W10364  23.769   1.883  29.045 -0.0623 -0.1310 -0.1661
 8165W        W10365  18.669   2.336   1.502 -0.4467  0.1395  0.0659
 8166W        W10366   4.208   1.426   7.291 -0.0587  0.3014  0.0487
 8167W        W10367  13.969   4.995   6.715  0.0955 -0.0130  0.1260
 8168W        W10368  13.699   4.661  22.928  0.0285 -0.2446 -0.1933
 8169W        W10369   9.063   4.404  32.456  0.1196 -0.2495  0.3402
 8170W        W10370   7.721   5.290   7.441 -0.0486 -0.0003  0.3665
 8171W        W10371  12.639   6.595  15.048 -0.0892 -0.0581  0.0589
 8172W        W10372  15.995   5.797  13.039  0.2214 -0.1289 -0.2180
 8173W        W10373  10.608   0.033  29.194 -0.1161 -0.0926  0.0175
 8174W        W10374  16.592   5.993  29.549  0.1578 -0.0186 -0.0921
 8175W        W10375   1.047   5.497  34.802  0.0195 -0.0507 -0.1646
 8176W        W10376   5.497   6.120  24.387 -0.0860 -0.0934  0.0127
 8177W        W10377   0.942   4.297   0.877  0.0286 -0.0298 -0.1793
 8178W        W10378   3.793   4.384  30.524 -0.1574 -0.1324  0.0857
 8179W        W10379  11.167   0.967  35.866 -0.4227 -0.3972  0.1458
 8180W        W10380  17.806   0.104  27.119  0.0062 -0.0361 -0.1798
 8181W        W10381  18.587   4.462   4.257  0.0677  0.0893 -0.0237
 8182W        W10382  11.793   3.158   6.167  0.1243 -0.2484 -0.1610
 8183W        W10383   8.121   0.066  28.529  0.1390  0.0840 -0.0005
 8184W        W10384   0.228   0.429   7.774  0.0839  0.3844  0.0331
 8185W        W10385  17.827   3.093   9.262  0.0446  0.1917  0.0856
 8186W        W10386   9.994   1.596  29.243  0.0386 -0.2565  0.2446
 8187W        W10387   9.155   5.443  30.462  0.2021 -0.3562 -0.2384
 8188W        W10388  10.892   5.318   2.158 -0.3045  0.0752  0.0240
 8189W        W10389  10.217   0.137  32.332 -0.0200 -0.0251 -0.2309
 8190W        W10390  25.856   4.140   0.895 -0.0826 -0.2502  0.1181
 8191W        W10391  16.177   4.520   3.783 -0.0959  0.0624 -0.0640
 8192W        W10392   0.748   4.249  11.170  0.1961 -0.1501  0.0596
 8193W        W10393  23.307   0.700   8.267 -0.0808  0.0093 -0.1933
 8194W        W10394  10.072   2.559   6.215  0.1446  0.0120 -0.2387
 8195W        W10395  20.221   1.575  27.117  0.0167 -0.1179 -0.4242
 8196W        W10396  26.178   1.047   4.895 -0.3294  0.0499  0.0050
 8197W        W10397   3.441   0.340   7.098  0.1513  0.2830 -0.1988
 8198W        W10398  21.457   3.713  12.699  0.1903  0.1086  0.1544
 8199W        W10399  12.988   4.853   0.374  0.1737  0.1888  0.0695
 8200W        W10400   1.699   3.821  30.905  0.0250  0.2607 -0.4870
 8201W        W10401   4.245   0.288  30.533 -0.1509 -0.0733 -0.0813
 8202W        W10402  12.249   5.874  34.324  0.0564 -0.2957  0.1147
 8203W        W10403  17.518   4.842   0.318 -0.3157  0.1599 -0.0797
 8204W        W10404   9.721   2.800  29.680 -0.0552  0.0044 -0.0537
 8205W        W10405  14.586   2.241  11.976  0.1907  0.1464 -0.0417
 8206W        W10406  18.998   3.967  27.913  0.0671 -0.1391 -0.2046
 8207W        W10407  25.048   5.775  35.810 -0.2533 -0.1863 -0.4182
 8208W        W10408  10.984   3.180  31.968 -0.1602 -0.3600  0.1939
 8209W        W10409  18.601   6.337  22.057 -0.0951 -0.0504 -0.1182
 8210W        W10410  25.015   0.704  32.823 -0.1749  0.1798 -0.1745
 8211W        W10411  19.553   0.081  29.968 -0.0015  0.0374  0.2091
 8212W        W10412  21.404   3.317   8.704  0.1463  0.1195 -0.1622
 8213W        W10413  22.259   1.195  20.585  0.1125 -0.0929 -0.0889
 8214W        W10414  26.372   3.098  35.357 -0.0681  0.3997  0.0946
 8215W        W10415  25.965   6.569  12.971  0.2741 -0.1719 -0.2610
 8216W        W10416   7.949   5.687   2.133  0.1647 -0.1281 -0.0523
 8217W        W10417  15.907   2.857  13.395 -0.1813 -0.0669  0.1839
 8218W        W10418  19.382   1.907   5.652 -0.1587  0.1214 -0.2166
 8219W        W10419  11.057   2.735  23.523 -0.1793 -0.0902  0.1164
 8220W        W10420   3.465   5.588   9.402  0.2619 -0.1349  0.2637
 8221W        W10421  26.214   1.793   5.563 -0.1548  0.1899  0.0394
 8222W        W10422   6.704   6.561  15.588  0.3394  0.0530 -0.0672
 8223W        W10423   0.790   4.840   6.056  0.3642 -0.2673  0.0297
 8224W        W10424   6.634   1.680   0.363 -0.0668  0.2917 -0.3679
 8225W        W10425  24.446   6.192   7.895  0.0232  0.2525 -0.2141
 8226W        W10426   1.987   2.460  27.186 -0.1632 -0.0850  0.1568
 8227W        W10427  21.516   6.013  11.754  0.2897  0.1750  0.0230
 8228W        W10428   3.618   3.161  24.540 -0.1673  0.3565 -0.1112
 8229W        W10429   1.984   2.144   6.746 -0.1663  0.5080 -0.3445
 8230W        W10430  25.212   1.161   8.138 -0.0302  0.0688 -0.0232
 8231W        W10431   8.741   1.733   4.322  0.1762 -0.0232 -0.0129
 8232W        W10432   5.139   0.354  31.300  0.3151  0.0571  0.1639
 8233W        W10433  22.141   5.468   3.834 -0.1148  0.1910 -0.3137
 8234W        W10434  10.527   6.182  13.413  0.1262 -0.3252  0.1806
 8235W        W10435  11.967   4.666   3.990 -0.2293 -0.2969 -0.1020
 8236W        W10436  24.957   1.910  27.625  0.2141 -0.1357  0.0321
 8237W        W10437   8.862   1.695   9.775  0.0594 -0.0019 -0.0501
 8238W        W10438  25.634   1.946  28.807  0.1881 -0.0426 -0.2458
 8239W        W10439   0.879   2.384   5.962  0.0383  0.0037 -0.0354
 8240W        W10440  16.838   5.437   6.209 -0.0587  0.1588  0.0347
 8241W        W10441  23.268   4.801   3.309 -0.0558 -0.0375  0.0963
 8242W        W10442  25.500   5.220  35.727 -0.0338  0.0426  0.1689
 8243W        W10443  17.996   1.501  10.379  0.2264  0.0697  0.2180
 8244W        W10444  13.848   3.535   3.159  0.0415 -0.1412 -0.0835
 8245W        W10445  16.613   4.677  20.474  0.1470  0.1344 -0.2477
 8246W        W10446  19.131   2.125  24.200 -0.0607 -0.1284  0.0617
 8247W        W10447  10.657   3.471  21.954  0.0993  0.0439  0.1384
 8248W        W10448  20.722   1.029  35.163  0.0139  0.1818 -0.0157
 8249W        W10449   9.891   1.482   4.152 -0.1426 -0.4201 -0.1055
 8250W        W10450  19.733   1.974   5.314  0.0296 -0.0937  0.2400
 8251W        W10451   9.039   2.943   1.971  0.5388 -0.1767 -0.0670
 8252W        W10452  12.769   4.849   3.894  0.2088  0.0417  0.1151
 8253W        W10453  21.095   5.658  10.731 -0.0842 -0.0023 -0.3680
 8254W        W10454   2.120   5.801  29.938  0.2660 -0.1360 -0.1999
 8255W        W10455   5.221   1.614  21.823  0.1140  0.0615  0.0351
 8256W        W10456   1.075   2.263  20.769  0.0306 -0.1924 -0.1437
 8257W        W10457  20.725   2.753   1.361 -0.5484  0.0638 -0.0551
 8258W        W10458  11.746   3.608   9.991 -0.1205 -0.1131  0.0810
 8259W        W10459   7.062   2.655  13.175 -0.2677 -0.0265 -0.2396
 8260W        W10460  13.180   6.200  22.618 -0.0954 -0.1455  0.0064
 8261W        W10461  15.192   6.215  28.128 -0.0206  0.1749  0.3800
 8262W        W10462  22.683   2.029  20.816  0.1250 -0.0301  0.1038
 8263W        W10463  21.376   6.149  26.865 -0.0588  0.0023  0.0184
 8264W        W10464  10.728   1.269  28.672 -0.2146  0.2277  0.1255
 8265W        W10465  22.614   6.002   5.587  0.0037  0.1127 -0.5117
 8266W        W10466   9.187   6.231  22.462 -0.1904  0.1615 -0.2135
 8267W        W10467  18.335   6.447  26.581  0.0049  0.0331  0.2114
 8268W        W10468  15.427   5.773   3.401  0.0016 -0.0964 -0.1051
 8269W        W10469  15.417   2.263  13.935 -0.1136  0.1606  0.0826
 8270W        W10470   2.487   3.962  32.878  0.0927 -0.4011  0.1735
 8271W        W10471   6.682   0.946  31.232  0.0167 -0.0146 -0.2796
 8272W        W10472  21.391   1.663  11.894  0.0649  0.2989 -0.0010
 8273W        W10473  11.570   6.190  21.641  0.2494  0.1014  0.0018
 8274W        W10474  24.256   4.489  22.812 -0.1474 -0.1429 -0.1463
 8275W        W10475  10.069   1.020   1.398  0.1002  0.1625 -0.1748
 8276W        W10476  20.317   2.809  34.803 -0.0168 -0.2928 -0.1932
 8277W        W10477  15.130   4.103   5.763 -0.1886  0.2621 -0.4774
 8278W        W10478  26.220   5.126   1.710 -0.0053 -0.0121  0.0963
 8279W        W10479  16.657   1.263  21.288 -0.0562  0.0209  0.0678
 8280W        W10480  15.272   3.893  12.813  0.0906  0.1453  0.2425
 8281W        W10481   5.230   3.465  36.093  0.0952  0.5339 -0.1985
 8282W        W10482  25.917   4.352  32.025 -0.0122  0.2241  0.0033
 8283W        W10483   5.854   2.164   3.739 -0.0032  0.0435 -0.0501
 8284W        W10484  22.588   4.238  29.897 -0.1385 -0.1340  0.3870
 8285W        W10485  23.443   1.418   1.645  0.2130 -0.0206  0.0806
 8286W        W10486  20.586   1.130   7.859  0.3891  0.0139 -0.3252
 8287W        W10487   0.318   2.274  26.251  0.0676 -0.1469  0.1381
 8288W        W10488  19.173   5.939  21.672  0.2680  0.0581 -0.0504
 8289W        W10489  12.139   0.792   3.067  0.0860  0.0872  0.1988
 8290W        W10490  16.586   1.681  27.385 -0.0227 -0.1833 -0.1132
 8291W        W10491  15.796   3.911  20.830 -0.1484  0.1218  0.0859
 8292W        W10492  20.912   2.402   4.738 -0.0923  0.0268 -0.2527
 8293W        W10493  24.794   0.980  32.386 -0.1316 -0.0252 -0.2712
 8294W        W10494   6.476   4.574  12.543  0.1318 -0.0366 -0.0309
 8295W        W10495   0.108   2.634   3.568  0.1901 -0.1208  0.0507
 8296W        W10496   7.561   3.569  36.083  0.0975  0.0801 -0.0584
 8297W        W10497  15.464   0.671  34.488  0.0739 -0.1502 -0.2735
 8298W        W10498  25.482   1.462   5.060 -0.0607 -0.1123  0.0569
 8299W        W10499  11.195   5.683  13.913  0.0753  0.0399  0.1328
 8300W        W10500   7.592   0.641  34.340  0.0640 -0.0949  0.2097
 8301W        W10501   5.975   1.517  23.302  0.1528 -0.0353  0.1084
 8302W        W10502   0.743   6.112  20.748 -0.1108  0.3784  0.2244
 8303W        W10503  25.779   4.335   5.222  0.0515  0.2427  0.0869
 8304W        W10504   5.505   6.515  29.731  0.1240 -0.0850 -0.1081
 8305W        W10505  25.499   0.699  28.729  0.0626 -0.2921  0.0144
 8306W        W10506   7.335   6.601  15.493 -0.0811 -0.0929 -0.1585
 8307W        W10507   1.939   5.383   9.228 -0.1917  0.0737  0.0989
 8308W        W10508  18.303   0.066  31.396 -0.0248  0.1212 -0.0777
 8309W        W10509  23.101   0.334  22.835 -0.2608 -0.0954  0.1969
 8310W        W10510  16.265   2.385  35.690  0.1445 -0.1329  0.0960
 8311W        W10511  15.157   5.135  31.396 -0.1119  0.0568  0.0516
 8312W        W10512  26.249   3.809   3.636 -0.1394 -0.1568 -0.0656
 8313W        W10513  22.297   1.809  11.277 -0.1171 -0.1009  0.1287
 8314W        W10514  24.755   6.141  12.118 -0.0048  0.0267  0.2062
 8315W        W10515   5.026   6.093  31.935 -0.1504 -0.1086 -0.1070
 8316W        W10516  12.777   1.727  34.437  0.1035 -0.0728 -0.1146
 8317W        W10517  21.438   4.577   7.910  0.4698  0.0651  0.0257
 8318W        W10518  18.447   4.025  21.492  0.2727 -0.2496  0.0864
 8319W        W10519  20.562   6.264  15.153 -0.0757 -0.0713  0.3996
 8320W        W10520  25.256   1.904  11.472 -0.2223  0.1051  0.0247
 8321W        W10521  24.369   3.787  23.672 -0.0591  0.2031 -0.2494
 8322W        W10522  21.536   5.512   8.082  0.1967 -0.1067 -0.0342
 8323W        W10523  21.429   6.392   9.585  0.0033 -0.1318 -0.3514
 8324W        W10524  22.714   2.477  27.033 -0.2089  0.0263 -0.0306
 8325W        W10525  14.251   4.883  12.832 -0.1044  0.2214 -0.0319
 8326W        W10526  10.036   3.329   2.915  0.0004 -0.1678  0.4428
 8327W        W10527  25.037   3.803  28.990  0.3439  0.2309  0.1869
 8328W        W10528  17.282   4.976  10.809  0.0639  0.2621 -0.1357
 8329W        W10529   4.217   5.473  20.667  0.1935 -0.4039  0.2180
 8330W        W10530  24.636   4.193  28.342  0.2389  0.1080 -0.3572
 8331W        W10531  12.465   4.015  27.497 -0.4877 -0.0721 -0.1102
 8332W        W10532   7.860   2.978  29.783 -0.0544  0.0957  0.0950
 8333W        W10533  11.222   0.406  25.923  0.2051  0.2358 -0.1743
 8334W        W10534  10.792   3.020  13.941 -0.1513 -0.1520  0.1688
 8335W        W10535  17.172   0.424  31.186  0.0049 -0.3504  0.2640
 8336W        W10536   7.470   3.254  28.737  0.0224 -0.0106  0.0633
 8337W        W10537  20.834   2.463  11.640  0.0339 -0.0080 -0.2060
 8338W        W10538  17.181   2.164  29.432 -0.0315  0.0969  0.2578
 8339W        W10539  24.008   5.654  25.909 -0.2158  0.1471 -0.3613
 8340W        W10540  10.672   4.546   8.560  0.2126 -0.0788  0.2742
 8341W        W10541  22.424   5.745   7.587  0.5148 -0.1108 -0.1660
 8342W        W10542   7.894   2.493  12.845 -0.0925  0.0770  0.0214
 8343W        W10543   7.459   0.365   6.361  0.2836  0.2795 -0.0296
 8344W        W10544   3.024   3.604   7.447 -0.1541 -0.2026  0.2288
 8345W        W10545   0.365   0.840   0.187  0.0138 -0.1334 -0.2530
 8346W        W10546   9.531   0.299   2.985  0.0349  0.1600 -0.1268
 8347W        W10547  10.568   0.881  26.404  0.1487 -0.1237  0.0083
 8348W        W10548  15.695   0.654  11.635  0.5098 -0.5361 -0.0427
 8349W        W10549  22.842   2.589  32.379 -0.2042 -0.0337  0.1077
 8350W        W10550  13.728   3.996  33.749  0.1413 -0.0427 -0.1219
 8351W        W10551   5.533   1.052  11.195 -0.2384 -0.0837  0.2405
 8352W        W10552  11.182   3.388  22.044 -0.3150  0.2077  0.3960
 8353W        W10553   2.527   5.681  14.464  0.2898 -0.3849  0.0819
 8354W        W10554  17.874   3.904   2.818  0.0257 -0.1224  0.2349
 8355W        W10555   1.546   3.327   6.509  0.1302 -0.1104 -0.0220
 8356W        W10556   6.842   4.592  12.914 -0.2038 -0.1211  0.0155
 8357W        W10557   1.579   4.869   3.852 -0.0696 -0.0874  0.0819
 8358W        W10558   7.548   0.849  35.399  0.0320  0.3301  0.1318
 8359W        W10559  18.363   4.862  22.416 -0.2107  0.2768  0.2091
 8360W        W10560  22.946   4.005   5.889 -0.3624 -0.1175  0.2036
 8361W        W10561  23.756   5.559  22.152  0.2150  0.3195  0.2039
 8362W        W10562   9.910   3.749   2.585 -0.0910 -0.0290 -0.0363
 8363W        W10563  22.534   1.984  10.535 -0.0320 -0.1976 -0.1655
 8364W        W10564   9.346   2.356  14.245  0.2721  0.3636 -0.1619
 8365W        W10565   9.862   3.741  29.528  0.1027  0.0415  0.0073
 8366W        W10566  13.789   2.136  29.097 -0.1787  0.1079  0.0303
 8367W        W10567  24.098   1.767   6.055 -0.2345  0.1887 -0.1860
 8368W        W10568   3.157   4.460  34.983 -0.4032 -0.0571 -0.1340
 8369W        W10569   1.907   2.325   3.533  0.0742  0.1859 -0.2074
 8370W        W10570  19.583   2.051   7.013  0.1220  0.0666  0.2656
 8371W        W10571  25.228   6.428  23.118  0.5869 -0.0957  0.4004
 8372W        W10572   6.636   1.619  14.769  0.1067 -0.1313 -0.0532
 8373W        W10573  17.311   0.324  26.688 -0.2671  0.0418 -0.2376
 8374W        W10574   0.166   2.497   2.221 -0.0248 -0.3729  0.0086
 8375W        W10575  24.919   3.309  12.813  0.0645  0.0369  0.1370
 8376W        W10576  24.785   0.080   9.455  0.3429  0.2586 -0.1280
 8377W        W10577  15.035   0.163  25.086  0.2333 -0.3280  0.0582
 8378W        W10578   8.997   4.440   7.069  0.2363 -0.1124 -0.0629
 8379W        W10579   4.852   5.510  35.715  0.4030  0.0213  0.1843
 8380W        W10580  22.628   0.998   1.421  0.0549 -0.2515 -0.0190
 8381W        W10581  14.159   4.760  35.012 -0.3004 -0.0612  0.2598
 8382W        W10582   2.978   6.265  32.505  0.2453  0.0270  0.2081
 8383W        W10583   0.347   2.095  26.795 -0.1225  0.1834  0.0695
 8384W        W10584   4.154   3.291  27.825 -0.4249  0.1165 -0.3608
 8385W        W10585   2.644   1.880  29.813 -0.0489  0.4553  0.0796
 8386W        W10586  20.295   2.139   6.842  0.0680  0.2253 -0.2031
 8387W        W10587  18.365   1.666   8.633 -0.1537 -0.0704 -0.3154
 8388W        W10588   2.645   6.154  29.729 -0.0282 -0.0093  0.0130
 8389W        W10589  20.286   1.522  11.231  0.0307 -0.1850 -0.0918
 8390W        W10590   6.820   1.666   2.943 -0.1020 -0.2896 -0.1187
 8391W        W10591   8.899   0.562  11.541 -0.1477  0.1193 -0.3293
 8392W        W10592  25.822   4.861  33.402 -0.0485  0.2120 -0.1748
 8393W        W10593   1.682   6.150  31.155  0.0628  0.1156 -0.0775
 8394W        W10594  16.335   3.825  20.858 -0.1208 -0.1359  0.0267
 8395W        W10595  10.261   6.475  13.870  0.0340 -0.0662 -0.1611
 8396W        W10596  23.604   0.885   0.372 -0.2721 -0.1307 -0.0614
 8397W        W10597  15.655   6.422  26.517 -0.1607 -0.2676 -0.1110
 8398W        W10598  24.530   1.408  32.579 -0.1685 -0.0781  0.1367
 8399W        W10599  13.175   5.197  36.183  0.2989 -0.0156  0.1958
 8400W        W10600  13.325   6.138  10.225  0.1647  0.0333  0.2258
 8401W        W10601  20.156   2.253  12.512 -0.0923 -0.0758 -0.1128
 8402W        W10602   9.675   0.948  13.392  0.2878  0.2548  0.0924
 8403W        W10603  18.920   3.922   8.594 -0.1694  0.2292  0.1858
 8404W        W10604  25.198   2.139  25.721 -0.0103 -0.2519 -0.1536
 8405W        W10605  12.274   0.456  34.485 -0.2683 -0.1979  0.3989
 8406W        W10606   4.964   3.302  11.455  0.1791 -0.1457  0.2160
 8407W        W10607   8.528   3.507  13.203  0.2540  0.0544  0.2030
 8408W        W10608  20.294   6.184  13.858  0.2497 -0.0751 -0.0657
 8409W        W10609   3.922   0.985   5.695  0.1926 -0.0313 -0.0326
 8410W        W10610  21.367   4.859   9.561 -0.1911 -0.1991 -0.0122
 8411W        W10611   7.941   1.766   8.847 -0.0658  0.4535  0.1413
 8412W        W10612   5.753   2.353  28.423 -0.3548  0.2617  0.2455
 8413W        W10613   9.739   0.161  15.156 -0.2790 -0.1030  0.2793
 8414W        W10614  14.799   6.266  11.062  0.0710 -0.0159 -0.2205
 8415W        W10615  17.800   3.990  34.419 -0.0651  0.1080 -0.2325
 8416W        W10616  19.739   2.156   1.145  0.1464 -0.1550  0.0604
 8417W        W10617   5.629   3.994  25.457  0.1679 -0.1627  0.0529
 8418W        W10618  19.717   4.309  33.107  0.2150 -0.0745  0.2071
 8419W        W10619   5.564   0.196   8.866 -0.2069  0.1334 -0.2682
 8420W        W10620  15.112   6.114   3.130 -0.1549  0.2315 -0.1685
 8421W        W10621   7.027   0.853  14.543  0.4251 -0.0617  0.0744
 8422W        W10622  15.624   1.969  10.625 -0.0590 -0.2657  0.0710
 8423W        W10623  23.996   3.967   4.407 -0.0643 -0.0969  0.0243
 8424W        W10624  20.795   1.578   7.801 -0.1291  0.1161 -0.0084
 8425W        W10625   4.409   4.364   5.004  0.2583  0.0839 -0.0557
 8426W        W10626  11.748   1.974   8.945 -0.0484 -0.1684  0.2286
 8427W        W10627   3.709   0.866  13.230 -0.2087  0.1687 -0.2441
 8428W        W10628   0.429   3.279  13.609 -0.0221  0.2331 -0.0795
 8429W        W10629  26.187   4.060  31.536  0.0469 -0.1153  0.1630
 8430W        W10630  11.746   5.638   5.487  0.2968  0.0508  0.4068
 8431W        W10631  11.733   4.490  14.971 -0.1018 -0.0559  0.1496
 8432W        W10632  16.145   4.970   1.709  0.0501 -0.0036 -0.4470
 8433W        W10633  11.706   0.726   8.021 -0.0342  0.1223  0.1151
 8434W        W10634  24.012   4.798  35.857 -0.0990 -0.0659 -0.1546
 8435W        W10635  20.711   5.906  29.055 -0.0008  0.2799 -0.2769
 8436W        W10636  25.258   5.355  10.136  0.1084  0.2704 -0.1727
 8437W        W10637   3.902   6.349  11.623 -0.1048 -0.1117 -0.1542
 8438W        W10638  19.980   4.767   9.254 -0.1006 -0.0717 -0.3343
 8439W        W10639   9.312   3.967   3.619 -0.1303  0.1456 -0.0129
 8440W        W10640  25.319   2.438  34.426 -0.0993 -0.2663 -0.0157
 8441W        W10641   9.351   0.249   8.048  0.0056  0.0011 -0.3039
 8442W        W10642  22.635   2.018  24.110 -0.1555  0.1135 -0.0829
 8443W        W10643  15.744   3.600   2.826  0.3187  0.0113  0.1238
 8444W        W10644  22.661   5.758  26.810  0.0337 -0.2092  0.0765
 8445W        W10645   8.809   3.975   0.702 -0.0258  0.1742  0.2802
 8446W        W10646   1.537   2.430  27.015  0.0510 -0.1921  0.1723
 8447W        W10647  22.436   6.111   1.736 -0.1943 -0.0066  0.0203
 8448W        W10648  12.364   3.424   5.147  0.0469  0.0542 -0.3366
 8449W        W10649  14.261   3.791  31.300 -0.0662  0.0269  0.1800
 8450W        W10650  22.184   2.755  30.119  0.0394  0.1538  0.2153
 8451W        W10651  20.455   1.239  23.487 -0.0803  0.0853  0.0313
 8452W        W10652  21.872   1.885  30.281 -0.0614  0.1699 -0.1930
 8453W        W10653  22.557   2.359  30.311  0.0924  0.0144  0.0093
 8454W        W10654  14.473   4.518  26.322 -0.1562  0.3850  0.0452
 8455W        W10655   0.312   0.039   7.189 -0.3323 -0.0863 -0.2089
 8456W        W10656   1.985   5.232   1.046  0.1448  0.0315 -0.2201
 8457W        W10657  22.818   4.307   1.666  0.1445 -0.3240  0.0424
 8458W        W10658  22.505   6.092  31.536  0.0736 -0.0199 -0.0776
 8459W        W10659  15.083   0.276  28.237 -0.0340 -0.0458  0.1475
 8460W        W10660   5.035   2.711  23.968 -0.1052 -0.0684 -0.2497
 8461W        W10661  23.945   5.123  24.790  0.0759 -0.1547 -0.0672
 8462W        W10662  23.401   5.860  13.481  0.0373  0.2658 -0.1864
 8463W        W10663  13.699   0.162   4.540 -0.1917  0.1932  0.1397
 8464W        W10664   4.085   1.540   4.823 -0.0437 -0.1364 -0.0200
 8465W        W10665  19.134   0.110  12.210  0.0119 -0.5313 -0.0516
 8466W        W10666  11.806   5.713  30.921  0.1442  0.1933  0.4027
 8467W        W10667  24.686   2.887   4.127  0.0495 -0.1906 -0.0023
 8468W        W10668   7.098   2.865  35.787 -0.0800  0.1977 -0.2147
 8469W        W10669   0.432   3.499  30.345  0.0553  0.1508  0.2604
 8470W        W10670  20.930   0.098   5.155 -0.1445 -0.2753  0.1105
 8471W        W10671  23.891   5.409  33.594  0.1008  0.0069  0.2527
 8472W        W10672   4.543   2.642   1.758 -0.1777 -0.0091 -0.1902
 8473W        W10673  25.286   3.055  28.301  0.0886 -0.2004 -0.0041
 8474W        W10674  19.466   1.384   0.113  0.2383 -0.0103  0.0830
 8475W        W10675  22.338   4.692  28.401  0.2188 -0.2570  0.1648
 8476W        W10676   5.233   4.151   8.953  0.1354 -0.0983 -0.0598
 8477W        W10677  16.266   1.084  30.211  0.1050 -0.0776  0.1602
 8478W        W10678  25.495   5.924  23.395 -0.2077 -0.1539 -0.2896
 8479W        W10679  12.980   5.914  24.085  0.1090  0.0320  0.0300
 8480W        W10680  10.396   4.423   2.545  0.0756  0.0371 -0.2739
 8481W        W10681  14.920   4.971  15.460  0.0852  0.0229 -0.0133
 8482W        W10682  20.560   3.029  30.370 -0.1819 -0.2101 -0.0855
 8483W        W10683   5.526   6.517   9.344 -0.1029  0.1229 -0.2469
 8484W        W10684   5.725   6.304  35.566 -0.1616  0.2580  0.1405
 8485W        W10685   5.544   1.211   5.383  0.0875  0.1116  0.1441
 8486W        W10686  13.383   6.554   5.370  0.0094 -0.1072  0.0435
 8487W        W10687  21.863   6.311  28.508 -0.0741 -0.0911 -0.2176
 8488W        W10688  22.296   4.686  31.461 -0.0354  0.1761 -0.0702
 8489W        W10689  20.176   3.111  28.806 -0.1508  0.1831 -0.0471
 8490W        W10690  25.677   5.416  29.243 -0.2060  0.0321  0.0704
 8491W        W10691  26.095   1.883  34.160 -0.2473 -0.1089  0.1386
 8492W        W10692   7.389   0.456  28.813  0.1855  0.1890 -0.0082
 8493W        W10693   7.067   0.178  14.869  0.1267 -0.1373  0.1028
 8494W        W10694  14.916   2.452   7.927  0.1240  0.0390  0.1258
 8495W        W10695  23.758   0.137  21.790  0.0190 -0.1643 -0.0167
 8496W        W10696  24.564   4.046  27.437 -0.2152  0.1770  0.0240
 8497W        W10697  22.195   2.626  31.029  0.2120  0.2342  0.0361
 8498W        W10698  12.217   0.113   5.116  0.0111 -0.0522  0.2577
 8499W        W10699  20.079   3.800  21.267  0.0732  0.2953  0.3981
 8500W        W10700   3.416   0.929  20.480  0.0340  0.4448 -0.0349
 8501W        W10701   9.490   0.324  14.692  0.2346  0.1651 -0.0027
 8502W        W10702   6.168   0.315  34.145  0.3692 -0.0569 -0.0649
 8503W        W10703  10.206   5.760  26.829 -0.1981  0.1730 -0.1198
 8504W        W10704   3.086   3.365   5.551 -0.3304 -0.0550  0.1248
 8505W        W10705  13.164   3.418  30.933  0.1929  0.3846 -0.1045
 8506W        W10706  12.421   0.195  27.753  0.2261 -0.2848 -0.0839
 8507W        W10707   4.341   5.124  28.307 -0.1529 -0.0088 -0.2369
 8508W        W10708  18.439   0.107  32.779 -0.3340  0.1392 -0.1261
 8509W        W10709   2.227   4.094  34.367 -0.0912 -0.0755 -0.1320
 8510W        W10710   5.691   3.303  13.644 -0.0105 -0.0208 -0.3191
 8511W        W10711  25.116   5.795   7.219 -0.2275  0.1966 -0.0756
 8512W        W10712   3.805   2.893   8.227 -0.0476 -0.0659  0.4822
 8513W        W10713  22.258   0.217  11.007 -0.0404 -0.2216 -0.3091
 8514W        W10714   6.931   4.970   5.555  0.0887 -0.1426 -0.1892
 8515W        W10715   6.153   1.364   1.702  0.1828 -0.1160  0.1110
 8516W        W10716  13.874   5.306  21.912 -0.3589 -0.1191 -0.0531
 8517W        W10717   6.544   0.811   3.944  0.0335  0.1152  0.0801
 8518W        W10718  15.189   5.256  29.536  0.2571 -0.1938 -0.2528
 8519W        W10719   6.404   0.333  22.580 -0.1629  0.2522 -0.0966
 8520W        W10720  10.471   5.751  27.320 -0.0557 -0.2511  0.1736
 8521W        W10721  26.083   0.781   0.479 -0.2528 -0.0710  0.0269
 8522W        W10722  24.984   2.875   9.066 -0.1340  0.0221 -0.3506
 8523W        W10723   4.644   4.158  28.779  0.2654 -0.0117 -0.1906
 8524W        W10724   5.697   5.931  30.675  0.2681  0.2166 -0.2028
 8525W        W10725  10.918   4.904  32.331 -0.1724  0.1494  0.0625
 8526W        W10726  22.504   2.493  13.809 -0.0138  0.1512  0.1978
 8527W        W10727  18.250   2.521  34.558 -0.2114  0.1543  0.3037
 8528W        W10728  24.274   3.188  22.956 -0.0008 -0.0223  0.0769
 8529W        W10729   1.195   1.834  32.383  0.1135 -0.1311  0.1313
 8530W        W10730  17.608   5.452  13.323 -0.2128  0.1326  0.0206
 8531W        W10731  23.606   2.792  29.284 -0.0504  0.0311 -0.2960
 8532W        W10732   0.907   0.077   3.217  0.1443  0.3628  0.2715
 8533W        W10733   4.124   1.918  31.816 -0.0913 -0.1093 -0.3205
 8534W        W10734  19.533   4.579  30.148 -0.0288 -0.1126 -0.1614
 8535W        W10735  23.294   6.026   9.142  0.1066 -0.2134  0.4174
 8536W        W10736  25.057   2.131  26.652  0.0285 -0.0829 -0.0537
 8537W        W10737   2.018   5.008   8.583  0.0456  0.1912 -0.1410
 8538W        W10738  17.133   6.138  10.013 -0.2102  0.0902 -0.1554
 8539W        W10739   9.194   3.192  26.975 -0.1579  0.0726 -0.3106
 8540W        W10740  15.442   1.518   9.470 -0.0492 -0.0245 -0.0779
 8541W        W10741   1.017   0.029  12.690  0.1729 -0.3598 -0.0743
 8542W        W10742  19.068   0.792  26.836  0.0958 -0.0714  0.0361
 8543W        W10743  17.513   2.003   0.917 -0.2576  0.2940  0.1860
 8544W        W10744  23.567   2.831  10.994 -0.1068 -0.2464 -0.1109
 8545W        W10745  13.342   6.320  32.468 -0.7012  0.0459 -0.0285
 8546W        W10746  15.033   0.594  20.240 -0.3640  0.2424 -0.0285
 8547W        W10747   3.665   5.983  25.993 -0.1519 -0.2844  0.1266
 8548W        W10748  26.313   4.600  14.432 -0.0774 -0.0633 -0.3544
 8549W        W10749  11.664   0.987  25.337  0.2075  0.2155 -0.1768
 8550W        W10750   6.114   3.826  25.758  0.0126  0.1538 -0.0319
 8551W        W10751  20.207   6.250  26.779 -0.0783  0.3146 -0.0519
 8552W        W10752  22.803   4.186  27.886  0.2728  0.1291 -0.0686
 8553W        W10753  24.654   5.358  35.564  0.0965  0.2894 -0.0140
 8554W        W10754  10.741   3.878   6.329  0.1512  0.1647  0.1147
 8555W        W10755   4.996   3.880   7.116  0.1701  0.2929  0.0913
 8556W        W10756  20.500   6.245  26.359 -0.0279 -0.0106  0.0309
 8557W        W10757   2.677   0.491   3.193 -0.0049 -0.1765  0.1381
 8558W        W10758  19.667   0.223   8.521  0.0661  0.0850 -0.0096
 8559W        W10759  10.768   1.976   5.715  0.0273 -0.0073 -0.1920
 8560W        W10760  14.379   0.752  30.394  0.3443  0.2100  0.0394
 8561W        W10761   6.787   1.649  10.087 -0.2044 -0.1924  0.1340
 8562W        W10762   0.219   5.035   4.971  0.0632 -0.0417 -0.1084
 8563W        W10763  25.088   6.403   7.012 -0.0474 -0.1315  0.1138
 8564W        W10764   7.373   3.827  23.361 -0.1558  0.1025 -0.2210
 8565W        W10765  24.097   5.676  25.432  0.1984 -0.1180 -0.0904
 8566W        W10766  10.810   6.063  10.389 -0.0560  0.0319 -0.0351
 8567W        W10767   0.278   3.121  35.884  0.0926 -0.1465  0.0817
 8568W        W10768   4.162   1.495  27.891 -0.0870  0.0623 -0.0049
 8569W        W10769  23.673   0.128  26.013  0.1962  0.1772 -0.3257
 8570W        W10770   8.079   1.114  10.176 -0.0191 -0.2805  0.1993
 8571W        W10771   4.605   5.938  11.361  0.0141 -0.0556 -0.2424
 8572W        W10772  17.667   4.262  13.546 -0.0218 -0.0386  0.0317
 8573W        W10773  14.161   1.617   6.723 -0.1582 -0.1070  0.2512
 8574W        W10774  22.922   6.352  31.429  0.0251 -0.1663  0.0265
 8575W        W10775  15.082   1.972   3.259 -0.1800  0.1837 -0.0913
 8576W        W10776   6.623   3.413  32.585  0.0890 -0.0685  0.3202
 8577W        W10777  23.821   2.356  10.947  0.2658  0.0571 -0.2073
 8578W        W10778   5.692   0.624  29.208 -0.0756  0.0652 -0.3167
 8579W        W10779  13.323   4.061  34.035 -0.0015  0.0344 -0.0175
 8580W        W10780   7.505   5.548  25.196 -0.1927 -0.1910 -0.1332
 8581W        W10781  14.712   0.176  25.999  0.1525 -0.0656 -0.3078
 8582W        W10782  17.958   0.163  33.918  0.1696  0.0120  0.0055
 8583W        W10783  23.291   5.026   0.199  0.0117  0.3090 -0.1167
 8584W        W10784  26.364   4.623  35.253  0.2822 -0.3554 -0.1011
 8585W        W10785  13.967   2.725  32.915  0.1239  0.0767 -0.0068
 8586W        W10786   0.536   3.132   1.123  0.0957  0.1895 -0.2517
 8587W        W10787  12.987   5.206  33.519  0.0625 -0.0865  0.1070
 8588W        W10788   1.615   5.022  26.708  0.2263  0.1210  0.2250
 8589W        W10789  12.953   6.290   5.460  0.1597 -0.0004 -0.0741
 8590W        W10790  20.723   3.920   4.126  0.4092  0.0477  0.0086
 8591W        W10791  12.379   1.886   0.808 -0.1591 -0.1029 -0.3129
 8592W        W10792  20.856   6.539   1.281 -0.3491 -0.1487  0.2171
 8593W        W10793  24.635   0.393  28.760 -0.1555 -0.0950  0.1654
 8594W        W10794  13.158   1.986  21.209  0.0428 -0.1652 -0.2113
 8595W        W10795   0.348   4.864   0.371  0.0312  0.0393  0.4062
 8596W        W10796   9.023   4.751  31.061 -0.1174 -0.2014  0.1881
 8597W        W10797  10.039   6.035  21.368 -0.0187 -0.0969 -0.0437
 8598W        W10798  22.347   5.423  20.739  0.0014  0.0492 -0.0061
 8599W        W10799  19.052   0.138  29.948  0.1046 -0.0377 -0.2953
 8600W        W10800  17.051   4.916  31.520 -0.1621  0.0476 -0.1174
 8601W        W10801  26.354   4.461   7.282 -0.3064 -0.0605  0.0489
 8602W        W10802   7.300   5.857   6.340  0.1564 -0.0839  0.0692
 8603W        W10803   0.792   0.232  32.768 -0.0816  0.2849 -0.1820
 8604W        W10804  23.318   2.626   0.558 -0.0595 -0.0530  0.2194
 8605W        W10805  16.941   5.584   3.605  0.0133 -0.2396 -0.0002
 8606W        W10806   6.978   5.543   6.853  0.2325  0.0089  0.0407
 8607W        W10807  14.404   4.866  25.861 -0.0728  0.1568 -0.1330
 8608W        W10808   1.102   2.624  19.867 -0.2362 -0.1509 -0.1006
 8609W        W10809  22.453   6.499   6.425 -0.4187  0.1019 -0.0681
 8610W        W10810  19.792   1.313  21.533 -0.0716 -0.0288  0.0282
 8611W        W10811  23.567   6.026   1.321  0.0633 -0.1582 -0.1159
 8612W        W10812   6.248   2.357  11.641  0.2343 -0.0224  0.1250
 8613W        W10813   7.448   4.386  30.717 -0.0598  0.1417  0.1741
 8614W        W10814   0.775   3.508  26.411  0.2887  0.1033  0.1687
 8615W        W10815   4.531   0.116  28.061  0.2819 -0.0215 -0.1674
 8616W        W10816  24.812   0.032   3.953 -0.0471 -0.0565  0.2310
 8617W        W10817  23.733   0.254   9.622 -0.0088  0.2158  0.0382
 8618W        W10818  16.754   1.188  31.331  0.1126 -0.3613  0.0838
 8619W        W10819  18.422   4.372   2.276  0.0281 -0.1672 -0.0128
 8620W        W10820  10.719   1.414  26.683  0.1228 -0.3010 -0.1363
 8621W        W10821  19.989   0.644  20.783 -0.2764  0.3714  0.1170
 8622W        W10822   1.575   1.392  12.436 -0.1897 -0.1971 -0.1406
 8623W        W10823  25.556   1.969  12.586  0.2573 -0.0067  0.0171
 8624W        W10824  18.563   5.958  31.677 -0.1507 -0.0246  0.3934
 8625W        W10825  11.471   0.807  28.617  0.1599  0.0645 -0.1416
 8626W        W10826   5.792   4.008  30.317 -0.3634 -0.0049  0.0843
 8627W        W10827  16.392   3.727  26.849  0.3414 -0.3791  0.0152
 8628W        W10828  26.143   6.349  20.999 -0.4358  0.1629  0.0987
 8629W        W10829  20.928   0.791   5.440 -0.2496 -0.0008 -0.0451
 8630W        W10830  15.925   2.141  12.002 -0.0846 -0.0600 -0.1665
 8631W        W10831   5.153   3.334  32.986 -0.0355  0.1137 -0.1843
 8632W        W10832  24.467   3.944  31.624 -0.1865  0.0549 -0.1127
 8633W        W10833   6.520   3.856  10.837  0.2777  0.0916  0.1192
 8634W        W10834   0.591   2.255  35.429  0.2001 -0.1332  0.0540
 8635W        W10835  18.485   3.997  21.996 -0.0786  0.2043  0.0863
 8636W        W10836   6.546   0.254   6.441 -0.3575  0.1188 -0.3260
 8637W        W10837  19.925   2.699  13.806  0.1464  0.0080 -0.0346
 8638W        W10838  20.847   0.222   0.352  0.1460  0.2904  0.0308
 8639W        W10839  24.672   3.361   5.387  0.0239 -0.1177 -0.1493
 8640W        W10840   0.388   2.538  14.403 -0.0525  0.0158 -0.3622
 8641W        W10841   2.562   2.507   0.296 -0.3000  0.3182 -0.1064
 8642W        W10842   5.635   6.399   3.306  0.2090 -0.1277  0.2169
 8643W        W10843   1.150   0.397  29.997  0.1114 -0.0096  0.1396
 8644W        W10844  23.823   5.847  31.724 -0.2450 -0.2272  0.1312
 8645W        W10845  16.302   4.665  30.465  0.0856 -0.1159  0.1825
 8646W        W10846  10.239   4.544   8.870  0.0959  0.1219  0.0779
 8647W        W10847  13.876   0.591  23.308  0.0858  0.0983 -0.2121
 8648W        W10848  25.238   1.547   2.119  0.1326 -0.2883  0.2507
 8649W        W10849  10.175   2.188  12.299  0.0644 -0.2680  0.1715
 8650W        W10850  24.375   5.761  13.871 -0.1063  0.1044  0.0938
 8651W        W10851  14.147   3.920   8.343  0.2109 -0.1078 -0.1771
 8652W        W10852   3.059   0.185  15.052 -0.0409  0.3425 -0.1568
 8653W        W10853  17.360   0.539   4.527  0.1159  0.1853 -0.2216
 8654W        W10854   0.411   2.218  20.821 -0.2018  0.2296  0.1734
 8655W        W10855   0.294   3.678   8.410 -0.2091  0.1911 -0.0999
 8656W        W10856   7.859   2.577  14.372  0.4074 -0.2281 -0.1319
 8657W        W10857  24.836   4.857   8.034  0.2505 -0.1855 -0.1159
 8658W        W10858  19.561   4.448  20.967  0.0232 -0.2012  0.1141
 8659W        W10859  22.385   5.926  14.740  0.2140  0.0704  0.0137
 8660W        W10860   3.382   3.215  33.245  0.2244 -0.0890 -0.0573
 8661W        W10861  19.323   1.643  27.451 -0.0014 -0.2250  0.0639
 8662W        W10862   5.575   3.236  32.127  0.0380 -0.1871 -0.2757
 8663W        W10863  12.526   3.011  25.173 -0.3034  0.0999 -0.0945
 8664W        W10864  20.199   0.095  12.960 -0.0820  0.1900 -0.1592
 8665W        W10865   6.104   4.854  12.342  0.1585 -0.0702 -0.0030
 8666W        W10866   6.382   2.536   9.896 -0.2578  0.1585 -0.1492
 8667W        W10867   4.489   3.880  13.977 -0.1743 -0.1076 -0.4847
 8668W        W10868  17.385   6.363   0.110 -0.1365 -0.1413  0.0465
 8669W        W10869  13.226   0.620  33.115 -0.1391 -0.3339 -0.2909
 8670W        W10870   9.783   6.422  14.197  0.1154 -0.1213 -0.1660
 8671W        W10871  16.502   2.976  24.188  0.0455  0.0550  0.1646
 8672W        W10872  19.122   3.786  14.340  0.1112 -0.1562  0.0154
 8673W        W10873   8.679   3.636  30.458 -0.2106  0.1269 -0.1194
 8674W        W10874   9.385   2.496  27.641  0.0134  0.2479 -0.0377
 8675W        W10875  10.985   5.403  32.402  0.4052 -0.0144 -0.2850
 8676W        W10876   2.935   1.988  29.434 -0.1939 -0.1365 -0.0701
 8677W        W10877   3.752   2.284   9.378  0.0390  0.0722 -0.0220
 8678W        W10878  22.408   3.173   3.305 -0.2276  0.1185 -0.2250
 8679W        W10879  13.390   0.820  33.829  0.3038 -0.0516  0.0943
 8680W        W10880   2.618   6.235  14.426  0.0645 -0.1724  0.2056
 8681W        W10881   2.546   4.492   3.998 -0.1975 -0.0592  0.0158
 8682W        W10882  22.308   5.908  26.451 -0.0311  0.0828 -0.0481
 8683W        W10883  10.090   1.016  13.835 -0.3630 -0.1958 -0.1148
 8684W        W10884  25.786   5.845  27.179 -0.0450  0.1750 -0.3356
 8685W        W10885   3.377   1.664   3.860 -0.2024  0.0185  0.1372
 8686W        W10886   1.233   4.069  23.819 -0.2155 -0.0353 -0.2784
 8687W        W10887   4.374   2.411  31.312 -0.0605  0.1850 -0.1546
 8688W        W10888   4.476   6.605  25.312 -0.2336 -0.0165 -0.1931
 8689W        W10889  11.184   1.415   7.009 -0.2056  0.0942  0.0474
 8690W        W10890   8.611   3.778   8.703 -0.0435 -0.0873  0.2129
 8691W        W10891   6.909   1.354   6.262 -0.1543  0.0589 -0.0071
 8692W        W10892  11.225   4.569   1.027 -0.3284  0.3532  0.1548
 8693W        W10893   2.304   4.228  22.420  0.0287 -0.1214 -0.1364
 8694W        W10894   0.709   5.928  30.251 -0.2209  0.2103 -0.1187
 8695W        W10895   2.834   5.907   2.589  0.1031  0.0056  0.2790
 8696W        W10896  16.257   5.391  13.852  0.0836 -0.1712 -0.0753
 8697W        W10897  22.123   6.108   0.988  0.1523 -0.0591  0.0438
 8698W        W10898  14.292   2.100  24.218 -0.0441  0.0145  0.1837
 8699W        W10899  19.016   1.447  30.766  0.2187 -0.1526 -0.0491
 8700W        W10900  11.493   0.402   0.528  0.0590 -0.1891 -0.0074
 8701W        W10901  16.868   4.331  15.205 -0.3480 -0.2601 -0.1539
 8702W        W10902   0.730   5.315  10.506  0.0014 -0.0441  0.0511
 8703W        W10903  10.754   3.028   0.007 -0.1751 -0.1248  0.1691
 8704W        W10904  11.017   5.568   0.865  0.0751 -0.0911  0.4189
 8705W        W10905   9.804   2.471  21.069 -0.2695 -0.0979  0.0598
 8706W        W10906  22.958   1.903  13.212 -0.1636  0.1004  0.1138
 8707W        W10907  17.243   0.403   6.982  0.2708 -0.1133  0.0743
 8708W        W10908   9.592   4.693   7.432  0.0495 -0.1404 -0.2815
 8709W        W10909  17.189   0.781  13.237  0.2139  0.1556 -0.0854
 8710W        W10910   5.692   3.429  14.520  0.1562  0.0797  0.0766
 8711W        W10911  10.023   5.076  10.672 -0.0929 -0.2841  0.0181
 8712W        W10912   4.282   4.880  33.853 -0.0189  0.3734  0.2068
 8713W        W10913  21.193   5.653  25.996 -0.1983 -0.2830  0.2524
 8714W        W10914  20.323   1.271  12.762 -0.1856  0.1383 -0.1080
 8715W        W10915  12.786   0.678   5.705  0.2180  0.1111  0.4367
 8716W        W10916   3.196   1.327   3.155 -0.2267 -0.2053 -0.0254
 8717W        W10917  15.228   5.151  31.918 -0.0417  0.1330  0.1919
 8718W        W10918  14.930   4.023   3.686  0.0543  0.0664 -0.2650
 8719W        W10919  25.388   5.721  22.479 -0.1131 -0.1126 -0.1061
 8720W        W10920  25.981   2.270   1.178 -0.0709 -0.0798 -0.3030
 8721W        W10921  23.242   6.075  11.265  0.1262 -0.3273  0.1424
 8722W        W10922  15.878   4.387  28.496 -0.2092  0.2703 -0.1342
 8723W        W10923  15.364   2.591  10.885  0.0725  0.0512  0.5753
 8724W        W10924  25.139   2.981  10.381 -0.2368  0.2379 -0.2092
 8725W        W10925   5.200   3.086  12.999  0.0046  0.3166 -0.0852
 8726W        W10926   3.377   4.968  10.383 -0.0149  0.0443  0.2844
 8727W        W10927  20.657   2.122  32.280 -0.1386 -0.1078  0.0096
 8728W        W10928  16.341   5.706   1.691 -0.1901  0.1697 -0.0025
 8729W        W10929  11.985   3.763   3.295  0.1175  0.0714  0.1771
 8730W        W10930   9.742   2.665   3.310  0.0268 -0.0007  0.0480
 8731W        W10931  24.811   2.607   4.600 -0.2898  0.1254 -0.0709
 8732W        W10932   1.404   0.044   3.370  0.0042 -0.1101 -0.1175
 8733W        W10933  24.995   6.071  23.957  0.0414  0.1277 -0.1100
 8734W        W10934  13.855   2.040  23.254 -0.1635  0.1530  0.0647
 8735W        W10935  20.970   4.315  12.626 -0.0365 -0.0402 -0.1137
 8736W        W10936  21.224   5.802   9.052 -0.0299  0.0182 -0.2606
 8737W        W10937   9.664   6.107  29.005 -0.0664  0.1654 -0.1022
 8738W        W10938   3.339   4.479   3.646  0.3019 -0.2932  0.5005
 8739W        W10939  21.595   2.510   1.290  0.3966 -0.3754 -0.2869
 8740W        W10940   5.100   0.078  33.078 -0.1030  0.0724  0.0816
 8741W        W10941  20.055   5.641  34.751  0.0132  0.0710  0.0362
 8742W        W10942   9.944   1.639   5.028 -0.0734  0.2935  0.3774
 8743W        W10943  20.111   4.085  13.030  0.1016 -0.2573 -0.1202
 8744W        W10944  18.801   1.718   8.071 -0.0281 -0.1603 -0.0160
 8745W        W10945  18.663   4.434  26.258  0.0356  0.0550  0.0056
 8746W        W10946   4.706   6.109  25.973  0.1269  0.1711 -0.0789
 8747W        W10947  20.219   0.275  25.854  0.0431 -0.2333  0.2160
 8748W        W10948   2.115   0.138   2.937 -0.1977  0.1298  0.0901
 8749W        W10949  13.529   6.417  25.788  0.0637  0.1942 -0.1830
 8750W        W10950  13.669   2.510   8.793  0.0137 -0.0331  0.0525
 8751W        W10951  21.923   2.274   6.200  0.1018 -0.2477 -0.0593
 8752W        W10952  25.548   1.418  20.210  0.0999 -0.2085 -0.1684
 8753W        W10953   0.625   4.905  27.073  0.0842  0.3473  0.1591
 8754W        W10954  12.788   1.653   4.832  0.0043  0.0718  0.1642
 8755W        W10955  24.675   5.082   9.268  0.1242 -0.0930  0.2049
 8756W        W10956  10.601   2.715  24.944 -0.1081  0.2799 -0.0075
 8757W        W10957   1.166   2.716  26.279  0.0958 -0.1443  0.0325
 8758W        W10958  10.583   6.485   7.724  0.1355 -0.2389  0.0036
 8759W        W10959  17.896   1.393  22.835 -0.0508 -0.4033 -0.0032
 8760W        W10960   6.903   3.366   3.472 -0.0575  0.3925 -0.3094
 8761W        W10961   6.767   2.978  35.323 -0.1272 -0.1542 -0.2328
 8762W        W10962  20.215   2.450  26.116 -0.0727  0.1497  0.1699
 8763W        W10963   5.080   5.621   3.323 -0.1923  0.0125 -0.0725
 8764W        W10964   5.591   4.603  24.584 -0.0792  0.1109 -0.0418
 8765W        W10965   3.600   3.675  35.635 -0.1571 -0.1744 -0.0396
 8766W        W10966  16.506   5.555  35.678 -0.3375 -0.0675  0.3027
 8767W        W10967  23.878   3.748  23.722  0.0067  0.0593  0.1973
 8768W        W10968   9.851   2.970  22.125 -0.0655  0.0841  0.1394
 8769W        W10969  20.664   5.161  11.238 -0.0609  0.0867  0.0422
 8770W        W10970   3.353   1.293  31.699  0.2330 -0.1272 -0.0768
 8771W        W10971  25.620   2.539   0.949  0.0375  0.1369 -0.1665
 8772W        W10972   8.739   5.978   6.112 -0.1213  0.1954  0.1942
 8773W        W10973   2.629   6.175  23.996 -0.1494  0.0496 -0.0445
 8774W        W10974   7.595   0.504  11.019 -0.0238 -0.0465 -0.2223
 8775W        W10975  20.746   4.739  22.377 -0.2260 -0.0909  0.3123
 8776W        W10976  24.547   3.365  34.060  0.0528  0.4742  0.2794
 8777W        W10977   7.206   2.444   8.356 -0.0279  0.1619 -0.1687
 8778W        W10978   5.179   1.957  13.143 -0.1211 -0.0934  0.2171
 8779W        W10979  16.162   3.707  28.711 -0.2256 -0.1993 -0.0814
 8780W        W10980   3.989   4.429  31.402  0.3137 -0.0724  0.0405
 8781W        W10981  22.394   4.930  15.090  0.0157 -0.0898 -0.0057
 8782W        W10982   2.934   5.836   1.155 -0.1540 -0.0386  0.1634
 8783W        W10983   0.040   0.546  33.027 -0.1580  0.1323  0.1964
 8784W        W10984  20.464   4.963  14.133 -0.0337  0.3251 -0.0379
 8785W        W10985  12.197   1.090  13.875  0.0388  0.1660  0.0636
 8786W        W10986   6.245   4.575   3.652 -0.1362  0.0201 -0.1596
 8787W        W10987   6.378   3.159  24.836  0.3389 -0.0150 -0.1861
 8788W        W10988  20.459   5.658   3.221  0.1606 -0.0956 -0.3973
 8789W        W10989  22.895   1.671   3.946  0.0030 -0.0159 -0.0764
 8790W        W10990  20.215   2.042  10.320 -0.0714  0.0383  0.2260
 8791W        W10991  16.749   2.216   2.229  0.1023  0.1501 -0.0384
 8792W        W10992  26.377   2.933  34.138 -0.1449  0.1252 -0.1994
 8793W        W10993   1.656   5.659  11.322 -0.0133  0.3119 -0.0919
 8794W        W10994   4.437   3.698  14.530  0.2332  0.0629 -0.0411
 8795W        W10995  21.273   0.529  28.023 -0.0862  0.1935  0.0328
 8796W        W10996  18.366   4.891   0.150 -0.1831 -0.0379  0.1045
 8797W        W10997   4.415   3.832  29.538  0.1512 -0.0229  0.0674
 8798W        W10998  25.815   3.570   4.598  0.1878  0.3157  0.0510
 8799W        W10999  13.570   4.063  31.112 -0.0458 -0.0732 -0.0185
 8800W        W11000   5.368   5.987  12.076  0.1061  0.0577  0.0314
 8801W        W11001  17.299   2.335  15.305  0.0181 -0.1721  0.0050
 8802W        W11002  25.656   4.643  12.611 -0.0596  0.0473  0.1901
 8803W        W11003  14.591   3.561  30.813  0.2965 -0.1880 -0.1522
 8804W        W11004   9.196   5.968  13.058  0.0036 -0.2116  0.0916
 8805W        W11005   3.980   6.311  10.617 -0.1633 -0.1293  0.2226
 8806W        W11006  19.792   1.248   3.156 -0.0610 -0.0987  0.1346
 8807W        W11007  11.274   3.774  32.867  0.2684  0.1053 -0.1463
 8808W        W11008  10.548   6.303   9.505  0.1205  0.1435 -0.1256
 8809W        W11009   8.881   1.895   2.602 -0.1805  0.0601  0.0282
 8810W        W11010   5.637   1.315  27.576  0.1009  0.2465  0.0117
 8811W        W11011   1.728   5.032  21.916  0.0662  0.1794  0.0708
 8812W        W11012  16.854   3.194  13.521  0.1653  0.2769  0.0417
 8813W        W11013   0.311   3.732  26.692 -0.0971 -0.0481  0.0917
 8814W        W11014   9.959   4.230   2.956  0.0781  0.1761  0.0959
 8815W        W11015   3.679   0.929  35.202  0.0345  0.1446 -0.0671
 8816W        W11016  15.301   6.284   2.183 -0.0157  0.0463 -0.1826
 8817W        W11017   0.956   1.886  12.460 -0.2316  0.0419  0.2882
 8818W        W11018  23.592   6.260  13.700  0.0042  0.0341  0.1143
 8819W        W11019   3.041   4.171   6.257 -0.0823 -0.1105  0.1099
 8820W        W11020  13.712   2.637  12.480 -0.3245 -0.3117  0.1696
 8821W        W11021  18.467   0.892   7.979  0.0868 -0.0105  0.1041
 8822W        W11022   6.362   3.561   9.050  0.1714  0.0379  0.0405
 8823W        W11023  12.919   2.410  32.161 -0.1966 -0.0941 -0.0540
 8824W        W11024   8.227   5.656  10.259 -0.0854 -0.1463 -0.4323
 8825W        W11025  10.388   5.914  35.444 -0.1023  0.0446  0.0894
 8826W        W11026  15.165   1.800  35.624  0.0310  0.0553  0.0979
 8827W        W11027   4.351   1.045  27.647 -0.2233  0.0014 -0.1369
 8828W        W11028  19.613   5.857  25.033  0.0365 -0.0178 -0.1262
 8829W        W11029  23.030   5.749  26.321 -0.0629  0.0044  0.1916
 8830W        W11030   5.942   5.219  28.016 -0.1171  0.2544  0.1937
 8831W        W11031   9.677   5.044  31.844  0.0176 -0.6369  0.0385
 8832W        W11032  19.152   5.222   1.144 -0.0941 -0.1327 -0.0108
 8833W        W11033   0.644   3.161   7.918  0.1728 -0.0117  0.1271
 8834W        W11034  22.141   0.044  32.102  0.2071  0.3457 -0.2500
 8835W        W11035   9.966   2.677   8.701  0.0262 -0.1731 -0.1262
 8836W        W11036  15.203   0.020  27.842  0.1621 -0.2147 -0.0537
 8837W        W11037  11.951   2.381  31.596 -0.1870 -0.0258 -0.0698
 8838W        W11038   0.298   4.526  34.138 -0.2936  0.0830 -0.4001
 8839W        W11039  10.621   4.837   5.911 -0.1776  0.2011 -0.3403
 8840W        W11040  22.271   1.716  35.477  0.0819 -0.0526 -0.0714
 8841W        W11041  24.687   1.173   9.343  0.0594  0.0351 -0.3995
 8842W        W11042   1.944   1.098  32.662 -0.2701  0.3486  0.1765
 8843W        W11043   5.240   3.905  32.358  0.1369 -0.1518  0.1819
 8844W        W11044   8.772   0.266  24.116  0.1579 -0.0277  0.0886
 8845W        W11045  12.391   2.984  28.408 -0.1300  0.1835 -0.1602
 8846W        W11046   0.050   4.801  14.905 -0.0315 -0.0691 -0.1137
 8847W        W11047  17.805   1.215   7.393  0.0455  0.2316  0.0385
 8848W        W11048  15.971   4.330  29.917 -0.1084  0.1504 -0.0237
 8849W        W11049   4.418   4.212   2.770  0.2294 -0.0943 -0.0756
 8850W        W11050   8.028   2.394  30.983 -0.4377  0.0559  0.1773
 8851W        W11051  20.691   2.043  15.193  0.0475  0.0302 -0.0396
 8852W        W11052  15.216   3.317  11.187 -0.2220 -0.0734 -0.1509
 8853W        W11053  25.452   3.043   9.763 -0.0045  0.0792  0.3269
 8854W        W11054   1.543   2.594  36.170  0.2644  0.2170  0.2304
 8855W        W11055  17.885   0.736   5.369  0.0286  0.0407  0.3015
 8856W        W11056   9.998   3.421  26.395  0.2931  0.3357 -0.0888
 8857W        W11057   8.240   3.617  11.893 -0.0403  0.0519  0.1605
 8858W        W11058  15.214   6.344   0.208 -0.0449 -0.0862 -0.3912
 8859W        W11059  23.632   0.489   7.476  0.2492 -0.0656  0.0883
 8860W        W11060   1.455   5.201  30.350  0.0483  0.0261  0.0743
 8861W        W11061   9.180   3.958   2.554  0.0102 -0.1201 -0.3241
 8862W        W11062  23.284   4.296  36.136 -0.2820 -0.0822  0.0276
 8863W        W11063   0.213   6.381   4.381  0.2696 -0.0150 -0.0711
 8864W        W11064  23.684   2.607   5.361 -0.0214  0.2481  0.0625
 8865W        W11065  13.785   5.034  35.691 -0.0960  0.0064  0.1823
 8866W        W11066   9.509   3.081  30.102 -0.0850  0.1851  0.1769
 8867W        W11067   0.361   0.333   0.294  0.0441  0.0796 -0.0661
 8868W        W11068  18.018   5.151   2.218 -0.1561  0.1669  0.0321
 8869W        W11069   4.143   4.519   9.198  0.4459 -0.2023  0.0337
 8870W        W11070   0.040   1.280   8.716  0.0999  0.3153  0.1557
 8871W        W11071  16.250   0.163   5.224 -0.1832 -0.0328 -0.0225
 8872W        W11072   0.021   5.398   4.528 -0.1397 -0.0560  0.0482
 8873W        W11073   3.578   6.107   5.189  0.1297 -0.0435 -0.0830
 8874W        W11074   2.398   3.145   3.478  0.0969  0.0679  0.2231
 8875W        W11075  12.233   3.868  21.341  0.2044  0.3209  0.0245
 8876W        W11076  10.502   0.526  14.100  0.0112 -0.0167  0.2598
 8877W        W11077  10.979   1.615  33.960 -0.0412  0.0243 -0.3303
 8878W        W11078   1.992   1.945   2.701  0.3334 -0.2538  0.3684
 8879W        W11079  18.015   0.229   2.671  0.0715  0.3100  0.3726
 8880W        W11080  24.164   5.951  30.368  0.2517 -0.3516 -0.0543
 8881W        W11081   6.513   4.370  27.727  0.0122 -0.0595 -0.0419
 8882W        W11082  10.456   2.132   4.034 -0.3566 -0.0615  0.0118
 8883W        W11083   0.600   3.713   6.608  0.1713  0.1288 -0.1900
 8884W        W11084  12.457   2.459  35.229 -0.1291 -0.0677  0.1087
 8885W        W11085  16.140   0.631  35.647  0.4651 -0.2448  0.0769
 8886W        W11086  20.531   0.651  23.905  0.1291 -0.0542  0.1671
 8887W        W11087   1.381   6.049  21.782  0.1775 -0.3775  0.0416
 8888W        W11088   5.470   4.609  22.517  0.1151  0.1946 -0.0717
 8889W        W11089   6.300   2.766  29.284  0.0473 -0.0616 -0.0557
 8890W        W11090   8.439   1.943  24.211 -0.0015 -0.0471 -0.1676
 8891W        W11091   0.379   3.116   8.344  0.0069 -0.1110 -0.1001
 8892W        W11092  21.461   4.199  31.540  0.1961  0.1434  0.1740
 8893W        W11093   8.862   1.229  13.354 -0.1035  0.0587 -0.0621
 8894W        W11094   8.882   3.627  14.037 -0.0578  0.2294  0.1296
 8895W        W11095  14.992   4.961   7.378 -0.2918 -0.0488  0.0921
 8896W        W11096   9.316   4.131  34.037  0.4121 -0.0250  0.0767
 8897W        W11097  17.411   6.568  32.150  0.0685  0.0547 -0.0138
 8898W        W11098   9.360   4.324  21.250  0.0811  0.2550  0.0330
 8899W        W11099  16.949   1.184  25.349  0.0268  0.1169 -0.0848
 8900W        W11100  21.871   5.001  26.006  0.3222 -0.0675 -0.1073
 8901W        W11101   6.790   0.355  31.396  0.0307  0.0137  0.1555
 8902W        W11102  12.095   1.148  11.870 -0.0224  0.1785 -0.1838
 8903W        W11103   0.869   2.162   3.450 -0.0603 -0.3297  0.0952
 8904W        W11104  20.486   3.232   5.759 -0.1526 -0.0604 -0.1035
 8905W        W11105  13.960   6.477  26.591 -0.0143 -0.1429  0.3505
 8906W        W11106  13.568   3.420  33.098  0.1164  0.2525  0.3362
 8907W        W11107  14.117   4.726   7.677  0.1758 -0.0294 -0.2018
 8908W        W11108   4.142   2.468   5.168 -0.1142 -0.1251 -0.1597
 8909W        W11109   1.229   3.404   7.732  0.4149  0.1097 -0.0431
 8910W        W11110   5.288   1.985  12.638 -0.0084  0.1124 -0.0250
 8911W        W11111  22.646   4.902  23.374  0.2522  0.1761  0.2252
 8912W        W11112  26.338   3.064  25.334 -0.1295  0.1378  0.1927
 8913W        W11113  11.038   5.906   0.371 -0.3411  0.2965  0.2725
 8914W        W11114  12.466   4.054  31.463  0.0703 -0.0909 -0.1306
 8915W        W11115   9.198   0.237   0.270  0.0383  0.2838  0.1269
 8916W        W11116   0.365   5.488  29.525  0.1185  0.2521 -0.1449
 8917W        W11117  25.766   0.107  31.926  0.1551  0.1508 -0.0816
 8918W        W11118  15.292   5.949   1.749 -0.1171  0.0483  0.0058
 8919W        W11119  20.169   6.123  34.905  0.0168 -0.0002 -0.0034
 8920W        W11120  25.075   5.971  34.298  0.0058  0.1517  0.0001
 8921W        W11121  15.093   0.974  13.213 -0.0732 -0.2427 -0.1172
 8922W        W11122  15.497   3.383  35.524 -0.3314 -0.0497 -0.1405
 8923W        W11123   6.744   2.480   2.407 -0.1014  0.0739 -0.0375
 8924W        W11124   5.104   4.829   0.032 -0.2281 -0.0097  0.0809
 8925W        W11125   9.697   5.398  25.709  0.2163 -0.0143 -0.0367
 8926W        W11126  12.102   6.501  30.463  0.1889 -0.1440  0.0551
 8927W        W11127  22.211   1.043  23.407  0.0935  0.0400  0.2723
 8928W        W11128   6.827   1.878  13.692 -0.0085 -0.1069 -0.3748
 8929W        W11129  21.169   6.250   0.255  0.4112  0.2159 -0.0899
 8930W        W11130   1.466   4.695  20.677 -0.2205  0.0162 -0.1973
 8931W        W11131  16.135   5.820  32.806  0.2318  0.3365  0.5505
 8932W        W11132  11.803   2.200  22.777  0.0900 -0.1251  0.0193
 8933W        W11133   2.851   0.998  26.386  0.3259  0.1323 -0.0550
 8934W        W11134   2.103   1.892  26.355 -0.0840 -0.1068  0.0862
 8935W        W11135  10.985   2.103  33.985 -0.0302  0.1901 -0.0106
 8936W        W11136   4.063   0.598  14.631 -0.0732  0.1510 -0.1868
 8937W        W11137   1.905   5.645  30.999 -0.1932  0.0516  0.0502
 8938W        W11138   1.249   1.900   1.171  0.1327  0.0685 -0.1802
 8939W        W11139  17.753   2.308  11.303 -0.0541 -0.0085  0.2642
 8940W        W11140  10.884   1.413   6.162 -0.0958 -0.0808  0.0632
 8941W        W11141   7.028   0.982   7.539 -0.0098 -0.0555  0.1819
 8942W        W11142  25.382   3.962   5.694 -0.0263  0.0926 -0.0099
 8943W        W11143  10.779   4.670  34.445 -0.0240  0.2410 -0.1200
 8944W        W11144   6.292   2.706   5.787 -0.0085  0.1155  0.2089
 8945W        W11145  23.981   4.684  35.207  0.1050 -0.0724  0.1393
 8946W        W11146   7.233   0.832   2.134 -0.2954 -0.0127 -0.2146
 8947W        W11147  20.319   5.015  11.844  0.4675 -0.0459 -0.0129
 8948W        W11148   8.207   4.767   2.168 -0.3957  0.0099 -0.0616
 8949W        W11149   2.502   0.500  31.505 -0.0322 -0.1936 -0.0699
 8950W        W11150  18.397   3.000  35.648  0.1959 -0.0014 -0.0290
 8951W        W11151   7.706   3.910  29.960 -0.2867 -0.0472 -0.1316
 8952W        W11152   2.368   4.200   7.091  0.0789  0.0933 -0.1810
 8953W        W11153  18.861   6.416  21.641 -0.3901  0.1023 -0.2941
 8954W        W11154  21.908   5.977  13.663 -0.0500  0.2483 -0.1107
 8955W        W11155  25.099   5.451   4.660 -0.1511  0.2205  0.1858
 8956W        W11156  21.616   5.071  35.898 -0.2387 -0.1802  0.0109
 8957W        W11157  18.030   0.452  29.555  0.3038  0.2140  0.2963
 8958W        W11158   6.086   5.375  33.604  0.1891 -0.0317  0.3071
 8959W        W11159  13.444   4.302  10.168  0.1934  0.2571  0.0358
 8960W        W11160  14.721   0.845   5.374 -0.0523  0.4092 -0.1277
 8961W        W11161  19.680   2.846  30.072  0.0647 -0.1315 -0.1845
 8962W        W11162  14.064   1.660  35.047  0.5124  0.0764  0.0415
 8963W        W11163   8.865   4.683   7.530 -0.1764 -0.0518  0.0482
 8964W        W11164   9.436   0.440  24.924  0.0953 -0.2313 -0.0311
 8965W        W11165   0.980   6.212  21.374 -0.0034 -0.0829 -0.1785
 8966W        W11166  11.068   4.677   9.348  0.1546 -0.1501 -0.0931
 8967W        W11167  18.283   5.072  33.626 -0.0598  0.3386  0.0876
 8968W        W11168  12.268   2.085  24.636  0.0592  0.0771 -0.2345
 8969W        W11169   0.948   0.384   4.181 -0.2417  0.0214  0.1765
 8970W        W11170  19.957   5.371  28.136  0.2566  0.0856  0.3958
 8971W        W11171   7.284   2.721  25.567  0.0796  0.1017 -0.0948
 8972W        W11172  18.110   3.580  28.717 -0.1174  0.0605 -0.1395
 8973W        W11173  16.410   1.015  32.453  0.0024  0.4461 -0.1035
 8974W        W11174   5.616   3.386  22.607 -0.0822 -0.0502 -0.4409
 8975W        W11175  22.053   2.278  26.294 -0.0358 -0.0897  0.2621
 8976W        W11176  11.684   1.361  22.120 -0.1187  0.2883 -0.1352
 8977W        W11177   6.533   0.420  32.909  0.1435 -0.1208 -0.0177
 8978W        W11178   5.003   4.200   1.941 -0.0199 -0.0873  0.1495
 8979W        W11179  16.689   4.958   0.137 -0.2058  0.1908  0.2445
 8980W        W11180  15.487   5.911   9.551  0.1269 -0.0139  0.1654
 8981W        W11181   7.050   4.364   1.336  0.0842 -0.0782 -0.0177
 8982W        W11182  21.636   6.330   0.058  0.3312  0.1227 -0.0367
 8983W        W11183  25.935   2.477   3.788  0.2696 -0.0307  0.0287
 8984W        W11184  16.339   2.394   4.133  0.0049  0.2510 -0.1219
 8985W        W11185  24.032   4.509   9.861 -0.0960  0.0873 -0.2694
 8986W        W11186  21.760   5.512   4.145 -0.4439 -0.2496  0.2630
 8987W        W11187  10.725   2.819  13.512  0.0479 -0.0538  0.1592
 8988W        W11188  11.978   6.133  13.128 -0.1521 -0.4078  0.0825
 8989W        W11189  10.623   4.943  16.213 -0.2429  0.1220 -0.0542
 8990W        W11190  25.699   6.251  26.247 -0.1546  0.1348 -0.1261
 8991W        W11191   1.390   0.512  26.361 -0.0705 -0.2094 -0.1079
 8992W        W11192  14.171   2.282  25.148 -0.1197 -0.2540  0.1057
 8993W        W11193  23.255   5.359  30.648 -0.0511 -0.0934  0.4420
 8994W        W11194   9.782   4.549  12.953 -0.0908  0.0904  0.0454
 8995W        W11195  15.723   1.492  21.651  0.1464  0.0492  0.0959
 8996W        W11196   8.816   4.446  15.132  0.1122  0.2907 -0.2359
 8997W        W11197  26.243   6.078   7.774 -0.2516 -0.0154 -0.2495
 8998W        W11198  17.076   4.975  27.645 -0.0918  0.1805  0.1094
 8999W        W11199   4.012   4.829   4.808  0.1607 -0.4275  0.0405
 9000W        W11200  12.795   2.659  21.867  0.1589 -0.0599  0.0688
 9001W        W11201  21.808   5.241  11.155  0.3143  0.0170  0.0171
 9002W        W11202  16.088   1.405  34.490  0.1174 -0.1311  0.1191
 9003W        W11203  13.445   2.837   3.418 -0.3302  0.0915  0.0855
 9004W        W11204   7.001   2.500   5.994 -0.0850  0.1164  0.0495
 9005W        W11205  23.942   5.547  21.031  0.2357 -0.2380 -0.0456
 9006W        W11206  22.418   0.877  32.966  0.0070  0.1552 -0.0856
 9007W        W11207  10.275   0.546  26.627 -0.1642  0.1254  0.0549
 9008W        W11208   7.170   3.517   5.820  0.1620 -0.3158 -0.0670
 9009W        W11209  12.759   0.097   7.658 -0.1662  0.0724  0.0136
 9010W        W11210   8.514   3.104  24.913 -0.1548  0.4057 -0.1821
 9011W        W11211  17.154   0.144  14.557 -0.0313  0.0580 -0.1809
 9012W        W11212  23.829   6.226  30.120  0.0711 -0.1672 -0.2593
 9013W        W11213   1.346   5.020   3.302 -0.1450  0.0382 -0.1305
 9014W        W11214  16.606   4.323  21.791 -0.1352 -0.0803  0.2366
 9015W        W11215   0.638   6.201  28.635  0.1632  0.0123  0.0701
 9016W        W11216  22.863   6.315  12.682  0.0598 -0.4587 -0.0189
 9017W        W11217  23.468   4.484   8.481  0.2800  0.1564  0.0909
 9018W        W11218  15.844   4.404   4.301  0.2109 -0.1644  0.2820
 9019W        W11219   5.906   1.744  29.963  0.2717  0.2497  0.1763
 9020W        W11220  12.180   0.466  26.198  0.1033 -0.1084 -0.0275
 9021W        W11221  18.126   0.861   9.458  0.0230  0.0050 -0.4311
 9022W        W11222  14.554   0.716  30.926  0.0491 -0.0691 -0.0514
 9023W        W11223   2.669   6.284  12.324 -0.0042  0.1859 -0.3223
 9024W        W11224  22.997   0.582  29.699 -0.1571 -0.3131 -0.0413
 9025W        W11225  10.668   6.596   1.859  0.0979 -0.3299  0.2742
 9026W        W11226   5.468   6.290  12.939  0.0774  0.2136 -0.0265
 9027W        W11227   7.055   6.310  22.464  0.0169  0.1060  0.3572
 9028W        W11228   2.589   0.220  26.016 -0.1234  0.0446  0.0112
 9029W        W11229   6.146   3.597  13.669 -0.1687 -0.0733  0.2005
 9030W        W11230  12.146   3.967   8.709  0.1694 -0.0372  0.2248
 9031W        W11231   3.551   3.845  11.290  0.0159  0.0869  0.0265
 9032W        W11232  14.529   4.146  30.978  0.5411  0.0091 -0.1142
 9033W        W11233   4.119   6.019   3.869  0.3591 -0.1709 -0.2265
 9034W        W11234  20.269   1.349  35.136 -0.0360  0.0298  0.1339
 9035W        W11235  14.000   4.255  13.288  0.1336 -0.1433 -0.0293
 9036W        W11236   7.419   1.303  11.847 -0.1366 -0.0374  0.2464
 9037W        W11237  23.060   6.175   5.877 -0.0395  0.0616 -0.0997
 9038W        W11238   1.896   6.404  29.840  0.4597 -0.0234  0.2799
 9039W        W11239   7.682   0.671  33.002  0.1243 -0.2079 -0.1482
 9040W        W11240  16.500   0.981   8.098  0.0530  0.0114  0.0209
 9041W        W11241   8.704   1.217   4.423  0.1086  0.1699 -0.0049
 9042W        W11242   7.641   2.689  31.606  0.2063 -0.0971  0.1726
 9043W        W11243   5.135   1.248  27.980  0.0879 -0.0107 -0.0042
 9044W        W11244  24.563   1.600  12.427 -0.3412  0.3772 -0.1801
 9045W        W11245  15.756   1.261   2.400 -0.1294 -0.1058  0.0642
 9046W        W11246   5.923   0.833  31.646  0.2095  0.0377 -0.1437
 9047W        W11247  17.981   6.074  35.608  0.1528 -0.2654  0.4060
 9048W        W11248  19.580   5.172  10.793  0.0848  0.0925  0.0509
 9049W        W11249  14.527   3.421   2.463  0.0774 -0.1289 -0.0891
 9050W        W11250  22.688   3.191   4.440  0.1344 -0.0935 -0.0810
 9051W        W11251   9.643   0.016  23.558 -0.1118  0.0102 -0.1206
 9052W        W11252  19.320   1.300   6.503  0.0224 -0.1728 -0.1057
 9053W        W11253   0.240   1.930  13.106  0.0350 -0.0632  0.2017
 9054W        W11254   3.514   4.807   1.976  0.0206 -0.0484 -0.3167
 9055W        W11255  24.774   3.303  35.737  0.2364 -0.0220  0.1152
 9056W        W11256  20.445   3.597  11.285  0.0798  0.1260  0.0815
 9057W        W11257   6.460   5.458  32.371  0.0578 -0.0231  0.1594
 9058W        W11258   9.474   1.401  14.780 -0.0890  0.0320 -0.0288
 9059W        W11259   2.255   5.794   0.904  0.2443 -0.0186 -0.2227
 9060W        W11260   1.114   3.819  29.712  0.0397 -0.2102 -0.1477
 9061W        W11261   1.385   6.184   3.182  0.0871  0.0653  0.0402
 9062W        W11262  25.484   3.522  25.375  0.0404  0.2645 -0.2015
 9063W        W11263  18.699   4.261  13.711  0.1657 -0.1522  0.4540
 9064W        W11264   0.581   1.901   5.902 -0.2197  0.0571 -0.2229
 9065W        W11265   0.297   5.345   7.356  0.3078  0.0418 -0.1362
 9066W        W11266  18.061   4.285  14.764 -0.0301  0.0616  0.2848
 9067W        W11267   1.767   6.261  22.502 -0.2818 -0.1500 -0.0149
 9068W        W11268  23.984   5.427  22.566 -0.1850 -0.1719 -0.1486
 9069W        W11269  14.302   5.581  29.106  0.1071 -0.0529 -0.0139
 9070W        W11270  25.799   4.767  27.996  0.2994  0.1200 -0.0859
 9071W        W11271   1.864   3.414  28.300  0.1905 -0.3150 -0.0128
 9072W        W11272  21.401   6.366   5.471  0.0619 -0.1550 -0.0718
 9073W        W11273  16.118   2.608  30.686 -0.0176  0.0880  0.1281
 9074W        W11274  22.047   6.547  28.096  0.2097  0.0219  0.4179
 9075W        W11275  19.424   0.989  13.815  0.0952  0.1072  0.1566
 9076W        W11276  19.463   6.469  13.949 -0.0153 -0.0122  0.2491
 9077W        W11277   0.082   3.393   9.200  0.0499 -0.1292 -0.1411
 9078W        W11278  23.873   4.259  26.671 -0.1167  0.2184 -0.1550
 9079W        W11279   5.404   3.893  21.449 -0.1701 -0.0740  0.1325
 9080W        W11280  13.070   3.974  30.929  0.0729 -0.2515  0.2169
 9081W        W11281  10.755   4.040  21.010  0.2340 -0.0478 -0.2662
 9082W        W11282   2.962   1.773   4.077 -0.0127  0.0323 -0.0519
 9083W        W11283  23.023   2.663  34.648 -0.0652  0.2674 -0.1638
 9084W        W11284  23.832   3.038   4.331  0.1329  0.0171 -0.1455
 9085W        W11285  21.426   5.522   8.586  0.1727  0.0235 -0.1895
 9086W        W11286  11.651   3.411  22.340 -0.3254 -0.2497 -0.1295
 9087W        W11287  20.968   4.858  21.891 -0.2435 -0.0261 -0.0204
 9088W        W11288   2.470   3.471   8.463  0.0187 -0.1322 -0.1289
 9089W        W11289  19.958   3.517  29.823  0.0166  0.1206  0.1256
 9090W        W11290   9.467   3.270   5.814  0.0665  0.1227 -0.1591
 9091W        W11291  12.750   0.278  33.273  0.1871 -0.0601 -0.2186
 9092W        W11292   0.451   4.328  21.872 -0.3356 -0.1699  0.1554
 9093W        W11293   3.071   3.217  13.021 -0.0187  0.0959 -0.2771
 9094W        W11294  15.646   6.211   3.537  0.1634 -0.0728  0.0585
 9095W        W11295   5.631   3.707  34.344 -0.3170 -0.1936  0.0381
 9096W        W11296  24.747   2.082  31.920  0.1360 -0.0642  0.2546
 9097W        W11297  24.134   0.747   9.952 -0.0633  0.1252  0.3508
 9098W        W11298   3.915   0.146   4.721 -0.0792 -0.0869  0.2125
 9099W        W11299   6.540   6.450  35.977 -0.2454  0.2582 -0.0737
 9100W        W11300  12.080   0.517  33.541 -0.3346  0.1881 -0.1892
 9101W        W11301   6.747   3.733  12.551 -0.0896 -0.2040 -0.0989
 9102W        W11302  17.408   4.119   2.835 -0.1460  0.0794  0.1829
 9103W        W11303  25.895   0.229  34.037  0.0765  0.0856 -0.3226
 9104W        W11304  13.453   2.121  12.922 -0.0817 -0.2685  0.0159
 9105W        W11305  22.410   6.541  27.703 -0.1241  0.1658 -0.0902
 9106W        W11306   1.678   0.159   5.079  0.4741  0.1307  0.0976
 9107W        W11307  14.981   0.975  34.379 -0.0361 -0.2744 -0.0630
 9108W        W11308   8.130   5.782  13.393  0.5060 -0.1922  0.0708
 9109W        W11309   1.522   4.580  24.436 -0.1911 -0.0505  0.0808
 9110W        W11310  18.687   6.315  29.812 -0.0292  0.0718 -0.1952
 9111W        W11311  14.319   4.035  11.212  0.0246 -0.0933  0.3451
 9112W        W11312  25.139   4.683  21.678  0.0102 -0.1631 -0.0388
 9113W        W11313  16.069   3.104   0.533 -0.2880 -0.0383 -0.3460
 9114W        W11314  17.704   2.414  23.235 -0.2295  0.1029 -0.2008
 9115W        W11315  14.764   3.068  35.309  0.0536  0.0483  0.0907
 9116W        W11316  12.721   2.822  29.697  0.0810  0.1492 -0.0267
 9117W        W11317  10.119   5.944  13.229  0.1670  0.1299  0.1213
 9118W        W11318  15.097   1.506  13.299 -0.1693  0.1594 -0.0789
 9119W        W11319   5.583   0.741  23.013 -0.1738  0.3810  0.0121
 9120W        W11320   7.771   6.111  23.748  0.0500 -0.0959 -0.0108
 9121W        W11321  21.630   4.096  24.446 -0.0583  0.0496  0.1180
 9122W        W11322   1.709   5.182  23.508  0.1395 -0.3330  0.0373
 9123W        W11323   8.229   1.749  20.821  0.1252  0.1312  0.1865
 9124W        W11324  12.850   6.140  14.679  0.0441  0.0620 -0.1587
 9125W        W11325  14.883   0.528   8.616 -0.0970 -0.2296 -0.0338
 9126W        W11326   4.732   1.371   7.663 -0.0619  0.1381 -0.0134
 9127W        W11327  24.786   3.936  10.562  0.4022  0.5721  0.3204
 9128W        W11328  16.495   1.226  25.043 -0.1082 -0.2509  0.0646
 9129W        W11329  17.629   2.360   2.949  0.2514 -0.4030  0.0497
 9130W        W11330   5.093   5.263   7.472  0.0110 -0.1178 -0.0834
 9131W        W11331  17.088   5.472  35.725 -0.0022 -0.1161 -0.0217
 9132W        W11332  21.843   3.910   1.734  0.1820 -0.0824 -0.1320
 9133W        W11333  22.553   6.126  21.487  0.0210 -0.0808  0.3108
 9134W        W11334  15.154   1.091  30.307 -0.2134  0.2471 -0.0431
 9135W        W11335  19.161   0.713   3.941  0.0657  0.0024 -0.1403
 9136W        W11336  15.058   6.211  27.582 -0.3317  0.2746  0.0479
 9137W        W11337  12.568   0.167  28.767  0.0520  0.1704 -0.2720
 9138W        W11338   8.847   4.226   3.650  0.1803 -0.0075 -0.1192
 9139W        W11339   6.274   6.560  14.630 -0.1413 -0.0975 -0.2541
 9140W        W11340   9.035   1.273   4.778  0.3492 -0.0608  0.0120
 9141W        W11341  20.198   1.002   7.552 -0.1337 -0.0389  0.2906
 9142W        W11342   7.876   2.545  34.053 -0.2304 -0.0577 -0.0327
 9143W        W11343   0.074   4.461  12.744  0.1705  0.0643 -0.1559
 9144W        W11344   7.704   5.699   7.098 -0.1551 -0.1402  0.0596
 9145W        W11345  16.940   1.279  35.098 -0.0210  0.1030 -0.0567
 9146W        W11346  15.093   3.870  23.267 -0.0567  0.1190  0.0747
 9147W        W11347  16.109   5.812  34.037 -0.0280  0.1216  0.3186
 9148W        W11348  26.068   0.953  14.095 -0.0340 -0.0441  0.1483
 9149W        W11349  21.328   0.741  28.601 -0.0106  0.2901 -0.0632
 9150W        W11350  19.682   1.691   2.040  0.4910  0.1227  0.1898
 9151W        W11351  24.079   2.767  13.620  0.0244  0.1470 -0.0384
 9152W        W11352  16.241   6.550  13.521 -0.0629 -0.0535 -0.0496
 9153W        W11353  11.496   1.881  11.680  0.0261  0.2345 -0.0269
 9154W        W11354   2.196   3.569   3.001 -0.0750 -0.0750 -0.0549
 9155W        W11355  20.133   2.222  29.073  0.0172 -0.1424  0.0507
 9156W        W11356   6.709   3.860  26.155 -0.1205 -0.0218  0.1466
 9157W        W11357   8.370   4.975  26.147 -0.0967  0.1326 -0.4256
 9158W        W11358   4.633   5.644   4.502  0.0576  0.3337 -0.2206
 9159W        W11359  15.550   2.523  33.641  0.1936 -0.1084  0.1458
 9160W        W11360  20.772   0.171  34.125 -0.2904 -0.0412  0.2087
 9161W        W11361  12.532   3.589  33.331  0.0035 -0.4192  0.0910
 9162W        W11362   8.229   3.237  13.633  0.3428  0.2021 -0.1460
 9163W        W11363  14.726   0.767   3.767 -0.2166 -0.0795 -0.0391
 9164W        W11364   8.347   1.818   9.608  0.3955 -0.3179  0.0463
 9165W        W11365  18.852   6.243  34.105  0.0214 -0.1898 -0.0425
 9166W        W11366  10.646   6.486  22.907  0.2237  0.0641 -0.2343
 9167W        W11367   4.832   3.585  33.719 -0.1784  0.3239  0.1294
 9168W        W11368  24.632   3.059  20.444 -0.0805  0.1548 -0.1363
 9169W        W11369  20.341   0.967   6.979  0.1180 -0.0486 -0.1183
 9170W        W11370  18.769   5.345  33.196 -0.0925  0.0439 -0.2536
 9171W        W11371   0.668   3.827   3.747 -0.2031 -0.4365  0.1138
 9172W        W11372   7.009   5.868  28.835  0.0561  0.1920  0.0261
 9173W        W11373   0.641   4.730   9.095  0.3057 -0.0184  0.2661
 9174W        W11374  19.313   5.619   2.867  0.4573  0.1338  0.0451
 9175W        W11375  26.078   3.644  11.336  0.0495 -0.0187  0.0069
 9176W        W11376   5.676   2.714   3.881 -0.0561  0.1353  0.0420
 9177W        W11377   8.906   2.167  24.323 -0.1759 -0.1698 -0.0522
 9178W        W11378   2.065   4.358  27.933 -0.0443 -0.3881 -0.0932
 9179W        W11379  17.517   1.745  22.829  0.0042 -0.0331 -0.0876
 9180W        W11380   4.897   6.239   2.694  0.2865 -0.0640  0.1285
 9181W        W11381   5.253   2.166   8.085  0.3219  0.0547  0.0418
 9182W        W11382  23.714   1.960  13.883 -0.0577 -0.0908  0.1278
 9183W        W11383  10.433   1.160  30.951 -0.2422  0.0439 -0.1096
 9184W        W11384   4.549   1.802   2.120 -0.0591  0.1536 -0.3109
 9185W        W11385   6.049   0.534  21.430  0.0999  0.1818  0.2378
 9186W        W11386   3.222   3.307  22.718  0.0895  0.2096 -0.0443
 9187W        W11387  16.007   4.569  15.187  0.1281  0.0264  0.0605
 9188W        W11388  10.957   3.778  36.124  0.0607 -0.1327 -0.0248
 9189W        W11389  21.066   3.076  13.824 -0.2167 -0.3085 -0.0553
 9190W        W11390  19.733   3.675   0.593 -0.0219  0.1294  0.1328
 9191W        W11391   0.576   6.165   7.512 -0.1735 -0.0766 -0.1325
 9192W        W11392  12.556   3.530  28.712  0.1337 -0.3519  0.2623
 9193W        W11393  11.902   1.308   5.768  0.2609 -0.1151  0.2946
 9194W        W11394   9.274   0.855  27.562  0.1428  0.1553 -0.0516
 9195W        W11395   1.355   3.242  25.382 -0.0025  0.2111  0.1545
 9196W        W11396  12.871   0.102  36.019  0.0161 -0.0290 -0.0313
 9197W        W11397  20.786   4.226  22.525  0.1492 -0.1206  0.2976
 9198W        W11398   9.297   6.332  34.717  0.3780  0.1691  0.2031
 9199W        W11399   4.926   6.555  29.392 -0.2839  0.2396 -0.0908
 9200W        W11400  19.578   4.592  34.553  0.3147  0.0729  0.2345
 9201W        W11401  12.747   5.172  32.314  0.0430  0.0612  0.1510
 9202W        W11402  20.235   5.138  27.822  0.0063 -0.3263 -0.0595
 9203W        W11403  21.281   0.182  24.828  0.0041 -0.0531  0.1982
 9204W        W11404   2.685   2.747  24.158  0.0462 -0.0762  0.1481
 9205W        W11405   8.060   2.895   1.133 -0.0336 -0.1710  0.0464
 9206W        W11406  22.521   6.443   8.259  0.0041  0.3039  0.0184
 9207W        W11407  10.582   2.866  10.673 -0.4079 -0.3029  0.3270
 9208W        W11408  23.231   5.846   5.431 -0.1721 -0.0387 -0.2174
 9209W        W11409  15.556   1.451  35.675  0.0351 -0.0308 -0.2540
 9210W        W11410  16.610   3.687   0.635 -0.1250  0.0264  0.0144
 9211W        W11411  15.500   4.654  14.124 -0.0546 -0.0632 -0.2915
 9212W        W11412  11.458   4.512  29.798  0.0270  0.0732  0.1563
 9213W        W11413   8.101   0.946   1.964 -0.2468 -0.2103 -0.2099
 9214W        W11414  17.778   5.329  28.129 -0.1292  0.0904 -0.1874
 9215W        W11415  15.310   4.623  27.997 -0.2325 -0.1497 -0.1397
 9216W        W11416  20.533   1.193  36.035  0.0313  0.1226  0.1680
 9217W        W11417   7.238   6.407  12.603  0.0260 -0.2031 -0.0706
 9218W        W11418  22.847   5.756   8.878 -0.2794 -0.1096  0.3275
 9219W        W11419  22.666   1.446  10.661  0.0277 -0.3710  0.0722
 9220W        W11420  21.301   2.984  22.124  0.1193 -0.1641 -0.2117
 9221W        W11421   9.571   6.586  28.878  0.2396 -0.0968 -0.0245
 9222W        W11422  15.134   3.881  24.883  0.0246 -0.0779 -0.0406
 9223W        W11423   2.495   2.541  25.436 -0.2483 -0.1476  0.2915
 9224W        W11424  10.679   2.871  27.977 -0.3332  0.0360 -0.0532
 9225W        W11425  14.997   1.231   0.743  0.0188 -0.1390 -0.0967
 9226W        W11426   3.775   0.936   8.784  0.1255  0.0452  0.0641
 9227W        W11427   0.694   5.704   8.329  0.1558  0.1300 -0.1030
 9228W        W11428  21.257   2.440  10.910 -0.0184 -0.4178  0.0212
 9229W        W11429  17.717   1.122   6.220  0.1103 -0.0226 -0.0451
 9230W        W11430   7.761   4.914  32.218  0.0727 -0.1390 -0.1392
 9231W        W11431  16.821   1.126  11.694  0.1246 -0.0280 -0.0423
 9232W        W11432  15.211   0.676  10.380 -0.0684 -0.1467 -0.0196
 9233W        W11433   6.549   0.481  23.103  0.1492 -0.2406  0.0854
 9234W        W11434  21.468   2.677  34.062 -0.1611  0.3527  0.1214
 9235W        W11435   3.910   5.734   3.451 -0.0462  0.1373  0.1446
 9236W        W11436  13.589   6.330  21.685  0.0166  0.0975  0.0624
 9237W        W11437  25.707   4.049   4.850  0.1354 -0.4923  0.0273
 9238W        W11438  22.662   3.130  32.378  0.0584 -0.3425  0.3032
 9239W        W11439  18.541   5.366  31.080  0.1503 -0.0939  0.0630
 9240W        W11440  15.029   1.197   5.887 -0.0841 -0.0693  0.0479
 9241W        W11441   4.623   3.960   4.327 -0.0263 -0.0502  0.1016
 9242W        W11442  10.095   4.443  35.035 -0.0099  0.2967 -0.2747
 9243W        W11443  26.400   3.404  27.814  0.0144 -0.2508 -0.1712
 9244W        W11444  15.496   6.117  35.843  0.0762  0.1744 -0.1520
 9245W        W11445  13.892   3.291   7.587  0.0232 -0.1583  0.1338
 9246W        W11446  25.088   3.796  31.420 -0.4076 -0.0865 -0.1525
 9247W        W11447  24.632   3.511  27.375  0.3162  0.1395  0.0073
 9248W        W11448  10.828   3.027  26.564 -0.1286  0.1952 -0.1434
 9249W        W11449   7.800   1.361   1.746  0.1976 -0.0641  0.1021
 9250W        W11450   3.798   6.590  36.170 -0.0370  0.2025  0.1638
 9251W        W11451   8.783   3.413   9.263  0.0149  0.2784  0.3757
 9252W        W11452  19.078   2.797  30.708  0.1544 -0.0880  0.0708
 9253W        W11453   8.379   3.869  33.657 -0.0428 -0.0387 -0.0570
 9254W        W11454  11.689   6.105  33.254  0.2025  0.1255 -0.0700
 9255W        W11455  17.757   1.412  14.701 -0.2573  0.2024  0.3224
 9256W        W11456  10.269   2.059  23.033  0.1756  0.1517 -0.0728
 9257W        W11457  17.160   0.887  23.144 -0.0800 -0.1300  0.0322
 9258W        W11458  14.882   4.988  11.997 -0.3519 -0.3225  0.1797
 9259W        W11459   5.363   6.364  33.413  0.2045  0.0339  0.1052
 9260W        W11460   7.719   1.460  26.904  0.1281 -0.0215  0.2333
 9261W        W11461  16.734   3.267   3.240  0.2182 -0.0013 -0.0928
 9262W        W11462  24.262   4.222  28.801  0.0831  0.0924 -0.1576
 9263W        W11463  11.055   3.525   6.370 -0.0612 -0.0322 -0.1830
 9264W        W11464  13.681   5.360  22.668  0.0792 -0.0995 -0.1521
 9265W        W11465   1.614   5.615  23.086  0.1517 -0.1657  0.0816
 9266W        W11466   7.367   0.724  20.974  0.1339  0.2896 -0.0840
 9267W        W11467   5.165   2.294  27.620 -0.3734  0.3956  0.1708
 9268W        W11468  22.634   2.033  35.620  0.0712 -0.1913 -0.2720
 9269W        W11469  22.909   4.289   6.640 -0.0896  0.1597 -0.1820
 9270W        W11470  10.731   2.656   3.908 -0.1834 -0.0599  0.1972
 9271W        W11471  11.591   4.846  24.447 -0.2052 -0.1637  0.0486
 9272W        W11472   4.505   1.644  11.622  0.1860 -0.0582 -0.1136
 9273W        W11473   3.456   5.109  33.301 -0.2391 -0.3163  0.1345
 9274W        W11474  20.957   0.844  32.357 -0.2140 -0.1961  0.1563
 9275W        W11475   7.785   4.645  12.934  0.0585  0.2108 -0.1393
 9276W        W11476   5.715   3.618   7.789  0.1014 -0.0287  0.2584
 9277W        W11477   6.908   1.985  29.144 -0.2540 -0.1838  0.0982
 9278W        W11478  16.827   1.509  35.499 -0.0693 -0.1355 -0.0499
 9279W        W11479  20.093   3.025  14.572 -0.2163 -0.2959  0.2253
 9280W        W11480  21.646   1.212  28.525  0.3364  0.0485 -0.0937
 9281W        W11481  21.787   3.342  32.909  0.1687 -0.1848  0.3718
 9282W        W11482  13.449   2.545   1.582  0.0227 -0.0502 -0.1414
 9283W        W11483  26.217   1.332  13.124 -0.0528  0.1528  0.0017
 9284W        W11484  13.644   5.961  32.581  0.1675 -0.0163  0.1440
 9285W        W11485  23.345   1.497  14.720 -0.4293 -0.1792 -0.2269
 9286W        W11486  13.494   5.736   6.381 -0.1965  0.2442  0.3920
 9287W        W11487   0.771   6.190   9.229 -0.3429  0.0128 -0.0545
 9288W        W11488   0.995   3.546  11.323  0.1028  0.3639  0.1523
 9289W        W11489  14.871   4.617   0.526  0.2912 -0.1064 -0.2513
 9290W        W11490  22.257   1.661   5.687  0.0438 -0.0255  0.3264
 9291W        W11491  10.240   6.131  11.766 -0.2495  0.1513  0.2037
 9292W        W11492   5.929   2.747   4.851 -0.2521  0.1011 -0.3610
 9293W        W11493  19.319   2.740   6.348 -0.1938 -0.0504  0.2299
 9294W        W11494   8.603   0.599   1.974 -0.2416 -0.0632 -0.0052
 9295W        W11495  24.226   1.553  27.482  0.0300 -0.0510  0.1302
 9296W        W11496  11.462   4.763   0.525  0.0654 -0.3033 -0.0091
 9297W        W11497  24.661   0.049  22.863  0.1718  0.2989  0.0098
 9298W        W11498   1.611   3.500  35.493  0.0634  0.2523 -0.1722
 9299W        W11499   7.247   1.989  10.053 -0.1111 -0.1867 -0.5062
 9300W        W11500  21.422   5.801  26.453 -0.1327  0.0479 -0.2965
 9301W        W11501   0.838   3.334   2.241 -0.1641 -0.0224 -0.1006
 9302W        W11502  19.698   4.354  15.004 -0.2168 -0.0296  0.0860
 9303W        W11503  11.407   1.758  35.627 -0.0743  0.0945  0.0699
 9304W        W11504  11.140   1.923  27.387 -0.1879  0.0510 -0.1381
 9305W        W11505  18.413   2.713  11.578 -0.1545  0.1071  0.0444
 9306W        W11506  22.437   4.681   4.723 -0.0782 -0.1359  0.0166
 9307W        W11507  11.758   3.752  32.457 -0.4306  0.2775 -0.1032
 9308W        W11508  15.977   5.453   2.284  0.2290  0.1409  0.0077
 9309W        W11509  18.722   1.741   5.579 -0.1464  0.1653  0.2676
 9310W        W11510   4.555   6.220   1.012  0.1722  0.2690 -0.0181
 9311W        W11511  21.707   0.134  11.197 -0.2137 -0.0877 -0.1555
 9312W        W11512  13.491   4.626  11.017 -0.0684 -0.1781 -0.2800
 9313W        W11513  20.421   0.496  34.823  0.1683  0.1027  0.3774
 9314W        W11514  25.298   3.470  34.666 -0.0400  0.0597  0.0096
 9315W        W11515   7.320   3.919  20.188  0.1052 -0.2258 -0.0943
 9316W        W11516  12.295   6.280   9.339 -0.1590 -0.0820 -0.1222
 9317W        W11517  21.524   5.899  23.692 -0.0916 -0.1185 -0.2185
 9318W        W11518  24.334   4.660  11.880  0.1170  0.1442  0.2471
 9319W        W11519  16.885   3.083  35.017  0.2727  0.0500 -0.1353
 9320W        W11520  23.461   2.167  26.443 -0.1648  0.0901  0.3263
 9321W        W11521  17.097   5.174  30.634 -0.1563  0.3016 -0.0713
 9322W        W11522   6.811   4.496   7.950 -0.0596 -0.0994 -0.0140
 9323W        W11523   2.386   0.332  24.378  0.1435  0.1192 -0.0923
 9324W        W11524  25.020   2.164   4.651 -0.1282  0.1858  0.1719
 9325W        W11525  21.718   1.767  25.768 -0.0177  0.0706  0.1448
 9326W        W11526  20.261   2.302  13.167  0.0435  0.0178 -0.0225
 9327W        W11527  13.065   0.159  25.672 -0.0457  0.4330 -0.1794
 9328W        W11528   7.232   2.342   1.873  0.0467 -0.3391  0.1398
 9329W        W11529  22.185   3.957  29.077 -0.2604 -0.2085  0.0711
 9330W        W11530   5.738   0.874   8.702  0.1782  0.0120  0.0333
 9331W        W11531  16.070   1.908  34.408 -0.2750  0.0469  0.0098
 9332W        W11532   5.892   3.519  22.130  0.1273 -0.0936  0.2540
 9333W        W11533  24.211   6.489  23.869 -0.0180 -0.1057 -0.0746
 9334W        W11534   0.787   5.282  21.345 -0.1500  0.3283  0.3557
 9335W        W11535   3.722   6.591   5.692 -0.0225  0.1246  0.1156
 9336W        W11536   5.236   0.945  11.943 -0.0624  0.1687  0.1805
 9337W        W11537  14.259   1.303  24.928 -0.0871 -0.4215 -0.1958
 9338W        W11538  20.735   6.303  26.810  0.2238 -0.0618  0.0271
 9339W        W11539  13.950   0.545  22.322  0.1919  0.1412  0.1442
 9340W        W11540  21.825   4.915   7.044 -0.0295 -0.1271  0.2327
 9341W        W11541   7.843   1.247  24.386  0.0650 -0.1432 -0.0639
 9342W        W11542  15.038   4.513  33.553 -0.0713  0.0218  0.3324
 9343W        W11543   4.191   1.675  31.346 -0.0806  0.2305  0.0190
 9344W        W11544  24.022   3.867  29.042  0.1435  0.0636 -0.2338
 9345W        W11545  11.796   2.225  27.887  0.1057 -0.3423  0.0260
 9346W        W11546   7.868   5.406  34.038  0.1577 -0.2522 -0.1187
 9347W        W11547   9.719   3.808  26.402 -0.3395 -0.1161  0.1441
 9348W        W11548  20.882   2.974  26.112 -0.0689  0.2761 -0.1905
 9349W        W11549  23.069   5.207  10.903 -0.1666 -0.0391  0.0898
 9350W        W11550  21.200   3.243  24.863 -0.2066  0.0111  0.0027
 9351W        W11551   6.599   3.672  27.057  0.1714 -0.1613  0.2064
 9352W        W11552  13.889   3.717  15.602  0.2360  0.0089 -0.2579
 9353W        W11553   8.052   0.255  21.809  0.0807 -0.1085  0.1067
 9354W        W11554  21.359   5.421   4.465 -0.0434  0.0313 -0.0404
 9355W        W11555  20.682   3.332  34.415 -0.1628 -0.2370  0.1896
 9356W        W11556  25.173   0.248  12.413 -0.0416 -0.0429 -0.2320
 9357W        W11557  25.061   2.712  29.369  0.1605  0.2884  0.3315
 9358W        W11558  13.220   4.355  14.999  0.0567  0.1395  0.1203
 9359W        W11559  16.753   6.546  28.451 -0.1530 -0.0296 -0.0634
 9360W        W11560   6.358   0.374  23.551 -0.0327  0.0345 -0.0454
 9361W        W11561  10.198   4.187  12.239 -0.0461 -0.1236  0.3104
 9362W        W11562  10.623   1.148  20.610  0.3600  0.0936  0.0802
 9363W        W11563  26.218   3.291  35.761  0.0755 -0.0922  0.1052
 9364W        W11564  19.167   4.445  10.294 -0.0344 -0.2543  0.1045
 9365W        W11565  15.641   2.287   3.074 -0.4278  0.2248  0.1092
 9366W        W11566  23.327   4.806  12.630 -0.4069  0.0201  0.3126
 9367W        W11567  12.823   1.767   3.962 -0.0757 -0.1247  0.0034
 9368W        W11568   2.835   6.453   5.474 -0.0295  0.2256 -0.1903
 9369W        W11569   6.544   0.128  14.207  0.1090  0.0449  0.0417
 9370W        W11570   0.665   3.110  13.197 -0.0577 -0.2849  0.4587
 9371W        W11571  25.182   1.174   3.079 -0.2467  0.1457 -0.0712
 9372W        W11572  12.951   5.213  14.882  0.1123  0.1491 -0.1686
 9373W        W11573   9.446   1.221  20.929  0.0943 -0.1793  0.0834
 9374W        W11574   3.075   0.641  14.287 -0.0015  0.1231  0.2212
 9375W        W11575   4.889   0.774  31.452 -0.0106  0.1757 -0.1803
 9376W        W11576  13.050   0.039  10.411  0.1148 -0.0003 -0.0361
 9377W        W11577  18.454   3.778  22.712  0.0168  0.0798  0.0659
 9378W        W11578  15.384   1.188  35.295 -0.0388  0.1397  0.0489
 9379W        W11579  14.020   0.696   5.802  0.2024 -0.0285 -0.0891
 9380W        W11580  23.161   6.336  29.140  0.1994  0.0206  0.0366
 9381W        W11581  14.641   1.901   4.750  0.0459  0.1585 -0.1511
 9382W        W11582   7.349   1.948  13.892 -0.3059  0.0097 -0.0620
 9383W        W11583  18.116   2.851  22.397  0.3206  0.1820 -0.1676
 9384W        W11584  21.529   0.926  25.559  0.1451  0.0046  0.0122
 9385W        W11585  22.771   3.460  33.951  0.1714  0.0093  0.2176
 9386W        W11586  16.025   4.203  30.658  0.3813 -0.1810  0.0939
 9387W        W11587  25.507   2.780  26.997  0.0605  0.1104  0.0874
 9388W        W11588  20.842   4.193  23.019  0.0992 -0.3198 -0.1258
 9389W        W11589   9.854   4.226   1.772  0.1506  0.1560  0.0157
 9390W        W11590  15.210   5.563  29.930 -0.2315 -0.0059 -0.3316
 9391W        W11591  19.919   6.393  13.573  0.2212  0.1832  0.1765
 9392W        W11592   4.876   5.631  13.649  0.2056  0.0181 -0.2564
 9393W        W11593  12.865   4.687  27.352 -0.0492 -0.0297  0.2478
 9394W        W11594  20.031   4.230  31.825  0.2677  0.0841  0.0485
 9395W        W11595  12.735   5.544  26.064  0.2165 -0.0137  0.1832
 9396W        W11596  16.669   5.804  33.994  0.1598 -0.0705  0.2024
 9397W        W11597   0.468   1.640  14.978  0.1134  0.0511  0.1330
 9398W        W11598  22.040   6.154  14.982  0.2051  0.0619  0.0351
 9399W        W11599   9.595   5.126  25.035  0.0577 -0.2273  0.2297
 9400W        W11600   1.376   0.236  10.350 -0.1127  0.0150 -0.0163
 9401W        W11601   5.416   4.720  32.855  0.0367 -0.0369  0.1311
 9402W        W11602  15.243   5.392   7.573  0.1226  0.2513 -0.2496
 9403W        W11603  10.077   6.081  10.923  0.2282  0.0787  0.3361
 9404W        W11604   7.919   4.619  13.594 -0.0174 -0.0416  0.2734
 9405W        W11605   6.209   2.432  35.629  0.0560  0.2400  0.0901
 9406W        W11606   0.759   4.893   9.908  0.3933 -0.3281  0.0490
 9407W        W11607  19.972   0.515  13.369  0.0923  0.2903 -0.0285
 9408W        W11608   0.134   1.842  10.252 -0.0826  0.1475 -0.0217
 9409W        W11609  19.306   0.668  28.234  0.0450  0.1183 -0.2108
 9410W        W11610  19.700   0.155  26.859  0.1875  0.1360  0.0843
 9411W        W11611  23.922   0.226   2.390 -0.1638  0.0992 -0.0670
 9412W        W11612  24.333   2.933   6.968 -0.1246  0.0668  0.2431
 9413W        W11613  11.977   0.742  32.045 -0.0109  0.0375 -0.1510
 9414W        W11614   3.140   1.581  24.454 -0.1571 -0.0704  0.4406
 9415W        W11615  14.634   6.585  35.889 -0.1954  0.1770  0.0046
 9416W        W11616  25.075   2.035  33.148 -0.0934 -0.0145  0.0190
 9417W        W11617  19.261   1.172  23.256  0.0590 -0.0415  0.1698
 9418W        W11618  24.757   0.917  24.417  0.2426  0.1345 -0.1131
 9419W        W11619  17.089   6.605  34.601 -0.1779  0.2379  0.1972
 9420W        W11620  10.306   4.405  32.870  0.0476 -0.0790  0.0755
 9421W        W11621  11.887   5.010  32.408 -0.0590 -0.5251  0.0912
 9422W        W11622   6.496   6.541  23.327  0.0161 -0.0467  0.0912
 9423W        W11623  25.072   1.509  35.206  0.1116  0.2162 -0.0272
 9424W        W11624  14.315   3.168  23.357  0.3407 -0.0257 -0.0547
 9425W        W11625  22.742   4.241  22.433 -0.1162  0.1736 -0.0016
 9426W        W11626   8.924   2.929  21.941 -0.2281  0.1693 -0.0714
 9427W        W11627  16.753   5.311  34.353  0.0748 -0.1380  0.3262
 9428W        W11628   5.459   4.310  23.931  0.1982  0.2057 -0.2223
 9429W        W11629  14.846   0.895  31.272  0.0071  0.0997 -0.0788
 9430W        W11630  18.678   3.491   6.315  0.1485 -0.1986 -0.0499
 9431W        W11631   8.897   4.032  14.364  0.1180 -0.0150  0.0973
 9432W        W11632  20.860   0.408  15.111 -0.0101 -0.0427  0.2283
 9433W        W11633  12.523   3.693   4.669 -0.0061 -0.3669 -0.0623
 9434W        W11634  10.898   1.770   2.766 -0.0713  0.0389  0.1715
 9435W        W11635   2.712   2.308  35.799  0.1213 -0.2022 -0.0624
 9436W        W11636   5.689   5.645   6.357 -0.2096  0.2705  0.0116
 9437W        W11637  19.864   6.309  10.881  0.1762  0.2892  0.0472
 9438W        W11638  26.409   4.629  12.250 -0.1821  0.1280  0.0396
 9439W        W11639  24.766   1.092  22.356  0.4747 -0.1084 -0.0729
 9440W        W11640  14.485   0.627  31.558 -0.0643 -0.3902  0.3797
 9441W        W11641   0.414   2.649   3.152  0.3214  0.3901 -0.0691
 9442W        W11642   6.692   3.352  21.078 -0.1018 -0.2891 -0.3979
 9443W        W11643   4.678   0.343   9.466 -0.0628 -0.1752 -0.2599
 9444W        W11644  20.805   2.281  22.063 -0.0837 -0.0565 -0.0986
 9445W        W11645  22.235   3.486  11.792 -0.1206  0.0996  0.1417
 9446W        W11646  26.053   2.506   2.098 -0.2182  0.1723  0.0543
 9447W        W11647   2.349   1.490   5.530  0.0649  0.0548 -0.1325
 9448W        W11648  15.996   6.447  24.286 -0.1144  0.2494  0.0902
 9449W        W11649  23.149   4.156  12.443 -0.2725 -0.2016  0.0721
 9450W        W11650   7.191   0.750  10.866  0.1526 -0.0400 -0.2497
 9451W        W11651  12.733   5.674  20.935 -0.3273  0.1502  0.0705
 9452W        W11652  12.382   3.249   9.454 -0.1073 -0.0520  0.0831
 9453W        W11653   2.989   0.725  11.746  0.0434  0.3963 -0.0023
 9454W        W11654  11.416   5.993  14.534 -0.0667 -0.0402  0.2986
 9455W        W11655   5.008   1.048   7.385 -0.0211  0.1383  0.0288
 9456W        W11656   4.570   0.019  15.050  0.2406  0.0131  0.0345
 9457W        W11657  17.956   5.462  31.695 -0.1456 -0.0495  0.1623
 9458W        W11658   2.000   1.661  32.896 -0.0023 -0.0873 -0.0746
 9459W        W11659  19.536   4.937  12.934  0.1616 -0.1520 -0.0771
 9460W        W11660  14.093   0.921  30.749 -0.0475 -0.0506 -0.0911
 9461W        W11661  12.550   1.462  31.250 -0.0607 -0.1652  0.0415
 9462W        W11662   2.357   6.228  11.918  0.1279 -0.3548  0.1042
 9463W        W11663  23.874   5.935  11.680  0.1141 -0.0731 -0.0615
 9464W        W11664   1.178   3.183  34.625 -0.2573  0.0394 -0.1093
 9465W        W11665   3.069   1.456  20.697  0.2835  0.1298 -0.1697
 9466W        W11666  14.352   2.761  26.645 -0.0337  0.2913  0.2068
 9467W        W11667  26.093   1.484  13.577 -0.2407 -0.0540  0.0096
 9468W        W11668  10.793   6.455  28.706  0.0805  0.0585 -0.0654
 9469W        W11669  13.711   5.852  31.185  0.1243  0.1337  0.2263
 9470W        W11670  11.103   4.604  23.069 -0.3534  0.1895  0.0692
 9471W        W11671  17.169   0.409   5.767 -0.0130  0.1373  0.2461
 9472W        W11672   6.679   2.188  24.416 -0.2637 -0.0446  0.1179
 9473W        W11673   9.326   1.462   1.589  0.1297  0.1105  0.1220
 9474W        W11674   1.145   3.231  26.260  0.2657  0.0254 -0.2835
 9475W        W11675   4.712   3.947   7.612  0.2191 -0.2575  0.3146
 9476W        W11676   7.632   5.105  20.552  0.2166  0.2063 -0.1231
 9477W        W11677  15.368   2.339  23.470 -0.1406 -0.1565 -0.0096
 9478W        W11678  18.837   1.608   2.570 -0.0525  0.0331  0.2818
 9479W        W11679  18.502   0.622  25.508  0.0987  0.0448  0.3550
 9480W        W11680  12.717   4.831   6.546  0.3568 -0.0971 -0.2134
 9481W        W11681   8.330   0.098  22.263 -0.3273  0.1655  0.0705
 9482W        W11682   2.207   3.028   7.975 -0.1337 -0.0066 -0.1446
 9483W        W11683  25.076   1.516  22.346  0.2000 -0.3644 -0.1757
 9484W        W11684  23.636   1.249   2.160  0.0736  0.1671 -0.0974
 9485W        W11685  12.541   4.970   7.120  0.0179  0.1560 -0.3661
 9486W        W11686   0.199   0.403  22.626  0.1652 -0.1777 -0.3315
 9487W        W11687  19.989   5.682  30.921 -0.0141 -0.2303  0.5684
 9488W        W11688   1.072   3.703  34.782  0.1144 -0.3416 -0.1466
 9489W        W11689  18.366   3.995   0.788  0.1407  0.0370  0.1419
 9490W        W11690  23.721   0.577  11.264 -0.1748  0.1074 -0.0448
 9491W        W11691  12.892   0.444  24.605  0.2317  0.1590 -0.2403
 9492W        W11692  16.570   0.260   6.414 -0.3106 -0.0838  0.2027
 9493W        W11693   4.388   4.367   9.602 -0.0843 -0.0806  0.0262
 9494W        W11694   5.954   4.265  31.729  0.3478 -0.0359 -0.0628
 9495W        W11695   6.642   0.077  30.498  0.3376 -0.2657  0.0872
 9496W        W11696   1.613   2.519   6.295  0.3190  0.1092  0.1716
 9497W        W11697  21.546   4.060   0.932  0.0355  0.0194 -0.0640
 9498W        W11698  18.372   6.175   1.674  0.0259 -0.1885 -0.0820
 9499W        W11699   8.070   2.875  31.778 -0.2879  0.0855  0.0632
 9500W        W11700  15.016   6.083  29.006 -0.0738 -0.0638  0.1027
 9501W        W11701   8.249   1.134  23.117  0.2564 -0.0905 -0.2229
 9502W        W11702  18.418   6.597  32.276 -0.0283 -0.0432 -0.1684
 9503W        W11703   3.648   2.489   5.533 -0.1244 -0.1006 -0.0171
 9504W        W11704   7.172   6.057  32.186 -0.0582 -0.0804  0.2213
 9505W        W11705  17.855   3.932  11.550 -0.2365  0.1061 -0.0211
 9506W        W11706   5.760   1.722  14.391 -0.1711  0.0476  0.0290
 9507W        W11707  18.801   5.766   7.301 -0.1901 -0.3174 -0.0053
 9508W        W11708  15.507   0.143  34.266 -0.0685  0.1473 -0.3518
 9509W        W11709  16.942   1.847  30.274  0.0157  0.1269  0.0198
 9510W        W11710  10.752   4.719  27.652  0.1473 -0.1620  0.0911
 9511W        W11711   8.565   2.473   9.044  0.0122  0.1340 -0.0804
 9512W        W11712   8.271   2.329   6.280 -0.2198 -0.0241  0.1611
 9513W        W11713  21.699   6.077   9.906 -0.2334  0.0151 -0.0759
 9514W        W11714  25.374   5.286   3.440 -0.4553  0.0687 -0.0344
 9515W        W11715   0.808   3.883  11.629  0.2220  0.4899  0.2525
 9516W        W11716   8.153   4.661   8.807 -0.1851 -0.0676  0.1332
 9517W        W11717  18.903   0.555  34.642 -0.1788 -0.0229 -0.0008
 9518W        W11718   5.726   5.963  13.958 -0.1913  0.0990 -0.2246
 9519W        W11719  12.273   3.668   0.474  0.0317 -0.0183  0.1308
 9520W        W11720  13.577   3.657  23.271  0.1740  0.0613 -0.1308
 9521W        W11721  25.895   4.890  32.498 -0.0134 -0.0871 -0.1537
 9522W        W11722   2.532   5.885  36.085 -0.1712 -0.0542  0.1555
 9523W        W11723  23.972   1.882  27.234  0.0964 -0.0284 -0.1277
 9524W        W11724   2.222   5.643   2.247  0.1638 -0.2469  0.2341
 9525W        W11725  21.899   3.949   5.959  0.3188 -0.1824 -0.1898
 9526W        W11726  26.432   2.979   2.331  0.0496  0.2189  0.0692
 9527W        W11727  11.463   5.466  12.654 -0.0852  0.0111  0.0769
 9528W        W11728   9.644   0.379  36.040  0.1466 -0.1879  0.2156
 9529W        W11729   1.821   2.973  13.663 -0.2049  0.4317 -0.0216
 9530W        W11730   8.637   1.510   8.094 -0.0853 -0.0271 -0.1161
 9531W        W11731  16.712   1.146   9.863  0.1571  0.0601  0.0808
 9532W        W11732   1.912   2.199  29.419 -0.0713  0.2846 -0.3267
 9533W        W11733   5.537   1.716   1.246 -0.0695 -0.1634  0.3028
 9534W        W11734  10.931   4.247  27.616  0.1704  0.2201 -0.0549
 9535W        W11735  11.537   2.690  22.773  0.2295  0.1541  0.1210
 9536W        W11736  13.690   1.217  11.520 -0.2324 -0.1169 -0.1265
 9537W        W11737  18.068   0.040  14.533 -0.1541 -0.0425 -0.0108
 9538W        W11738   4.417   5.103  12.342 -0.1991  0.3121  0.0902
 9539W        W11739   5.303   3.555   8.327 -0.1673 -0.2886 -0.4653
 9540W        W11740  18.604   2.005  22.864 -0.1087  0.0648  0.0439
 9541W        W11741  18.417   0.881   0.446  0.1571  0.2121  0.2533
 9542W        W11742  11.132   3.839   3.279 -0.0962  0.1484 -0.0810
 9543W        W11743  20.498   3.217   0.574 -0.2839  0.4364  0.1435
 9544W        W11744   9.366   5.108  22.729 -0.1608 -0.1383  0.1150
 9545W        W11745  18.677   0.207   5.422  0.0228  0.0706  0.1392
 9546W        W11746  12.165   1.992  22.083 -0.1471  0.0708  0.0025
 9547W        W11747  17.378   2.608  35.642  0.2002 -0.1315 -0.1825
 9548W        W11748  19.994   1.927  20.870  0.0157 -0.0449 -0.2492
 9549W        W11749   4.506   4.893   2.003  0.1889  0.2255 -0.0743
 9550W        W11750  23.405   0.695  29.389 -0.0676  0.0943  0.1950
 9551W        W11751  23.668   3.222  15.279 -0.0418  0.0351  0.0291
 9552W        W11752  23.991   4.294  11.719  0.1569 -0.1502  0.0716
 9553W        W11753   5.775   5.835  11.642  0.0545 -0.2398  0.1529
 9554W        W11754   5.723   5.203  21.969 -0.1911  0.1506 -0.0637
 9555W        W11755  18.401   3.354  27.512  0.0099  0.2863  0.3659
 9556W        W11756  18.595   0.061  24.461  0.4607  0.0574  0.3913
 9557W        W11757  19.706   5.457  14.147  0.0299 -0.2216 -0.3561
 9558W        W11758  22.079   0.805   3.596 -0.0942 -0.2025 -0.0212
 9559W        W11759  23.823   0.878  34.153  0.1898 -0.2780 -0.3127
 9560W        W11760  20.675   3.121  25.629  0.0062  0.1473 -0.2766
 9561W        W11761  23.400   6.007   2.646  0.0785  0.2585  0.3082
 9562W        W11762  21.731   2.791  27.978 -0.3721  0.0411  0.2130
 9563W        W11763  12.923   6.541  20.767  0.0468  0.1085 -0.1893
 9564W        W11764   2.438   5.740  10.413 -0.0141 -0.0019  0.0269
 9565W        W11765  24.653   2.796   3.575 -0.2362  0.0313 -0.0259
 9566W        W11766  18.502   0.396  12.707 -0.0645  0.0027  0.0061
 9567W        W11767  23.745   6.586  23.682 -0.0825 -0.1297 -0.1840
 9568W        W11768  22.728   5.699  22.036 -0.1621  0.0180 -0.0595
 9569W        W11769   3.500   0.933  27.930 -0.0669  0.1496  0.1441
 9570W        W11770   3.303   4.522  20.900  0.0596 -0.1310 -0.0312
 9571W        W11771   4.513   0.148  26.691 -0.1247 -0.0504 -0.4901
 9572W        W11772   9.914   3.249   7.240  0.0290 -0.1008 -0.2466
 9573W        W11773   7.902   6.532  34.002 -0.1359  0.3144 -0.0535
 9574W        W11774  16.207   5.408  33.155 -0.0151 -0.3071  0.2746
 9575W        W11775  24.571   5.252  31.703  0.0229  0.0433  0.3465
 9576W        W11776  13.682   1.568  23.584 -0.1542  0.0596 -0.1568
 9577W        W11777  18.025   0.148  30.952  0.2818 -0.1139  0.0115
 9578W        W11778  14.702   5.432  15.343  0.2262  0.0352 -0.1829
 9579W        W11779  20.341   4.848  35.263  0.2649 -0.4055 -0.2743
 9580W        W11780   5.914   4.630  32.688 -0.0233 -0.2385 -0.0786
 9581W        W11781  20.275   3.226  31.201 -0.2280 -0.1138 -0.0877
 9582W        W11782  24.380   6.195  15.068  0.2305 -0.3879  0.0235
 9583W        W11783  19.485   5.923  12.931 -0.1030  0.0355 -0.0456
 9584W        W11784  20.795   1.881  26.624 -0.1532 -0.0381  0.0104
 9585W        W11785   3.390   1.877  13.881 -0.1447 -0.2059 -0.0396
 9586W        W11786  17.604   5.185  24.072 -0.0142  0.0456 -0.0612
 9587W        W11787  26.399   5.171  35.411  0.1718 -0.1765 -0.1288
 9588W        W11788  18.292   2.015  33.660  0.0572 -0.1462  0.0274
 9589W        W11789   7.224   1.604  32.852  0.1064 -0.0080 -0.0086
 9590W        W11790  14.924   5.815  27.862  0.0195  0.2601 -0.1627
 9591W        W11791   7.358   2.930  12.077 -0.1225  0.1067  0.0440
 9592W        W11792  19.357   6.357  30.601 -0.1158 -0.2817 -0.0278
 9593W        W11793  22.318   1.198  33.859 -0.3131 -0.0543  0.1169
 9594W        W11794   8.755   0.875  27.602  0.1270 -0.0143  0.1840
 9595W        W11795  21.275   2.945   3.448 -0.0844  0.0496  0.0907
 9596W        W11796   1.820   0.588  28.737 -0.1165  0.1273  0.0843
 9597W        W11797   1.917   1.032  11.904  0.2945  0.1577 -0.0362
 9598W        W11798  11.626   6.127   4.131 -0.0242  0.0687 -0.0911
 9599W        W11799  17.877   1.875  28.088  0.1957  0.0944 -0.2994
 9600W        W11800  22.765   6.196  20.959  0.1964 -0.1074  0.0822
 9601W        W11801   9.857   3.529  29.929  0.1734 -0.0280 -0.2594
 9602W        W11802  23.028   6.194  21.666  0.1405  0.0031  0.0262
 9603W        W11803  26.419   0.721  20.687  0.0901  0.0395 -0.0431
 9604W        W11804   8.556   5.363  13.456  0.2992  0.2275  0.0066
 9605W        W11805  10.998   0.721   9.409 -0.2301  0.3379  0.4063
 9606W        W11806  18.663   4.645  22.761  0.1428 -0.0236  0.0439
 9607W        W11807   9.295   1.969   7.325  0.0151 -0.1203 -0.0269
 9608W        W11808  21.580   4.536  24.196 -0.1501 -0.0726  0.0029
 9609W        W11809  22.786   0.229  32.719  0.0161  0.1513  0.0706
 9610W        W11810   6.359   6.233   4.910 -0.2181  0.0581 -0.0305
 9611W        W11811  18.027   3.950  26.624  0.1163  0.1470  0.2016
 9612W        W11812  10.285   3.562  27.573 -0.1212  0.0341  0.1375
 9613W        W11813  16.868   2.611  29.325  0.1414  0.0343  0.0602
 9614W        W11814  12.074   1.712  35.700 -0.4090 -0.1939 -0.1161
 9615W        W11815  17.478   4.509   6.381 -0.2204  0.3780  0.0365
 9616W        W11816   1.715   1.192  23.481  0.0038  0.2052 -0.0506
 9617W        W11817  18.803   4.010   9.624  0.1975 -0.0591 -0.0760
 9618W        W11818  12.238   2.586   8.966 -0.0308  0.0501 -0.0989
 9619W        W11819  23.423   6.475   6.068  0.1027  0.1969  0.1673
 9620W        W11820  20.573   6.080   4.211  0.1594 -0.2204 -0.2871
 9621W        W11821   0.023   0.157  13.007 -0.0197  0.2349 -0.3991
 9622W        W11822   8.871   1.474  12.405 -0.1417  0.0667 -0.0474
 9623W        W11823  16.054   0.058   0.144 -0.1376 -0.1870 -0.0770
 9624W        W11824  25.767   5.406  27.508  0.0972  0.1218  0.0302
 9625W        W11825  22.200   4.786  32.663 -0.0584 -0.1281 -0.0109
 9626W        W11826   9.662   6.291  23.120  0.2463 -0.1877 -0.0464
 9627W        W11827   2.588   6.202   3.860 -0.2859  0.2032  0.1894
 9628W        W11828  20.303   0.488   5.792 -0.2367 -0.2834 -0.0066
 9629W        W11829  19.507   2.978   9.969 -0.0153 -0.1125 -0.2348
 9630W        W11830  13.418   3.037   1.636 -0.1092  0.1175 -0.2859
 9631W        W11831  14.160   5.521  12.288 -0.2814  0.1952 -0.1192
 9632W        W11832   7.856   1.907  24.191 -0.0373  0.1687 -0.1713
 9633W        W11833  23.629   2.372  24.780 -0.0339 -0.1278  0.0487
 9634W        W11834  17.466   5.980  28.700  0.2290  0.3924 -0.2236
 9635W        W11835   1.569   4.296  13.037  0.0129 -0.4216  0.4766
 9636W        W11836   3.408   1.367  14.986 -0.2461  0.3612 -0.2733
 9637W        W11837  23.845   3.526  22.785 -0.0755 -0.2551 -0.0686
 9638W        W11838   0.396   5.108   1.228  0.0554 -0.1964 -0.0315
 9639W        W11839  19.089   3.795  22.438  0.0787 -0.1758  0.0817
 9640W        W11840   9.613   0.928  14.612 -0.1591 -0.4807 -0.1681
 9641W        W11841  11.865   0.779   5.609 -0.4492 -0.1454  0.2387
 9642W        W11842   1.494   1.956   6.667 -0.1476  0.1125 -0.1583
 9643W        W11843  21.158   4.267  14.553  0.1303 -0.3607 -0.0140
 9644W        W11844   8.667   3.698   3.817  0.2472 -0.0921 -0.1542
 9645W        W11845   5.702   1.719  28.597  0.1169 -0.0240 -0.0961
 9646W        W11846   2.657   1.554  25.691  0.1863  0.0146  0.1915
 9647W        W11847  10.260   0.931   1.853  0.0252  0.5334 -0.1540
 9648W        W11848  20.128   1.160  34.631  0.0331  0.0019  0.1164
 9649W        W11849   2.432   0.039  15.381 -0.1026  0.0418  0.0105
 9650W        W11850  21.921   3.302  25.305 -0.1285  0.1640  0.0608
 9651W        W11851   6.774   4.390  25.196 -0.2345 -0.3269 -0.0653
 9652W        W11852  13.432   2.330  14.435  0.0026  0.0602  0.1290
 9653W        W11853  22.441   4.153   2.342  0.0400  0.1359  0.1222
 9654W        W11854  13.515   2.216   5.614 -0.2123 -0.0449  0.2523
 9655W        W11855  21.861   5.528  21.751 -0.1066  0.1897 -0.1959
 9656W        W11856  22.177   1.929  32.650 -0.1632  0.2006 -0.0915
 9657W        W11857   3.649   0.856  24.910 -0.0027  0.0459  0.0723
 9658W        W11858  19.116   6.504  24.470  0.0497 -0.0172 -0.0669
 9659W        W11859   6.957   0.672  11.337  0.1247 -0.0713  0.1533
 9660W        W11860   8.789   2.973  14.477 -0.0791  0.1535 -0.3231
 9661W        W11861   3.753   2.871  27.775  0.0330  0.1695 -0.1042
 9662W        W11862  21.966   0.785   2.928 -0.1414  0.0943  0.1018
 9663W        W11863  21.838   1.255  31.473  0.1278 -0.4377 -0.1093
 9664W        W11864   7.186   4.630  11.075  0.0668 -0.1631  0.0360
 9665W        W11865  12.712   5.624  14.097  0.2125 -0.0091 -0.3099
 9666W        W11866  20.878   6.206   7.262 -0.1323 -0.0951 -0.0785
 9667W        W11867  17.951   4.629   0.223 -0.1227 -0.0427  0.1522
 9668W        W11868  22.494   4.213  33.849 -0.1976 -0.2667 -0.0453
 9669W        W11869   6.170   0.501  14.491  0.0395  0.0615  0.0674
 9670W        W11870   2.526   1.430  34.587  0.4017  0.0344 -0.1644
 9671W        W11871  18.589   3.623   8.868  0.0191 -0.1513 -0.0008
 9672W        W11872  19.496   2.684  31.014 -0.0150 -0.4602  0.0930
 9673W        W11873  26.194   0.856  27.895  0.0555  0.0646 -0.0011
 9674W        W11874  16.279   3.520   3.467  0.0859 -0.0708  0.2253
 9675W        W11875  19.371   1.168  12.674 -0.4098 -0.0254  0.0982
 9676W        W11876  26.351   4.657  31.021 -0.2351 -0.2531  0.1925
 9677W        W11877  22.127   4.707  14.110 -0.0705  0.0731  0.0118
 9678W        W11878   8.519   2.750  12.785 -0.0295  0.2457  0.0053
 9679W        W11879   9.285   4.288  12.700  0.2304  0.0903 -0.0285
 9680W        W11880  23.417   0.511   4.993  0.2770  0.4310 -0.0375
 9681W        W11881   9.492   1.782   6.397 -0.0550  0.1857 -0.2035
 9682W        W11882  24.447   0.945   5.994 -0.2066  0.1602 -0.0257
 9683W        W11883   1.894   5.507  30.517  0.1853 -0.0305 -0.0975
 9684W        W11884   8.808   3.495  14.535  0.0044 -0.0909 -0.0085
 9685W        W11885   2.517   0.159   4.622  0.3146 -0.0626 -0.1210
 9686W        W11886  17.440   1.674  33.073 -0.2495  0.0594 -0.2763
 9687W        W11887   8.666   3.462  20.368  0.0764  0.0772  0.0983
 9688W        W11888  22.844   1.953  11.981 -0.2000 -0.0838 -0.0005
 9689W        W11889  15.347   5.529  27.916 -0.0345 -0.1242 -0.1047
 9690W        W11890  15.644   6.564   8.716  0.3299 -0.2041 -0.0180
 9691W        W11891   0.704   0.525  13.766  0.0565  0.1038 -0.3119
 9692W        W11892   4.443   0.184  34.285 -0.0269 -0.1035 -0.2191
 9693W        W11893  15.781   5.647   5.414  0.0288 -0.0195 -0.0253
 9694W        W11894   0.668   1.569  12.131  0.0019 -0.2995 -0.0077
 9695W        W11895   5.906   2.943  34.295  0.0746 -0.0930  0.0135
 9696W        W11896  22.438   2.685  24.175 -0.2343 -0.1163 -0.0505
 9697W        W11897  17.987   5.588  10.048 -0.0388  0.2450 -0.1128
 9698W        W11898  26.184   2.832   5.872  0.0522  0.0421 -0.2906
 9699W        W11899  12.797   1.436   8.172  0.2831  0.0038  0.0125
 9700W        W11900  13.830   2.742  32.395  0.0059 -0.0654  0.1879
 9701W        W11901   1.868   3.796  28.596 -0.0760  0.0748  0.2037
 9702W        W11902  17.915   0.424  20.717 -0.1373  0.0372  0.2025
 9703W        W11903  17.086   6.187  25.074 -0.0151 -0.0155 -0.1318
 9704W        W11904  22.133   2.698   8.307  0.0640 -0.1223 -0.0917
 9705W        W11905  19.837   0.655   7.790  0.0404 -0.6451 -0.0263
 9706W        W11906  16.755   1.306  12.296 -0.2228  0.1517 -0.1295
 9707W        W11907   3.860   2.293  22.957 -0.3007  0.0113  0.3575
 9708W        W11908  12.826   4.805  13.591  0.1329  0.2535 -0.1396
 9709W        W11909  23.571   4.696  22.309 -0.1017  0.0548 -0.2406
 9710W        W11910   0.243   4.961  32.924  0.1090 -0.3967  0.0138
 9711W        W11911   1.124   5.970   6.437 -0.1247 -0.0869  0.0812
 9712W        W11912  12.607   5.439  11.825  0.0941 -0.0480 -0.0840
 9713W        W11913   0.780   4.048   0.423 -0.0356 -0.2509 -0.1374
 9714W        W11914  20.810   1.041  26.260  0.1455  0.1966 -0.3089
 9715W        W11915   6.385   5.928   1.464  0.1345  0.2371 -0.0453
 9716W        W11916   9.276   1.173  26.417 -0.1945 -0.0618 -0.0544
 9717W        W11917  10.078   0.078   3.630 -0.2737  0.0244 -0.1710
 9718W        W11918   4.425   4.475  23.205  0.1173  0.0526 -0.1245
 9719W        W11919   2.204   1.296  23.231  0.0613  0.1562 -0.0624
 9720W        W11920  24.352   0.210  14.519  0.1584  0.0062  0.0925
 9721W        W11921  17.503   4.516  10.021 -0.1682  0.0915 -0.0195
 9722W        W11922  17.233   1.518   6.718  0.0552 -0.1033 -0.3068
 9723W        W11923   8.155   3.763   6.059  0.1613 -0.2553  0.0642
 9724W        W11924  11.750   6.457  10.271 -0.0074  0.0569  0.1426
 9725W        W11925  19.477   2.337  11.714  0.0923  0.2044  0.1065
 9726W        W11926   5.104   2.296   2.844  0.0206  0.0174  0.0177
 9727W        W11927   7.296   1.737   4.425 -0.1928 -0.2031 -0.0219
 9728W        W11928  14.286   5.517   7.768  0.0861 -0.1486  0.2036
 9729W        W11929  24.054   3.365  35.023  0.0971  0.1337 -0.0043
 9730W        W11930  13.911   1.859  25.510 -0.1351 -0.0127  0.0337
 9731W        W11931   8.860   0.082  25.697  0.1103 -0.3269  0.2348
 9732W        W11932   2.807   3.481   9.617 -0.0979  0.0182 -0.1729
 9733W        W11933  19.590   1.461  20.979  0.0353 -0.1201 -0.2157
 9734W        W11934  19.054   5.797  26.441 -0.0186 -0.0002  0.2459
 9735W        W11935  10.997   5.517   6.763  0.0510  0.0465 -0.2585
 9736W        W11936  23.884   4.888   1.882 -0.1725 -0.0396  0.0764
 9737W        W11937   2.243   3.674  35.877  0.0360 -0.2813  0.0569
 9738W        W11938  26.355   2.078   5.129  0.0851  0.2173  0.0714
 9739W        W11939  22.111   1.523  31.855 -0.1236 -0.2950  0.1514
 9740W        W11940   8.216   3.428  24.665  0.1319  0.1537  0.1618
 9741W        W11941  10.542   1.341  31.944  0.0703 -0.1440 -0.2136
 9742W        W11942   4.369   5.257  31.737  0.2268  0.0635  0.2608
 9743W        W11943  15.121   1.682  11.427  0.0853 -0.3176 -0.1393
 9744W        W11944   3.573   3.159  35.683  0.0206  0.3247 -0.0888
 9745W        W11945   6.807   0.548  10.497 -0.1449  0.1957  0.1162
 9746W        W11946  15.120   0.464  22.744  0.0866  0.2833  0.0935
 9747W        W11947  15.403   6.444  13.214 -0.2230  0.0199  0.0977
 9748W        W11948  22.994   5.540   9.880  0.0185  0.0524 -0.0989
 9749W        W11949  19.679   4.594   6.964 -0.0576  0.0194 -0.0954
 9750W        W11950   3.402   1.726   5.341  0.2316 -0.3113 -0.0316
 9751W        W11951  22.283   2.835  36.018  0.1483  0.2209  0.3512
 9752W        W11952   5.657   1.704   1.742 -0.0105 -0.1910 -0.0094
 9753W        W11953  13.952   1.882  28.121 -0.4602 -0.1137 -0.1509
 9754W        W11954  13.281   5.008  21.310  0.0685  0.2832 -0.1931
 9755W        W11955  21.987   6.093  10.813  0.1950  0.0979 -0.1424
 9756W        W11956   6.170   4.577  35.509 -0.0841 -0.0930  0.2192
 9757W        W11957   5.695   5.845  32.669  0.1700  0.0397  0.1343
 9758W        W11958   2.381   0.045  35.577  0.1723 -0.4292 -0.0825
 9759W        W11959   4.297   3.077  15.379 -0.1128 -0.1585  0.0601
 9760W        W11960  23.752   3.589   9.511 -0.0794  0.1368 -0.2877
 9761W        W11961  11.914   5.205  35.219 -0.0867 -0.0176 -0.1159
 9762W        W11962   8.744   1.105   8.556  0.0891  0.1250  0.0919
 9763W        W11963   8.079   4.003  24.046  0.0974  0.0834  0.0252
 9764W        W11964   9.628   1.933  31.531 -0.1934 -0.1300 -0.0086
 9765W        W11965   3.205   5.136  14.871  0.0534 -0.1398  0.2249
 9766W        W11966  22.344   1.734   6.138  0.1384 -0.0873  0.1249
 9767W        W11967  18.222   3.968  32.115 -0.2613 -0.1612 -0.2390
 9768W        W11968  20.853   0.451   7.835  0.2976 -0.0552  0.0805
 9769W        W11969  21.606   3.057  13.855  0.1689 -0.2492  0.0770
 9770W        W11970   4.600   3.363  30.006  0.0032 -0.2020  0.1340
 9771W        W11971  10.548   4.559  14.797 -0.0224  0.3024 -0.1406
 9772W        W11972  21.647   3.404  34.208  0.0239 -0.1661  0.0790
 9773W        W11973  23.851   4.854  32.427  0.0009  0.1513  0.1600
 9774W        W11974   5.312   5.911  12.582  0.0710  0.2523  0.0303
 9775W        W11975  20.543   5.433   8.145  0.1530 -0.0096 -0.3225
 9776W        W11976  18.442   2.258  12.106 -0.1070  0.1262  0.0150
 9777W        W11977  21.169   0.947  10.115  0.0500  0.2969 -0.2435
 9778W        W11978  15.563   3.152   8.729  0.0248  0.1414 -0.1097
 9779W        W11979   1.209   1.653  22.998  0.0849  0.0766 -0.0429
 9780W        W11980   2.324   4.187  23.003  0.0029 -0.0129  0.0281
 9781W        W11981  11.597   5.766   7.442 -0.0342  0.0390  0.2633
 9782W        W11982  13.132   1.838  25.515 -0.2351 -0.0178 -0.0584
 9783W        W11983   7.694   4.673   7.463  0.2558  0.0710 -0.3826
 9784W        W11984  24.454   6.269   9.270  0.0699  0.3733 -0.0756
 9785W        W11985   2.328   6.125  13.959  0.0582  0.0290 -0.0595
 9786W        W11986  15.836   0.480   0.484 -0.0576  0.0584 -0.2760
 9787W        W11987   8.983   2.684  33.182  0.2560 -0.0382 -0.1647
 9788W        W11988  25.214   5.827  13.675  0.2073 -0.0029 -0.0520
 9789W        W11989  12.967   1.900   3.508  0.3464 -0.0799 -0.1168
 9790W        W11990   6.774   1.032   2.155 -0.1459 -0.0594 -0.0935
 9791W        W11991  14.263   4.762  24.759  0.4185 -0.0115 -0.0612
 9792W        W11992   6.018   3.969  21.911 -0.0774  0.3210  0.3095
 9793W        W11993  20.446   3.927  22.455  0.2286  0.1751  0.1150
 9794W        W11994  13.458   2.653  35.313 -0.1311  0.0767 -0.0073
 9795W        W11995   8.490   4.321   2.334  0.1650  0.0118 -0.0429
 9796W        W11996   2.890   0.428  31.849  0.2742 -0.3492 -0.1406
 9797W        W11997   9.882   4.625   3.814 -0.0863 -0.1165  0.0411
 9798W        W11998   6.275   5.273   2.594 -0.2223  0.0105 -0.4127
 9799W        W11999  14.584   2.411   8.353 -0.2251 -0.2694  0.2151
 9800W        W12000   2.934   0.465  22.187 -0.1547 -0.3004 -0.0414
 9801W        W12001  20.405   6.106  25.564  0.0281  0.3046 -0.4434
 9802W        W12002   9.765   0.676  22.505 -0.1120 -0.0105  0.1050
 9803W        W12003  16.752   5.008  33.068  0.0377  0.1371 -0.1224
 9804W        W12004  10.954   2.921   3.213  0.1243  0.2051 -0.2122
 9805W        W12005  26.078   1.052  29.336 -0.0414 -0.2051  0.0228
 9806W        W12006   5.848   3.664  34.832 -0.0245  0.0467 -0.0954
 9807W        W12007  17.385   1.186  22.748  0.0129 -0.1324  0.0212
 9808W        W12008  24.873   5.918  11.712 -0.2009 -0.1440  0.0604
 9809W        W12009  12.079   2.145   1.160  0.0720  0.0267 -0.1015
 9810W        W12010   1.636   0.924  10.060 -0.1895 -0.1143  0.2239
 9811W        W12011   8.945   4.609   8.541 -0.1915  0.2976  0.0249
 9812W        W12012   9.711   3.709   8.956 -0.0172  0.0448  0.0803
 9813W        W12013  21.645   5.148  22.939 -0.5023  0.1477  0.0328
 9814W        W12014   0.847   3.558   0.875  0.1514 -0.0639  0.0059
 9815W        W12015  25.547   1.812  11.042  0.0715 -0.1970 -0.2055
 9816W        W12016  23.439   5.983  31.447 -0.0473  0.0090  0.3650
 9817W        W12017  22.716   1.155   2.408 -0.1265 -0.2227  0.0174
 9818W        W12018   3.441   0.743   4.013  0.1514  0.0821  0.0283
 9819W        W12019   5.055   5.952  23.135  0.0473 -0.1782 -0.4142
 9820W        W12020  24.633   3.270  11.423  0.0650 -0.0826  0.0202
 9821W        W12021   2.729   4.176  13.526  0.1243 -0.0207 -0.3840
 9822W        W12022  18.893   0.045  30.414 -0.0845 -0.2647 -0.2100
 9823W        W12023  24.542   4.820  20.612 -0.2638  0.1366  0.2027
 9824W        W12024   8.391   4.877  10.262 -0.0764  0.0515  0.2279
 9825W        W12025  21.669   5.452  11.952  0.2134  0.0764  0.1375
 9826W        W12026   8.994   0.166  34.009  0.0435  0.4064 -0.0671
 9827W        W12027   8.373   5.175  15.813  0.0436  0.4242  0.0068
 9828W        W12028  12.236   6.113  11.181  0.0634 -0.1495  0.0954
 9829W        W12029   9.349   3.439  14.110 -0.1234  0.2479  0.0397
 9830W        W12030  19.741   5.916  24.514 -0.0505 -0.1138  0.0901
 9831W        W12031   4.999   1.350   9.522 -0.2330 -0.1528  0.1907
 9832W        W12032   7.988   2.598  34.983 -0.0022  0.1231  0.0206
 9833W        W12033   4.192   3.525  24.146  0.1355 -0.1929 -0.2046
 9834W        W12034  15.620   2.835  12.442  0.1652 -0.2237 -0.1439
 9835W        W12035  15.351   0.861   4.906 -0.2960  0.2488 -0.3519
 9836W        W12036   5.528   4.261   8.380 -0.3707 -0.1227  0.2195
 9837W        W12037  15.389   0.668   9.896  0.1027 -0.1176 -0.1686
 9838W        W12038   6.872   3.982  29.113 -0.0984 -0.1026 -0.0319
 9839W        W12039  26.162   5.936  10.165  0.0924 -0.0659 -0.0257
 9840W        W12040  22.670   4.751  11.180 -0.1881 -0.0248  0.0575
 9841W        W12041   6.003   6.476  24.941  0.3180  0.0773 -0.0694
 9842W        W12042  22.948   2.776  13.470 -0.0882  0.2124  0.2870
 9843W        W12043  13.356   6.350   4.361  0.3477 -0.0424  0.2207
 9844W        W12044  25.756   4.213  26.816 -0.1633 -0.0889 -0.1139
 9845W        W12045  20.684   3.784  29.242  0.0766 -0.3850  0.2171
 9846W        W12046   6.656   4.810  34.871 -0.1551  0.0136  0.1480
 9847W        W12047  19.096   0.772  36.100 -0.0909 -0.3632 -0.0407
 9848W        W12048  14.510   3.464   0.077 -0.3062  0.0282 -0.0013
 9849W        W12049   9.735   1.986   0.273 -0.1266 -0.0926  0.0876
 9850W        W12050  17.469   0.970  30.129  0.0255  0.0273 -0.2009
 9851W        W12051   0.555   5.723  14.128  0.2328  0.0339 -0.0558
 9852W        W12052  10.022   5.785  35.050  0.0336 -0.2420 -0.0009
 9853W        W12053  13.807   5.338  25.351 -0.1761 -0.2322  0.0985
 9854W        W12054   6.434   0.507   5.961 -0.0576  0.2039 -0.0778
 9855W        W12055   2.932   3.191   3.529 -0.1089  0.2948  0.1127
 9856W        W12056  21.608   2.209  22.805  0.1964  0.0831  0.1117
 9857W        W12057   0.486   3.060  22.559  0.1590 -0.2746  0.1846
 9858W        W12058   5.785   4.492  30.004 -0.1185  0.0622 -0.2514
 9859W        W12059  15.321   1.839  13.071  0.0594 -0.3216  0.0592
 9860W        W12060   7.937   0.247  30.303  0.0796 -0.3265 -0.0157
 9861W        W12061   4.054   4.721   0.323 -0.0459  0.1206  0.1892
 9862W        W12062   9.489   2.179  22.348 -0.3702 -0.1287 -0.2127
 9863W        W12063  14.604   5.435   5.166  0.1932  0.2467  0.2314
 9864W        W12064  23.112   5.327   1.862 -0.0842 -0.2567 -0.2068
 9865W        W12065  20.449   6.026   0.063 -0.0032  0.0366  0.1374
 9866W        W12066  19.229   1.782  20.755  0.2277 -0.2780  0.0281
 9867W        W12067  24.652   1.587   7.549  0.3396 -0.2220 -0.1684
 9868W        W12068  26.395   2.552  11.032  0.1007 -0.0766  0.2836
 9869W        W12069   8.123   6.535   8.897  0.0367 -0.0661 -0.0415
 9870W        W12070  24.231   2.668   1.126 -0.0718 -0.1892  0.1097
 9871W        W12071  21.578   3.796  26.495 -0.1105 -0.0254 -0.2299
 9872W        W12072  21.001   5.912  29.513  0.2354 -0.0109 -0.1197
 9873W        W12073  24.857   5.672  26.507 -0.1754  0.0192  0.0128
 9874W        W12074   3.747   0.415  27.636 -0.0846 -0.0928 -0.0227
 9875W        W12075  17.924   6.406  34.495  0.1661  0.1776 -0.1268
 9876W        W12076  23.402   3.064  13.803  0.2259 -0.0107 -0.0682
 9877W        W12077  20.578   2.462   0.942  0.2038  0.1267 -0.2410
 9878W        W12078   6.860   2.959  32.338  0.1754 -0.0005 -0.0206
 9879W        W12079   3.683   1.304  35.976  0.0335 -0.0016 -0.1268
 9880W        W12080  12.924   2.721  24.708  0.1229  0.0385 -0.2404
 9881W        W12081  16.562   0.597  32.622 -0.2226 -0.1619 -0.0517
 9882W        W12082   8.393   1.750  25.398 -0.0550 -0.2620 -0.1114
 9883W        W12083  18.297   0.466   6.909 -0.0003  0.1011  0.0716
 9884W        W12084  14.341   6.046  11.300  0.1557 -0.0312 -0.1303
 9885W        W12085  20.148   4.503  34.028 -0.5654 -0.1832 -0.1575
 9886W        W12086   6.230   2.302   9.091  0.0747 -0.1112  0.1183
 9887W        W12087  19.743   4.466  23.494 -0.1455 -0.1335 -0.0389
 9888W        W12088   2.294   5.781  13.563 -0.2892 -0.1135 -0.1116
 9889W        W12089  10.847   1.898  26.094 -0.0963  0.0374 -0.1731
 9890W        W12090   2.102   0.878  19.701  0.0114  0.3024 -0.1231
 9891W        W12091   4.106   3.181  24.743  0.1273 -0.1305  0.1932
 9892W        W12092  10.438   1.596   2.408  0.3409  0.2236 -0.4518
 9893W        W12093  20.595   0.091   9.635 -0.0949 -0.0434  0.1623
 9894W        W12094  24.123   3.863  12.047  0.0446 -0.0184  0.1195
 9895W        W12095   0.852   4.797  12.064 -0.2520  0.1558  0.0541
 9896W        W12096   7.656   3.320  13.423  0.0892 -0.1431  0.0336
 9897W        W12097   3.365   1.209  29.767  0.0229 -0.1200 -0.1297
 9898W        W12098  25.047   5.038  34.012  0.2485 -0.1744 -0.0416
 9899W        W12099  23.820   5.384   6.819  0.0337  0.0268 -0.0447
 9900W        W12100  15.460   3.587  12.421  0.0807 -0.1860 -0.2338
 9901W        W12101  22.712   6.033  33.996  0.0107  0.0209  0.0590
 9902W        W12102   1.774   2.024  33.119 -0.1091  0.1127  0.0243
 9903W        W12103  10.082   2.974   9.102  0.2135  0.2528 -0.3218
 9904W        W12104  25.604   2.701  20.081 -0.2157 -0.1616  0.0458
 9905W        W12105  16.357   2.069  21.555  0.0602  0.4410 -0.2949
 9906W        W12106  11.489   4.838   4.301 -0.2976  0.0701 -0.1384
 9907W        W12107  21.681   2.727  12.210 -0.1816  0.1048  0.1884
 9908W        W12108   0.918   4.418  26.639 -0.2362  0.1840 -0.0481
 9909W        W12109  18.341   4.755  26.120 -0.0234 -0.2532  0.0016
 9910W        W12110   3.025   3.696  15.890 -0.1246 -0.0248 -0.0822
 9911W        W12111  24.211   2.736  20.568  0.1749  0.0503  0.0631
 9912W        W12112  21.475   5.074   9.128 -0.0886 -0.0317  0.0241
 9913W        W12113  23.059   5.267   0.773 -0.0496 -0.3641  0.2059
 9914W        W12114  25.852   3.659  23.060  0.1330 -0.1587  0.1280
 9915W        W12115   5.784   1.736  21.822  0.1901  0.1232  0.1380
 9916W        W12116  11.399   6.262  32.279  0.3179  0.3021  0.0060
 9917W        W12117   0.283   5.535  32.873 -0.3381  0.0015 -0.0591
 9918W        W12118  23.919   6.461  34.985 -0.2211  0.1359  0.1427
 9919W        W12119  16.611   1.888  10.923 -0.3485  0.0138 -0.0464
 9920W        W12120  14.868   5.216  20.721 -0.1027  0.0470 -0.1309
 9921W        W12121  12.242   1.205  28.779  0.1871  0.2437  0.1511
 9922W        W12122   2.038   2.399  12.786  0.1985  0.0321  0.0073
 9923W        W12123   4.692   0.715   0.580 -0.1067  0.0528 -0.4095
 9924W        W12124  10.280   5.454   4.723 -0.0871  0.0023  0.3306
 9925W        W12125   9.568   3.498   6.941 -0.1297  0.1088  0.2659
 9926W        W12126  12.212   0.295  14.965 -0.1702 -0.4448  0.0825
 9927W        W12127  14.245   6.595  13.822  0.0029 -0.1752 -0.0362
 9928W        W12128  22.703   3.653  10.627  0.3243 -0.0130  0.1251
 9929W        W12129  14.537   0.960   8.467 -0.0190 -0.3766  0.0432
 9930W        W12130  22.244   4.916  26.449 -0.0486  0.1658  0.4775
 9931W        W12131  19.866   4.599   1.321 -0.1218  0.0427  0.0751
 9932W        W12132  22.620   3.175   3.743 -0.0980 -0.1000  0.3096
 9933W        W12133  18.486   5.472   1.402 -0.2276 -0.1130  0.1348
 9934W        W12134   0.492   1.450   8.973  0.4098  0.0423  0.1737
 9935W        W12135  10.906   0.009   6.948 -0.0097  0.2408 -0.1825
 9936W        W12136  21.151   6.119  13.002 -0.2371  0.1405  0.0955
 9937W        W12137   9.890   3.928  13.460 -0.0667 -0.0784  0.2462
 9938W        W12138   2.081   2.793  35.564  0.4153  0.1512 -0.0075
 9939W        W12139  17.161   0.095   7.376  0.0265  0.1391  0.0903
 9940W        W12140  16.950   1.895  27.105 -0.3435 -0.1470 -0.2981
 9941W        W12141  19.242   5.069  33.920  0.0163  0.1244 -0.2095
 9942W        W12142   0.465   2.369  14.875 -0.3102 -0.0175 -0.0851
 9943W        W12143  17.083   4.694   3.356  0.0195  0.1766  0.0733
 9944W        W12144   2.843   5.292   6.765 -0.0856 -0.2692 -0.1679
 9945W        W12145  14.763   0.605  23.365  0.0854  0.0854 -0.2476
 9946W        W12146  23.568   4.347  25.468 -0.0621 -0.1263  0.1641
 9947W        W12147   8.228   6.493  26.899  0.3283 -0.2331  0.0900
 9948W        W12148   2.899   3.673  12.836 -0.1151 -0.0776  0.1912
 9949W        W12149   9.139   1.329  24.645  0.1227 -0.3482 -0.0853
 9950W        W12150  20.085   6.273  11.545 -0.0938 -0.3715  0.0762
 9951W        W12151  15.889   2.865  11.614  0.0270  0.0509 -0.1714
 9952W        W12152   6.260   3.418  12.394  0.0054 -0.0510  0.0744
 9953W        W12153  13.837   6.546  27.064  0.0715  0.1544 -0.2257
 9954W        W12154   3.363   2.748  36.117  0.1110 -0.2505  0.2821
 9955W        W12155   3.115   5.945   2.146 -0.0233  0.0369 -0.0167
 9956W        W12156  21.352   6.240   1.707  0.3037  0.1287 -0.0845
 9957W        W12157  13.608   1.844  27.640 -0.0829 -0.0892  0.0209
 9958W        W12158   6.431   4.738  32.384  0.2607 -0.1999 -0.1608
 9959W        W12159   7.483   3.156  12.543 -0.3993  0.0409 -0.0393
 9960W        W12160   8.093   5.906  33.177 -0.2652 -0.0542  0.0668
 9961W        W12161   7.078   1.706  22.556 -0.0466 -0.3618 -0.0147
 9962W        W12162  13.939   0.567   0.019 -0.3345  0.0250  0.2397
 9963W        W12163  18.650   3.476  36.128 -0.0832  0.0049 -0.2402
 9964W        W12164  10.993   2.801  27.579 -0.0126  0.2309 -0.0353
 9965W        W12165  11.010   4.487   0.551  0.2429 -0.0314  0.1690
 9966W        W12166  25.863   0.112   1.510 -0.1788 -0.3658 -0.0450
 9967W        W12167   8.316   0.259   5.320 -0.0477  0.0151 -0.2093
 9968W        W12168  20.382   1.164  33.412 -0.0243 -0.1091  0.0183
 9969W        W12169  18.542   2.022   7.653  0.3083 -0.1927 -0.0165
 9970W        W12170   7.407   4.363  12.752  0.1380 -0.3113  0.2347
 9971W        W12171  15.638   5.973  13.434 -0.0224 -0.0891 -0.2328
 9972W        W12172  10.384   4.277   7.974 -0.0720  0.0869 -0.1063
 9973W        W12173  11.139   1.523  29.990  0.4298 -0.0515 -0.0764
 9974W        W12174   8.891   0.541  33.454  0.0082 -0.2354 -0.0169
 9975W        W12175  11.359   1.984  23.145 -0.1836  0.0984  0.1539
 9976W        W12176   4.358   5.136   8.462 -0.4296  0.0024 -0.0621
 9977W        W12177   5.700   1.345   8.322  0.2000  0.1568 -0.0947
 9978W        W12178  18.837   3.031   2.010  0.3579 -0.1081  0.0808
 9979W        W12179  24.000   3.252  13.616  0.2279  0.1493  0.1811
 9980W        W12180  24.608   1.574   0.781 -0.1875  0.0448 -0.0168
 9981W        W12181  20.624   2.066  33.816  0.0136 -0.0695 -0.3475
 9982W        W12182  19.461   0.464  20.588  0.0926 -0.0781  0.0544
 9983W        W12183   2.620   1.432  23.597 -0.0589 -0.0274 -0.0824
 9984W        W12184  12.305   5.786  25.875  0.1298  0.0365  0.1894
 9985W        W12185  19.728   3.477  21.149  0.1912  0.1712  0.0206
 9986W        W12186   5.533   3.897  12.449  0.0305  0.1554 -0.0199
 9987W        W12187  22.249   5.244  25.557 -0.0277  0.0467 -0.0641
 9988W        W12188  14.532   5.076  28.176 -0.0895  0.0207 -0.0402
 9989W        W12189   0.735   1.411  30.940 -0.0838 -0.1388  0.0738
 9990W        W12190   6.900   0.309   1.343 -0.1339  0.0057 -0.3077
 9991W        W12191  21.559   0.557  24.106 -0.0070 -0.2324 -0.0496
 9992W        W12192  13.050   5.201  27.417  0.1065 -0.1578  0.1075
 9993W        W12193   0.012   3.655   7.934  0.1636  0.0317  0.1727
 9994W        W12194  23.451   2.368  35.472 -0.2787  0.1017 -0.1706
 9995W        W12195  18.937   0.609   7.262 -0.1733 -0.2025 -0.1472
 9996W        W12196  15.611   1.741   2.642  0.2240 -0.2700  0.1020
 9997W        W12197   1.324   2.322   1.443  0.0131  0.0625 -0.0275
 9998W        W12198  26.064   0.510  10.617  0.1769  0.1460  0.1449
 9999W        W12199  10.890   2.206   7.195  0.0902  0.0704  0.1024
10000W        W12200   0.720   4.238  31.401 -0.4645 -0.2815  0.2738
10001W        W12201   8.582   5.050  13.055  0.2067 -0.0044  0.1981
10002W        W12202  16.967   5.248   9.806  0.1463  0.0837  0.0957
10003W        W12203  24.876   2.769   5.933  0.1813 -0.0091 -0.3175
10004W        W12204   7.859   0.872   3.609 -0.2843 -0.0275  0.1472
10005W        W12205  13.908   3.221  12.504  0.2411  0.3242  0.4578
10006W        W12206   4.577   2.115  15.173 -0.2951 -0.0905  0.1020
10007W        W12207  10.875   1.541   9.940  0.0278 -0.1798 -0.1752
10008W        W12208  15.097   5.014   0.916 -0.3460 -0.1596 -0.2599
10009W        W12209   2.437   3.220  30.071 -0.0500  0.2077  0.1337
10010W        W12210   7.553   2.049   9.644 -0.0926 -0.1372  0.0962
10011W        W12211  19.566   0.386   9.855 -0.0028 -0.0209 -0.2540
10012W        W12212  23.155   3.297  15.267  0.0029 -0.1676 -0.4116
10013W        W12213  25.753   6.509  14.723 -0.1057  0.0634 -0.1411
10014W        W12214  15.928   3.823  13.598  0.0072 -0.1434  0.0826
10015W        W12215  23.301   4.124  15.058 -0.4181 -0.1389  0.0140
10016W        W12216   9.356   3.420   2.015  0.0117 -0.1242 -0.2628
10017W        W12217   0.437   3.447   4.520 -0.0184 -0.3208 -0.0068
10018W        W12218  17.950   0.023   4.593 -0.2106 -0.2498  0.0505
10019W        W12219  23.648   5.728   3.083 -0.1084 -0.5883 -0.1077
10020W        W12220   7.157   3.408  20.980 -0.1731  0.0310  0.0344
10021W        W12221  12.021   5.866  29.668  0.0146  0.0859 -0.1062
10022W        W12222  14.900   4.262  12.477  0.0833 -0.1151 -0.0804
10023W        W12223  24.955   0.171  24.925 -0.1302  0.0174 -0.0862
10024W        W12224   8.813   2.127   7.633 -0.0150 -0.3148 -0.3460
10025W        W12225  22.470   4.277  14.497  0.0589  0.0376  0.2774
10026W        W12226  21.643   1.742   5.784 -0.0993 -0.0253 -0.1053
10027W        W12227   4.739   3.923   9.572  0.0231  0.2811 -0.1061
10028W        W12228   9.878   0.718  28.316  0.0734 -0.0546 -0.2104
10029W        W12229   4.771   2.707  13.035  0.0443 -0.1853 -0.1666
10030W        W12230  25.890   0.539  34.501  0.0687  0.2192  0.1177
10031W        W12231  11.278   5.473  26.159  0.1355 -0.0173  0.0617
10032W        W12232  18.664   4.042  24.781  0.1413  0.2947  0.0931
10033W        W12233  16.199   5.416  26.133  0.2717  0.0904  0.0702
10034W        W12234  11.721   0.134  22.366  0.3064 -0.2821  0.0503
10035W        W12235  13.327   5.781  23.716 -0.0445  0.1129 -0.0769
10036W        W12236  25.989   3.117   4.383 -0.1460  0.2475  0.0193
10037W        W12237  14.816   0.477  33.684  0.0199 -0.0811  0.1191
10038W        W12238   5.044   2.293  10.654 -0.1363 -0.2692 -0.0670
10039W        W12239  22.130   1.496  15.291 -0.4460 -0.0002 -0.1295
10040W        W12240   3.192   3.793   6.538 -0.1281 -0.1375  0.4727
10041W        W12241  23.837   3.414  28.628 -0.0095 -0.0732  0.2136
10042W        W12242  19.718   4.098   6.015 -0.1875 -0.1954  0.1284
10043W        W12243   4.174   0.039  27.072  0.0265 -0.1486  0.1092
10044W        W12244  13.451   2.903   0.799  0.1763 -0.2482 -0.0391
10045W        W12245  21.108   4.935  28.154  0.2348  0.1362  0.2205
10046W        W12246  23.369   2.667  25.306 -0.2178  0.0321  0.0399
10047W        W12247   9.359   6.567  32.027  0.0289  0.0548  0.0142
10048W        W12248   1.670   3.820  11.285  0.4827 -0.0399 -0.1949
10049W        W12249  11.114   3.170  27.861 -0.0232  0.1234 -0.2079
10050W        W12250  20.057   5.951  10.339  0.1733 -0.0814  0.5234
10051W        W12251   8.574   6.389   4.286  0.0087 -0.0912 -0.1815
10052W        W12252  17.797   4.329   5.985 -0.0634  0.1245  0.2575
10053W        W12253   3.044   4.077  33.617 -0.0623 -0.1155 -0.0555
10054W        W12254  22.620   3.894  26.071  0.2989  0.2590 -0.0459
10055W        W12255  16.761   3.279  23.245  0.1543  0.3297  0.0201
10056W        W12256   2.305   2.331   2.437 -0.0057 -0.1791  0.0036
10057W        W12257   6.890   5.138   0.621  0.0160 -0.0258 -0.1021
10058W        W12258   5.251   4.892  13.291 -0.0974 -0.1605 -0.2875
10059W        W12259  18.007   0.693  21.953  0.0367  0.0345  0.1986
10060W        W12260   1.256   6.108  20.846 -0.0198  0.0983 -0.0602
10061W        W12261  12.859   0.414  12.675 -0.1694  0.1848  0.0478
10062W        W12262   0.434   1.727  21.345 -0.0657 -0.1576  0.0031
10063W        W12263  13.065   5.026   1.220 -0.2864 -0.1586 -0.0033
10064W        W12264  12.273   1.474  24.732 -0.0419  0.1408  0.0822
10065W        W12265   6.408   2.596   4.486  0.0198 -0.0167  0.2159
10066W        W12266   2.694   0.630   2.658 -0.2595  0.1224 -0.0647
10067W        W12267  13.660   5.114  26.192  0.2824  0.3344  0.0053
10068W        W12268  14.922   3.969  34.073 -0.0693  0.1605  0.0289
10069W        W12269   9.332   5.651  34.094  0.0203  0.1785 -0.1587
10070W        W12270  24.088   2.465  35.616 -0.2846 -0.0804 -0.0777
10071W        W12271   5.133   4.004   4.430  0.0391 -0.1208 -0.1385
10072W        W12272  12.139   3.741   3.783 -0.0711 -0.1049  0.2141
10073W        W12273   5.886   4.865   7.653 -0.2457 -0.2804 -0.0551
10074W        W12274   5.442   2.695   2.628 -0.0011 -0.0637  0.1130
10075W        W12275  19.357   4.880  27.717 -0.0274  0.0181 -0.0485
10076W        W12276   4.388   0.726   6.534  0.3132  0.2407  0.1025
10077W        W12277  12.650   0.886   3.261 -0.2193  0.0026  0.0312
10078W        W12278  19.043   1.037  34.539 -0.2730  0.1754  0.0105
10079W        W12279   1.151   3.625  10.424  0.2222  0.0816  0.1173
10080W        W12280  20.762   5.277  22.173 -0.0616  0.3835 -0.1637
10081W        W12281  18.993   2.150  32.229 -0.1002  0.0321  0.2394
10082W        W12282  20.815   2.970  24.692 -0.0461  0.1396 -0.0159
10083W        W12283   1.909   3.946  12.553  0.3873 -0.2765 -0.0941
10084W        W12284  16.990   3.240   8.065 -0.1058 -0.1100 -0.4263
10085W        W12285  13.461   6.509  14.045 -0.0803 -0.0848 -0.0200
10086W        W12286  19.754   1.720  10.507 -0.1020  0.2523  0.3693
10087W        W12287  12.417   2.115  13.058  0.0038 -0.0514  0.0896
10088W        W12288  14.679   0.521  32.065 -0.4628 -0.2189 -0.1813
10089W        W12289  14.631   2.180  31.552 -0.0939 -0.0750  0.1738
10090W        W12290   2.867   4.850   8.178 -0.1595  0.1486  0.0258
10091W        W12291  17.967   1.023   3.271  0.4013 -0.0031  0.0011
10092W        W12292   8.984   3.600  29.088  0.0763  0.0560  0.0182
10093W        W12293   4.069   4.235   5.410  0.3593 -0.1043  0.0255
10094W        W12294  19.747   1.121   2.692 -0.0779  0.1753 -0.1099
10095W        W12295   9.799   2.647  28.003  0.2966 -0.1998  0.1312
10096W        W12296  25.775   0.330   4.390  0.2735  0.0546 -0.4191
10097W        W12297  25.027   4.515   3.794  0.0417  0.0346  0.4443
10098W        W12298  22.622   5.401   2.493 -0.0016  0.0882  0.2603
10099W        W12299  25.363   4.040   5.178  0.0247  0.0502 -0.0585
10100W        W12300  14.458   0.377   5.216 -0.1919  0.2430 -0.0441
10101W        W12301  15.154   0.189  10.525  0.1454 -0.1635 -0.2090
10102W        W12302   2.638   2.116  27.533  0.1941 -0.1377 -0.0843
10103W        W12303  11.800   4.587   5.436  0.2215 -0.2197  0.0038
10104W        W12304  26.247   2.680  23.572  0.0587 -0.4068 -0.1159
10105W        W12305   4.740   5.460  23.793  0.3234 -0.0260  0.0621
10106W        W12306   8.341   1.738  14.176  0.1612 -0.2575  0.1936
10107W        W12307  25.954   6.544  34.461 -0.4322 -0.0218  0.2535
10108W        W12308  10.594   1.246  33.996  0.1900  0.2173  0.1852
10109W        W12309  10.338   4.601   9.366  0.4457  0.1949 -0.0634
10110W        W12310  23.866   2.763  30.619  0.0731  0.0152  0.0727
10111W        W12311   7.902   2.095  30.200 -0.0873  0.1772  0.0750
10112W        W12312   9.693   1.451  30.143 -0.2151 -0.2244  0.2933
10113W        W12313   1.890   2.427  35.850  0.1573  0.3578 -0.0595
10114W        W12314  16.659   0.151   7.372  0.0883  0.1321  0.0906
10115W        W12315  17.071   1.089  30.416 -0.1191 -0.0619  0.0473
10116W        W12316   2.519   1.522   4.224 -0.4392  0.3873  0.0190
10117W        W12317  21.673   4.578  23.700 -0.1029  0.0336  0.2300
10118W        W12318   7.626   1.773  12.020  0.2863  0.0967 -0.0280
10119W        W12319   6.330   6.511   8.227  0.1452 -0.2837  0.0519
10120W        W12320  14.729   4.966  26.326 -0.0751  0.1027 -0.2010
10121W        W12321  16.564   5.230  14.913 -0.1465 -0.0153 -0.0692
10122W        W12322  23.011   0.382  24.731 -0.1224 -0.1986 -0.0262
10123W        W12323  22.731   5.237  26.019 -0.1157  0.0543  0.0379
10124W        W12324  25.042   0.514  26.325 -0.0132 -0.2130 -0.3098
10125W        W12325  13.762   4.262  31.838 -0.2400  0.1272  0.1148
10126W        W12326  22.899   3.502  30.257 -0.2653  0.0529 -0.0740
10127W        W12327   9.922   3.407  10.884 -0.0565 -0.2773  0.1776
10128W        W12328  23.704   1.785   0.289  0.1172  0.1117 -0.0699
10129W        W12329   1.321   2.381  21.652  0.1378  0.5593  0.1852
10130W        W12330   4.991   6.353  14.167 -0.1261  0.1855  0.3931
10131W        W12331  24.931   0.734   8.132  0.1296 -0.1613 -0.2021
10132W        W12332  17.401   5.052  27.214  0.1330  0.1445  0.0421
10133W        W12333  25.477   0.164  13.002 -0.0859 -0.0821 -0.0554
10134W        W12334  11.536   2.945   4.502  0.0585  0.2027  0.2154
10135W        W12335  26.114   4.459  34.891 -0.1021 -0.2189  0.2823
10136W        W12336  20.382   0.269  32.262  0.1153  0.0937  0.1063
10137W        W12337   1.798   5.657  13.237  0.2305 -0.0772  0.3581
10138W        W12338  23.179   5.455  13.164  0.2083  0.1942 -0.3822
10139W        W12339  21.008   2.250   6.122 -0.0798  0.1362  0.0166
10140W        W12340  18.000   6.556  25.550 -0.0320  0.1878 -0.1094
10141W        W12341   5.915   3.873  14.828  0.1237  0.1111 -0.0640
10142W        W12342  24.300   5.576  13.343 -0.0651  0.3059  0.2963
10143W        W12343  15.363   5.444   4.483  0.1317  0.1379 -0.0654
10144W        W12344   8.274   5.650  15.083  0.0997  0.2649  0.0932
10145W        W12345  15.639   2.433  32.370 -0.0980 -0.0288 -0.0164
10146W        W12346  24.685   0.624  26.690 -0.1226  0.1886  0.1297
10147W        W12347   6.555   4.698  31.056  0.0348 -0.0996  0.0774
10148W        W12348  15.295   6.429  30.171  0.2399  0.1023  0.0030
10149W        W12349  15.727   0.446  36.185 -0.0488  0.0658  0.1470
10150W        W12350  10.128   5.260   7.948  0.1402 -0.1440  0.1797
10151W        W12351   4.229   4.553  36.035  0.0570  0.2947  0.1259
10152W        W12352  20.156   0.915  21.213 -0.2830 -0.0465  0.0906
10153W        W12353  13.731   0.121  27.713  0.0121  0.2611 -0.1539
10154W        W12354   5.589   3.500  31.349 -0.1083 -0.2070 -0.1071
10155W        W12355  26.338   2.005   1.399  0.1157 -0.3600  0.1559
10156W        W12356   8.113   0.331   5.744  0.0248  0.1370  0.0801
10157W        W12357  23.367   1.921   3.056  0.0878  0.1264  0.0269
10158W        W12358  11.343   3.418  35.897 -0.1711  0.1184 -0.2796
10159W        W12359  18.197   3.868  32.623 -0.1846 -0.0802  0.0340
10160W        W12360   3.357   3.257   1.769 -0.1141  0.1092  0.1615
10161W        W12361  17.196   0.375  25.200  0.1126  0.0809  0.2178
10162W        W12362  20.003   2.705   5.749  0.3053  0.4350  0.2058
10163W        W12363  23.094   5.388   2.763  0.0810 -0.0886 -0.0679
10164W        W12364   0.152   1.772   3.914 -0.2112 -0.1110  0.1093
10165W        W12365  17.417   3.376  30.956  0.0034  0.1667  0.3228
10166W        W12366  13.240   4.243  14.485  0.0609 -0.0563  0.1167
10167W        W12367  16.613   5.096  34.944 -0.2906 -0.0848 -0.1073
10168W        W12368  24.496   2.955  14.950  0.0541  0.0627 -0.3127
10169W        W12369   1.083   5.615  11.067  0.2819  0.1165  0.2435
10170W        W12370  17.106   0.087  23.456 -0.1140 -0.1958 -0.3006
10171W        W12371   3.085   1.441  25.459  0.4416 -0.0895  0.0602
10172W        W12372  19.431   0.370  25.556  0.1382  0.1083  0.3545
10173W        W12373  14.174   4.252   7.722  0.0096  0.3815 -0.4689
10174W        W12374  21.604   5.922  13.219 -0.3200 -0.0646  0.0543
10175W        W12375   0.761   3.734  22.336 -0.4798 -0.0613  0.0435
10176W        W12376   1.622   6.102   6.736  0.0041 -0.0315 -0.1585
10177W        W12377  20.692   3.357  27.870 -0.1089 -0.0134 -0.0021
10178W        W12378  19.303   4.174   8.347 -0.0575  0.0297  0.1675
10179W        W12379   1.149   2.634  21.256 -0.2549  0.3293  0.0532
10180W        W12380  20.530   4.679  29.272  0.1079 -0.2250  0.0848
10181W        W12381   6.322   0.302  15.530 -0.0770  0.2916 -0.4303
10182W        W12382   6.144   0.719  31.210  0.0167 -0.0842  0.1026
10183W        W12383  12.244   3.994  13.248  0.0812 -0.0093 -0.2271
10184W        W12384  15.848   5.606  27.777 -0.2523 -0.0256  0.0998
10185W        W12385   6.299   4.465  36.034 -0.0858  0.0611  0.1700
10186W        W12386   4.265   5.660  30.938 -0.0515 -0.2128 -0.1067
10187W        W12387   2.699   2.005  23.503  0.0818 -0.0610  0.2245
10188W        W12388   5.861   2.060  35.681 -0.0572  0.0229  0.0112
10189W        W12389  19.869   5.109   4.671 -0.1265 -0.3411 -0.0635
10190W        W12390  15.199   3.774  23.731  0.1415 -0.0304  0.1657
10191W        W12391  16.322   4.457   0.905  0.2092  0.2116 -0.3806
10192W        W12392  20.961   0.618   2.651 -0.0792 -0.0659 -0.1831
10193W        W12393  11.599   6.090   5.220  0.1576  0.0445 -0.6368
10194W        W12394  17.807   1.108  23.675 -0.1825  0.2387  0.1553
10195W        W12395   1.549   2.284  10.396 -0.1206  0.0520 -0.1602
10196W        W12396  12.233   3.453  24.381 -0.1243 -0.1615 -0.1984
10197W        W12397  21.184   2.837   9.883  0.0397  0.0765  0.1087
10198W        W12398  15.552   3.464  22.754  0.0028 -0.1213  0.3773
10199W        W12399  15.175   2.537  25.196  0.0381  0.1787  0.0618
10200W        W12400  26.427   1.904   3.444  0.0746  0.2635 -0.1293
10201W        W12401   6.611   6.196   7.814  0.2225  0.3592 -0.2530
10202W        W12402  21.093   1.350  26.802  0.2149  0.2215 -0.1169
10203W        W12403  21.237   1.479   4.212  0.0036  0.0354 -0.0475
10204W        W12404   2.858   6.195   9.652 -0.0570  0.0897  0.0528
10205W        W12405  14.069   5.844  22.499 -0.2851  0.2124  0.2465
10206W        W12406  15.435   2.795  34.928 -0.1802  0.0480  0.0447
10207W        W12407  16.625   2.606  32.949  0.1866  0.0162 -0.0117
10208W        W12408   3.838   4.851  15.186 -0.1160 -0.2828  0.1602
10209W        W12409  25.699   0.772  35.215 -0.1022  0.2191  0.0455
10210W        W12410  21.326   3.606   0.494  0.2674  0.2480  0.4835
10211W        W12411   1.427   4.624  34.832 -0.2339  0.2268  0.0791
10212W        W12412  25.893   5.472  22.781 -0.0529  0.0616  0.1015
10213W        W12413  22.941   0.107   4.081 -0.0629  0.1152  0.0708
10214W        W12414  22.362   0.239  35.529  0.0941  0.0148  0.0196
10215W        W12415  24.659   0.429  10.250 -0.1465 -0.0685  0.0719
10216W        W12416   3.247   6.476  32.887  0.0652  0.1014 -0.1826
10217W        W12417   9.137   1.955  11.722  0.1968  0.0874 -0.1718
10218W        W12418  18.160   3.747   1.750  0.1343 -0.2018 -0.0959
10219W        W12419   1.379   4.177   6.218 -0.0603  0.1325 -0.0337
10220W        W12420  18.846   0.325   8.957 -0.1689 -0.0727 -0.4599
10221W        W12421  14.511   6.407  32.536 -0.1336  0.0058 -0.0805
10222W        W12422   0.053   2.211   8.671  0.1588 -0.1535 -0.3108
10223W        W12423  12.362   5.769   1.012  0.2592 -0.3365  0.4828
10224W        W12424  17.374   6.260   1.706 -0.1735 -0.1422  0.1074
10225W        W12425  23.055   0.650  31.669  0.0198 -0.1022  0.0955
10226W        W12426  24.617   5.189  22.231  0.1653 -0.0890  0.0460
10227W        W12427   8.846   3.906  31.094 -0.4667 -0.2654  0.2035
10228W        W12428   9.824   1.613   1.555  0.2243 -0.0020 -0.0924
10229W        W12429  18.978   6.536  35.982  0.0554  0.0242 -0.2272
10230W        W12430  13.185   0.175   1.808 -0.1247  0.1839  0.1738
10231W        W12431  25.935   2.027   1.646  0.0757 -0.0047 -0.0044
10232W        W12432   7.837   4.498  30.000 -0.0999  0.1291  0.2538
10233W        W12433   3.110   3.028  10.446  0.0512  0.0089  0.1000
10234W        W12434   1.010   2.874  12.404  0.2037 -0.0472  0.2839
10235W        W12435  11.291   5.937   8.832 -0.0029 -0.0865 -0.2323
10236W        W12436  26.190   5.480  13.449 -0.0141 -0.2508  0.1529
10237W        W12437  16.137   4.879   2.235  0.0092  0.0377 -0.0223
10238W        W12438   7.372   5.473  34.181  0.1856 -0.2824  0.1752
10239W        W12439   0.341   3.891  35.468 -0.1282  0.0529 -0.2283
10240W        W12440   3.479   3.590   7.626 -0.1678  0.1212  0.0882
10241W        W12441   8.954   1.341  30.129  0.2361  0.2435  0.1252
10242W        W12442   0.018   6.220   0.448  0.0219 -0.1916 -0.0364
10243W        W12443   9.554   2.026   4.751 -0.1838  0.0362 -0.1575
10244W        W12444  17.399   2.623  24.400 -0.1690  0.1267  0.2763
10245W        W12445  19.413   1.809  34.893 -0.0857 -0.1201  0.0616
10246W        W12446  14.464   3.906   3.667  0.1232  0.1099 -0.2658
10247W        W12447  25.053   4.191   2.441 -0.0837  0.2402  0.0643
10248W        W12448  16.558   3.220   7.768 -0.0471  0.0462 -0.2101
10249W        W12449  13.576   1.311   1.657 -0.2665  0.0775  0.0521
10250W        W12450  24.028   4.941  32.889 -0.1499 -0.2875  0.1516
10251W        W12451   5.590   2.191   6.974 -0.0413 -0.4547  0.0916
10252W        W12452  14.615   5.392  11.208  0.2045 -0.0711  0.0008
10253W        W12453  20.118   1.020  10.446 -0.0004  0.0772  0.0986
10254W        W12454  14.652   3.442  35.642 -0.0473 -0.0529  0.1210
10255W        W12455  23.649   4.802  28.691  0.0920  0.1337  0.2508
10256W        W12456   4.245   5.060   1.110 -0.1627  0.0533 -0.2675
10257W        W12457   0.918   6.154   0.076  0.2939 -0.1471 -0.1161
10258W        W12458   3.173   2.714  13.321 -0.3615  0.0505  0.0631
10259W        W12459  20.742   6.094  35.664  0.0634  0.0718 -0.0609
10260W        W12460  14.461   3.095  13.587 -0.1420  0.3642  0.2748
10261W        W12461  10.087   6.392   9.922 -0.1209  0.1241  0.1939
10262W        W12462   7.488   5.586  30.667  0.1746  0.0632  0.2852
10263W        W12463  17.332   5.603  21.664 -0.1768  0.4842 -0.1231
10264W        W12464  25.929   5.678  27.926 -0.1134 -0.1830  0.0238
10265W        W12465  15.411   3.380  34.932 -0.0428 -0.0243 -0.4162
10266W        W12466   8.072   0.834   9.109  0.0429  0.1584 -0.2613
10267W        W12467  10.858   0.654  25.614  0.0549  0.2084 -0.0037
10268W        W12468  22.959   4.480  12.752 -0.1429  0.1468  0.0780
10269W        W12469  23.072   5.388  26.747  0.0292  0.2481  0.1434
10270W        W12470  15.089   3.019  23.961  0.3461  0.0168 -0.0233
10271W        W12471  26.344   4.131  35.189  0.0257 -0.1909 -0.0337
10272W        W12472   4.473   4.569  22.695 -0.0756  0.1015  0.2489
10273W        W12473  15.766   1.816  22.041 -0.1769  0.0932 -0.2522
10274W        W12474   3.321   0.755  15.602  0.1922 -0.1207 -0.4103
10275W        W12475  16.414   4.575  21.067 -0.3152  0.0550 -0.0429
10276W        W12476  13.362   5.636  32.347 -0.1750 -0.2320 -0.1293
10277W        W12477   6.338   2.111   0.423  0.0429  0.1424 -0.0416
10278W        W12478   6.542   5.268  21.411  0.0888  0.2691 -0.2326
10279W        W12479   3.742   6.551  32.363 -0.0809 -0.0715  0.0362
10280W        W12480  23.452   4.493  30.278  0.0245 -0.1168  0.1072
10281W        W12481  15.924   5.792  31.387 -0.2417 -0.0893  0.1682
10282W        W12482  22.985   4.343  14.367 -0.0987 -0.2581 -0.1220
10283W        W12483   2.467   0.386  28.994  0.1944 -0.0955  0.0301
10284W        W12484  23.915   0.771  25.534 -0.0054  0.2581 -0.0946
10285W        W12485  10.808   0.716   2.756 -0.0456  0.1464 -0.0923
10286W        W12486  22.882   1.746   6.808 -0.1672 -0.3252 -0.0412
10287W        W12487  16.553   3.774  34.600 -0.1500 -0.0367 -0.1376
10288W        W12488   4.403   1.582  24.340 -0.2285 -0.0519 -0.1091
10289W        W12489   9.625   2.181  13.890  0.0589  0.1247 -0.1982
10290W        W12490  11.107   3.838  24.418  0.3573  0.1666  0.1168
10291W        W12491  16.471   5.566  25.088 -0.0736  0.1295 -0.2039
10292W        W12492   1.477   5.282  27.125  0.1726 -0.2638  0.1164
10293W        W12493   3.925   6.569  33.524  0.0229  0.0125 -0.0034
10294W        W12494   0.640   3.197  26.007  0.2678 -0.0869 -0.3966
10295W        W12495  20.414   6.567   1.054 -0.0793  0.1667 -0.2461
10296W        W12496   7.097   0.185   4.635 -0.0658  0.0908 -0.1304
10297W        W12497  17.560   5.179  27.693  0.0268  0.3749 -0.3031
10298W        W12498   1.646   1.121   5.115 -0.1295 -0.0675  0.0630
10299W        W12499  23.070   6.139  22.215 -0.2496  0.1575  0.2935
10300W        W12500  10.528   0.365  31.947  0.0438 -0.0564 -0.1421
10301W        W12501   1.009   0.243   6.119  0.1480 -0.2510  0.3670
10302W        W12502  20.700   6.022  12.193 -0.0005  0.0539  0.1432
10303W        W12503  19.532   1.178   1.242  0.2617 -0.1211  0.0469
10304W        W12504  11.793   2.288   2.765  0.1722 -0.2751  0.1437
10305W        W12505  14.626   2.772   0.215  0.0940  0.3975 -0.0510
10306W        W12506  10.753   5.558  25.994 -0.2052  0.0753 -0.2000
10307W        W12507   8.433   1.682  32.370  0.3663 -0.1686 -0.0393
10308W        W12508  20.546   3.017  33.756 -0.0185 -0.0723 -0.3272
10309W        W12509  17.884   3.113   9.768  0.1057  0.1278 -0.0710
10310W        W12510  24.634   6.307  14.687 -0.0752 -0.0034 -0.2554
10311W        W12511  17.717   0.222   5.333  0.0408 -0.2857 -0.0024
10312W        W12512  19.443   3.824  34.086 -0.0940  0.2496 -0.0804
10313W        W12513   0.004   1.029  23.427  0.0578 -0.1776  0.1609
10314W        W12514  17.954   3.936   4.003 -0.0071  0.3292  0.0972
10315W        W12515  20.736   3.991   6.816 -0.1343  0.0442 -0.1432
10316W        W12516   8.859   4.625  10.253  0.1897 -0.2210 -0.3308
10317W        W12517  16.764   6.334  22.746  0.5134  0.0343 -0.0930
10318W        W12518  18.170   4.365  11.822 -0.1008  0.3067 -0.1228
10319W        W12519  12.613   2.639  31.772  0.2359 -0.0635  0.1193
10320W        W12520   5.525   3.316  23.078 -0.0724  0.1168  0.0232
10321W        W12521  18.169   2.023  10.368 -0.0934 -0.2953  0.3977
10322W        W12522   8.143   2.834  24.791 -0.0334 -0.2179 -0.1845
10323W        W12523   0.973   2.852   6.845 -0.2910  0.1641  0.1899
10324W        W12524  10.951   2.608  12.471 -0.1982  0.0061 -0.1645
10325W        W12525  19.211   6.459  26.089 -0.1038 -0.1004 -0.2485
10326W        W12526  23.177   5.468  25.332 -0.1022  0.1875  0.1455
10327W        W12527  17.874   2.385  25.607  0.2924  0.1571  0.1407
10328W        W12528   4.237   6.162   9.435  0.1111  0.1961  0.0135
10329W        W12529  23.413   5.863  20.182 -0.3072 -0.0873  0.1375
10330W        W12530   7.242   1.740   1.957 -0.2311  0.4149 -0.2313
10331W        W12531   1.938   5.848  35.865  0.1251 -0.0167  0.1679
10332W        W12532  21.990   4.121   7.490 -0.1234 -0.3245 -0.1551
10333W        W12533   6.489   1.216  12.376  0.0512 -0.2798 -0.2352
10334W        W12534  20.696   1.830   5.948  0.1187 -0.0241  0.1291
10335W        W12535   7.846   0.288  12.440 -0.3646  0.1126  0.1693
10336W        W12536   6.905   2.118   4.343  0.1073 -0.3957  0.0900
10337W        W12537   5.363   2.711   6.874  0.0050 -0.0702  0.0207
10338W        W12538  11.307   2.345  34.461  0.0661  0.0196  0.1359
10339W        W12539  15.140   1.794  34.050 -0.0776  0.1409  0.0267
10340W        W12540  17.432   4.343   3.288 -0.1016  0.1040 -0.2079
10341W        W12541   2.503   5.524  12.910 -0.3147 -0.1238 -0.1743
10342W        W12542  11.679   2.798  32.282  0.0969 -0.1477 -0.1247
10343W        W12543  25.304   4.219  14.941 -0.1827 -0.1006  0.1374
10344W        W12544  24.425   5.887  31.664 -0.0778  0.0754 -0.1374
10345W        W12545   9.589   3.203  11.197  0.1798 -0.3778 -0.2250
10346W        W12546  20.389   0.202  11.556  0.2215 -0.1283 -0.0832
10347W        W12547   8.104   1.361  14.417  0.3170  0.2746 -0.0555
10348W        W12548  11.742   1.405   1.238  0.0842 -0.1695  0.1331
10349W        W12549  17.535   1.750   2.201  0.0718  0.1883 -0.0510
10350W        W12550  11.565   3.954  26.798  0.0041 -0.3297  0.1412
10351W        W12551  18.286   4.826  10.086  0.0985  0.0281  0.0928
10352W        W12552  20.793   6.526  12.795 -0.0197 -0.1554 -0.1575
10353W        W12553   7.345   1.837   0.670  0.0956  0.1319 -0.1029
10354W        W12554  11.996   3.923  26.433  0.2723  0.0639 -0.1115
10355W        W12555   9.705   6.287   6.050  0.1358 -0.1339 -0.1826
10356W        W12556  16.151   1.444  29.177  0.1515 -0.4240  0.2167
10357W        W12557   3.121   6.072  33.477  0.0294 -0.1713  0.0537
10358W        W12558   1.847   4.275  33.543  0.1114  0.2185 -0.1564
10359W        W12559  22.809   0.586   4.295 -0.0203 -0.0268  0.1837
10360W        W12560   3.228   5.602   3.020  0.3112 -0.1768 -0.2655
10361W        W12561  25.751   0.033  30.410  0.0176 -0.0511  0.1029
10362W        W12562  18.821   2.805  30.187  0.1099  0.1903 -0.2951
10363W        W12563  20.310   2.469  33.025  0.0992  0.2076 -0.0835
10364W        W12564  20.186   3.868   6.192  0.2248 -0.1719  0.0360
10365W        W12565  17.788   0.552  26.901  0.0251 -0.1270 -0.0567
10366W        W12566  15.264   5.742  36.083 -0.0147  0.0772  0.1480
10367W        W12567   0.997   2.450  23.071 -0.1913  0.0851  0.2193
10368W        W12568   4.572   6.164  21.933  0.2128 -0.1514  0.2736
10369W        W12569  22.168   1.959   8.428 -0.3259 -0.0639 -0.1925
10370W        W12570  17.304   2.526   1.679  0.2950 -0.0759  0.0271
10371W        W12571  10.222   2.022  31.982 -0.1545  0.0368  0.0939
10372W        W12572  16.991   1.456  31.708  0.2414  0.1763 -0.0045
10373W        W12573   3.601   2.641  35.450  0.1210  0.0387 -0.0198
10374W        W12574  13.416   2.865  23.212 -0.0980 -0.0976 -0.2204
10375W        W12575  25.656   5.824  25.247 -0.2452  0.0329  0.0310
10376W        W12576   4.422   3.000  33.274  0.3515  0.2140  0.0260
10377W        W12577   9.873   1.796  25.261 -0.2263 -0.0393 -0.0595
10378W        W12578   8.805   5.200  33.509 -0.2224 -0.0371 -0.4539
10379W        W12579   3.920   5.348   6.548 -0.1058  0.0330  0.0472
10380W        W12580  23.708   1.731  35.057 -0.0734 -0.1141  0.0058
10381W        W12581  15.404   4.527   5.068 -0.0641  0.0514 -0.3266
10382W        W12582  12.774   3.970  23.852 -0.0338 -0.1269 -0.0785
10383W        W12583  24.222   5.152   5.891  0.1347 -0.1444  0.1253
10384W        W12584  18.640   6.301  12.174 -0.1389 -0.1224 -0.0073
10385W        W12585   1.936   0.331  14.431  0.2984  0.3274 -0.3018
10386W        W12586  15.302   4.664  27.114  0.0443  0.0400 -0.4307
10387W        W12587   9.037   2.335  16.102 -0.0668 -0.2749  0.1235
10388W        W12588  23.847   0.145  31.946 -0.0126  0.0577  0.3153
10389W        W12589  15.593   4.463  32.412  0.1316 -0.3681 -0.2790
10390W        W12590  22.455   2.970  29.710 -0.0800  0.0094 -0.2810
10391W        W12591   8.549   6.263  31.296  0.0545 -0.2714  0.0542
10392W        W12592  19.897   5.874  11.282 -0.2365  0.1614  0.0296
10393W        W12593  20.083   5.671  22.047 -0.3649  0.0581 -0.2591
10394W        W12594  20.036   0.347  21.180  0.0832 -0.2865 -0.3859
10395W        W12595   3.734   5.253  12.386  0.0623 -0.5109  0.0212
10396W        W12596  18.272   2.112  26.410  0.0705  0.0751 -0.0594
10397W        W12597   7.749   5.523  31.425 -0.3262  0.1666  0.1459
10398W        W12598  13.114   3.264  34.704 -0.0591 -0.0717 -0.1192
10399W        W12599   2.993   2.787  14.659  0.3189 -0.0496  0.0126
10400W        W12600  24.413   2.018   3.556  0.0763  0.0186  0.2415
10401W        W12601  25.144   2.683  10.933 -0.1385  0.1564 -0.1683
10402W        W12602   2.986   4.321   8.139 -0.2377 -0.0813 -0.0132
10403W        W12603   3.084   6.275   5.056 -0.0114  0.3528  0.0839
10404W        W12604   6.912   1.816   4.813 -0.2418  0.3750 -0.2168
10405W        W12605  18.753   0.004  14.626 -0.2057  0.2260 -0.0752
10406W        W12606  22.757   5.902  30.194  0.3405  0.0766  0.2336
10407W        W12607   1.227   6.197   1.773 -0.1802  0.3102  0.0158
10408W        W12608   6.202   3.288  13.238  0.1872 -0.0590 -0.3117
10409W        W12609  16.156   6.087  24.016 -0.0454 -0.0071  0.1178
10410W        W12610   6.593   5.359  31.476 -0.0884  0.2838  0.1707
10411W        W12611  21.654   0.728   2.351 -0.0322 -0.3285 -0.2244
10412W        W12612  21.800   3.183   8.979  0.1971 -0.1347 -0.0533
10413W        W12613  20.594   2.829  10.716 -0.2376  0.1177  0.0261
10414W        W12614  15.809   3.308  27.696  0.0097 -0.0610  0.0675
10415W        W12615  12.823   0.856  33.957 -0.0157  0.1168 -0.0916
10416W        W12616  21.475   3.498   2.800  0.1794  0.0651 -0.2561
10417W        W12617  21.772   3.652  25.625  0.2819 -0.0783  0.0565
10418W        W12618  25.457   2.888   1.745 -0.0311 -0.1183  0.0625
10419W        W12619   2.837   6.493  33.994 -0.2278  0.0711 -0.0546
10420W        W12620  25.487   2.699  35.858 -0.0170  0.0332 -0.1397
10421W        W12621   6.187   2.326  24.576 -0.1452  0.0454 -0.1852
10422W        W12622   7.421   0.021  30.413  0.2250 -0.2233  0.2836
10423W        W12623  14.662   0.220  15.224 -0.0126  0.1441  0.1271
10424W        W12624  15.291   3.925   7.678 -0.1586  0.2361  0.0114
10425W        W12625  24.751   4.839  24.145 -0.0610 -0.1929  0.0206
10426W        W12626  10.643   4.419   0.918 -0.0515 -0.3523 -0.1502
10427W        W12627  20.298   1.332  29.735 -0.1673 -0.0350 -0.2163
10428W        W12628  13.655   1.453   5.189  0.1296 -0.3374  0.4093
10429W        W12629   1.881   4.380  24.754  0.0449  0.1510  0.0349
10430W        W12630  18.263   2.695  35.155 -0.1549  0.0679  0.3409
10431W        W12631  17.784   5.047  34.281 -0.3000  0.2007  0.1221
10432W        W12632  12.134   6.526  22.976  0.0075 -0.0519  0.3974
10433W        W12633  24.838   2.413  31.079  0.2244  0.3434  0.0904
10434W        W12634   1.278   0.593  22.262 -0.0498 -0.0601  0.1961
10435W        W12635  24.328   5.788   4.323  0.1032 -0.1071  0.3735
10436W        W12636  12.015   4.163  11.600  0.0892 -0.1498  0.3023
10437W        W12637  11.662   4.933  23.239  0.1366  0.0860  0.0482
10438W        W12638   1.516   5.473  12.258 -0.2357  0.0023 -0.1994
10439W        W12639  19.568   4.684  33.928 -0.0590  0.3957 -0.1007
10440W        W12640  25.605   5.856  29.436 -0.1073 -0.0071  0.0178
10441W        W12641   4.027   6.272   7.915 -0.0295  0.0005  0.2124
10442W        W12642   6.206   4.449   6.521 -0.1259  0.1351  0.2611
10443W        W12643  18.783   1.436  28.164 -0.1235 -0.2915  0.1631
10444W        W12644  16.813   6.374   7.115  0.0204 -0.1358 -0.3570
10445W        W12645   6.023   1.643  34.511  0.0693  0.2001 -0.0618
10446W        W12646  21.960   5.765  27.346  0.2018 -0.1575  0.0325
10447W        W12647   1.712   5.540  10.041 -0.0891  0.1916  0.2446
10448W        W12648  13.811   5.848   9.333  0.0034 -0.0524 -0.3154
10449W        W12649  13.749   5.629  29.147 -0.2164  0.0334 -0.1135
10450W        W12650  11.792   6.093  34.258 -0.2253  0.2864  0.0329
10451W        W12651   4.266   2.293  12.387 -0.0026 -0.2151 -0.0644
10452W        W12652   9.294   0.228   8.716 -0.0715  0.2638 -0.0170
10453W        W12653   0.542   4.344  22.399  0.4701  0.5656  0.2091
10454W        W12654  21.581   3.786  22.077 -0.2223  0.1635  0.3536
10455W        W12655  25.213   5.941   4.604 -0.2695 -0.1440 -0.0097
10456W        W12656  13.458   2.963  10.166  0.0929  0.3966 -0.0263
10457W        W12657   3.533   5.541   5.861  0.0434  0.0407 -0.4309
10458W        W12658  14.266   1.018  16.444  0.0140  0.0615  0.0581
10459W        W12659  10.018   0.427  15.462  0.0338  0.0390 -0.1945
10460W        W12660  21.194   0.848  35.123 -0.0115  0.2715 -0.1232
10461W        W12661  10.253   6.166  25.256  0.0152 -0.0263  0.1155
10462W        W12662  14.211   0.185   8.127 -0.3621  0.2297 -0.1040
10463W        W12663  13.058   2.881   9.779 -0.0929 -0.0457 -0.5320
10464W        W12664   7.594   4.300  14.620 -0.0294 -0.1184 -0.0205
10465W        W12665  17.214   1.048  21.335 -0.1316  0.1304 -0.0568
10466W        W12666   6.599   5.831   8.182  0.3105 -0.1252  0.2710
10467W        W12667   0.754   5.181   8.181 -0.4309  0.1235 -0.2537
10468W        W12668  10.590   0.141   3.506  0.3568  0.0300  0.0560
10469W        W12669  22.377   1.155   9.501 -0.1261 -0.0888  0.0331
10470W        W12670  22.750   2.374  33.216  0.0731 -0.0543  0.1069
10471W        W12671  18.720   2.532  23.137 -0.0374  0.2527 -0.0328
10472W        W12672   4.548   5.966   8.188  0.0962 -0.1970 -0.0259
10473W        W12673  24.545   2.066   7.292  0.0038 -0.0934  0.0134
10474W        W12674   4.090   1.506  29.117  0.0625  0.3453 -0.0814
10475W        W12675  19.441   3.978  27.696  0.1145  0.4693  0.2519
10476W        W12676  12.345   4.780  30.111 -0.2332  0.0485 -0.0861
10477W        W12677  26.083   4.793  27.433  0.0491 -0.0837  0.0010
10478W        W12678  23.003   5.088  12.389  0.1669 -0.1635  0.0004
10479W        W12679  13.818   2.820   1.787 -0.0237 -0.0784  0.1329
10480W        W12680  22.132   2.982  31.536 -0.3124  0.1469 -0.1557
10481W        W12681  14.233   2.099   5.001 -0.2655 -0.1038  0.1690
10482W        W12682  19.402   5.530  26.147  0.1147 -0.0683 -0.1503
10483W        W12683   5.037   2.922   8.786  0.0865  0.1480 -0.0919
10484W        W12684  17.595   4.557  24.732  0.0320 -0.0604  0.3242
10485W        W12685  14.196   3.163   1.935  0.1052 -0.1029  0.1550
10486W        W12686  18.121   1.971  25.444 -0.1826 -0.1821  0.3391
10487W        W12687  22.417   4.415  22.025  0.1113 -0.3022  0.3728
10488W        W12688  11.550   3.403  13.603 -0.1496 -0.2343 -0.1936
10489W        W12689  23.262   1.384  31.860  0.2650  0.1026  0.2100
10490W        W12690  22.633   1.244  10.008 -0.0690 -0.1879 -0.2811
10491W        W12691   6.934   0.163  11.808 -0.1509 -0.0356  0.2119
10492W        W12692   1.614   6.366  27.377  0.0327 -0.1571  0.1065
10493W        W12693   9.448   3.607   3.259 -0.0179 -0.1328  0.0365
10494W        W12694   1.024   3.995   9.456  0.2359 -0.1350 -0.0051
10495W        W12695   8.534   4.885  27.322 -0.2196  0.1111 -0.1938
10496W        W12696   4.506   2.651  10.941 -0.4857  0.1386 -0.2568
10497W        W12697   9.224   5.641  22.630  0.1556 -0.2004 -0.0079
10498W        W12698  16.831   1.028  20.436 -0.1237 -0.0448  0.1491
10499W        W12699  21.206   3.091  24.394  0.0225 -0.2384  0.0957
10500W        W12700  19.744   1.530  23.243  0.0097 -0.0272  0.1297
10501W        W12701  20.712   1.866  23.086  0.1636 -0.1175 -0.0102
10502W        W12702  19.803   5.392   1.838 -0.2957 -0.0392 -0.0747
10503W        W12703  25.021   0.121  13.194 -0.1715 -0.1317 -0.0428
10504W        W12704   1.352   2.985  27.124  0.1055 -0.1276 -0.1622
10505W        W12705   7.684   5.930  29.732 -0.0785 -0.1948  0.1671
10506W        W12706  11.351   4.915   3.392 -0.0642 -0.0290  0.4156
10507W        W12707  19.746   0.752   1.238 -0.0993 -0.1000 -0.2048
10508W        W12708   8.289   1.262  28.349  0.1465  0.1779  0.0931
10509W        W12709  21.248   6.050  12.279  0.2492  0.1585  0.3618
10510W        W12710   8.249   3.692   4.121  0.2674 -0.3475 -0.1428
10511W        W12711   1.114   0.351  36.051  0.3115 -0.0016  0.0552
10512W        W12712   1.809   0.511   2.201 -0.0761 -0.0448 -0.1032
10513W        W12713  23.757   0.172  22.305 -0.0150 -0.0501 -0.0982
10514W        W12714  22.250   3.652   5.623 -0.3139  0.4604  0.1192
10515W        W12715  24.475   5.624  22.421  0.1375  0.0333 -0.2651
10516W        W12716  16.821   2.643   5.536 -0.0963 -0.2251 -0.0984
10517W        W12717  23.267   3.924  27.091 -0.0326 -0.1494 -0.0161
10518W        W12718  11.626   3.902  13.763  0.2244  0.2930  0.1001
10519W        W12719   3.116   0.277   4.020 -0.4088 -0.3056 -0.1781
10520W        W12720  16.663   1.058  31.841  0.4265  0.1944  0.0554
10521W        W12721  11.038   3.473  23.172  0.2919 -0.0533  0.1166
10522W        W12722  24.977   0.767   5.873 -0.5031  0.2393 -0.1192
10523W        W12723  16.343   6.041  11.002 -0.0425  0.0107  0.3031
10524W        W12724  13.104   1.097   4.512 -0.2652 -0.0908 -0.2528
10525W        W12725   8.816   2.216   0.875  0.2772 -0.1125  0.2063
10526W        W12726  17.556   3.812  10.806 -0.1611 -0.0967  0.4593
10527W        W12727  16.066   5.906   1.144  0.0245  0.2899 -0.2789
10528W        W12728  17.401   1.270  27.273 -0.0647  0.1124 -0.2495
10529W        W12729  17.985   2.531   5.934  0.0266 -0.2499  0.1136
10530W        W12730   4.514   5.105  27.829 -0.0771  0.1206  0.4894
10531W        W12731   5.267   6.281  14.565  0.2908 -0.0117 -0.1454
10532W        W12732   3.226   2.430   8.658 -0.0936  0.0993 -0.3070
10533W        W12733   3.757   0.398  13.078  0.1893  0.1202  0.2840
10534W        W12734   1.732   5.956  29.544 -0.0266 -0.4233 -0.0691
10535W        W12735  21.762   3.148  26.461  0.3473 -0.2554  0.1731
10536W        W12736   9.106   5.489  10.001  0.0989 -0.0037 -0.0346
10537W        W12737   6.472   4.529   8.359 -0.2221  0.0455  0.0846
10538W        W12738  20.656   6.228  20.315 -0.3102 -0.0891  0.1111
10539W        W12739   2.573   1.819   3.723  0.1251 -0.0149 -0.2701
10540W        W12740  20.306   5.067  23.032  0.2014 -0.0517 -0.0290
10541W        W12741  14.006   5.313  20.653  0.2657  0.1025 -0.0731
10542W        W12742  16.739   5.056  15.337 -0.2249 -0.0609 -0.2199
10543W        W12743   6.811   0.765  31.694  0.2752  0.0699 -0.0989
10544W        W12744  17.578   3.635  35.179  0.1747  0.0261  0.0162
10545W        W12745  19.916   5.285  23.717  0.1771  0.1268  0.2614
10546W        W12746   3.091   6.324  24.687 -0.0717  0.0111  0.0016
10547W        W12747  18.560   4.601  20.865 -0.2520 -0.0770  0.2246
10548W        W12748  16.421   6.479  21.169 -0.0216  0.1132 -0.1337
10549W        W12749  13.916   5.346   3.130  0.4188  0.4243  0.0942
10550W        W12750  22.444   0.286  21.587  0.0157  0.2686  0.0152
10551W        W12751   5.863   4.982   4.757 -0.1813 -0.0903 -0.1051
10552W        W12752  16.708   6.387  21.780 -0.3446  0.3278 -0.2375
10553W        W12753   4.134   6.267  33.179  0.3470  0.1291 -0.1094
10554W        W12754  21.190   3.258  34.291  0.2067  0.0224 -0.2284
10555W        W12755  16.468   4.826  23.276 -0.5382 -0.1104 -0.2650
10556W        W12756  25.661   3.583  27.184  0.0783 -0.0323 -0.0325
10557W        W12757  18.022   6.416   2.048 -0.2079  0.0171  0.1148
10558W        W12758   3.161   0.695  11.224 -0.0672 -0.1875  0.2116
10559W        W12759  15.248   0.907  10.811 -0.0659  0.0230 -0.0426
10560W        W12760  22.524   3.407  25.297  0.1586 -0.0075 -0.0934
10561W        W12761   1.004   5.419  30.242  0.1793  0.3657 -0.0691
10562W        W12762  17.425   4.594  29.538  0.0249  0.3411  0.1918
10563W        W12763   8.832   1.495   1.717  0.1904  0.0850 -0.0195
10564W        W12764   4.176   5.709   7.247 -0.2775  0.0106  0.3210
10565W        W12765   6.596   1.011  23.939  0.0494 -0.0998  0.2766
10566W        W12766  21.777   4.507   5.441 -0.2651 -0.0475  0.4084
10567W        W12767  16.654   0.079  32.943  0.1464 -0.1532  0.0583
10568W        W12768  13.409   2.760   5.424 -0.0127  0.0130 -0.1665
10569W        W12769  15.119   3.149  33.985  0.1676 -0.3555  0.0675
10570W        W12770  25.965   4.028  14.461  0.0449 -0.3188 -0.1480
10571W        W12771  25.368   4.431  10.104 -0.1787 -0.2676  0.0182
10572W        W12772   8.646   5.338  10.232 -0.2693  0.0911  0.4046
10573W        W12773   9.018   4.249   0.240  0.0079 -0.1262  0.2340
10574W        W12774   6.507   2.115   1.213 -0.0083 -0.1370  0.2032
10575W        W12775   6.561   1.049   8.761 -0.0762  0.1317  0.1971
10576W        W12776  24.769   4.924   0.330 -0.2410  0.1439 -0.2063
10577W        W12777  24.551   5.414  33.734  0.1959 -0.3103  0.0061
10578W        W12778  16.510   3.311   0.304  0.0768  0.4267  0.0108
10579W        W12779   5.127   0.273   8.623 -0.0040 -0.3283 -0.0901
10580W        W12780   5.782   4.161  24.623 -0.0490  0.1024 -0.2371
10581W        W12781   6.656   1.252  14.444 -0.1233 -0.2228 -0.0585
10582W        W12782   2.497   5.398  25.217 -0.1227  0.0749 -0.0257
10583W        W12783  13.069   0.812  12.034  0.0206  0.2436  0.2871
10584W        W12784  19.787   5.233  21.273  0.2433 -0.0859  0.0191
10585W        W12785  13.055   0.492  27.250  0.1432  0.1011 -0.2445
10586W        W12786  17.309   1.770  13.228  0.0588 -0.3003  0.1912
10587W        W12787   2.452   3.665   7.467  0.0872 -0.0789 -0.0632
10588W        W12788   1.928   3.363  33.308 -0.1263  0.0255  0.0221
10589W        W12789   3.940   4.252   2.530 -0.0137 -0.3011  0.3310
10590W        W12790  10.297   1.970  27.768  0.0722  0.2808 -0.2219
10591W        W12791   8.114   1.822  27.113  0.2530 -0.3372 -0.0370
10592W        W12792  14.363   0.936  35.588 -0.0094 -0.0668 -0.0525
10593W        W12793   9.657   4.796  35.982  0.0159  0.0445  0.2595
10594W        W12794   5.103   2.672  13.871 -0.1393 -0.0321 -0.2681
10595W        W12795  24.788   3.347   0.442 -0.2793  0.1107  0.0653
10596W        W12796  14.152   1.242  13.844  0.1414  0.7076 -0.2023
10597W        W12797   8.986   1.618  25.452 -0.1537  0.0824 -0.0964
10598W        W12798   0.133   0.892   2.262  0.0268 -0.1155  0.2033
10599W        W12799  15.447   2.449   4.027  0.0401  0.1808 -0.0322
10600W        W12800   6.941   4.763  14.842  0.1661  0.1248 -0.0921
10601W        W12801  21.657   4.952   4.779 -0.0939 -0.1584  0.0133
10602W        W12802   4.046   0.728  32.744 -0.2788  0.1390  0.2413
10603W        W12803   4.707   3.301  25.835 -0.6935  0.2166 -0.2760
10604W        W12804   0.716   1.066  28.261  0.0262 -0.1850 -0.0128
10605W        W12805  17.254   3.638  11.796  0.1054 -0.3010  0.0758
10606W        W12806   8.484   5.046  26.727  0.0748  0.1868 -0.1411
10607W        W12807  20.741   0.399   7.090  0.0923  0.0146 -0.0062
10608W        W12808  12.742   0.406  25.283  0.1802 -0.3713  0.0755
10609W        W12809  12.185   1.766   1.439  0.0480  0.1888  0.1938
10610W        W12810  19.317   4.131  15.201 -0.1801  0.1540 -0.2760
10611W        W12811  21.053   1.876   1.705  0.0400 -0.2255 -0.3451
10612W        W12812  20.507   1.064  34.105 -0.2329  0.1265  0.0233
10613W        W12813   2.039   6.433  24.074  0.0475 -0.0534 -0.1965
10614W        W12814  26.114   2.401   7.225  0.2853 -0.0837 -0.4122
10615W        W12815  24.554   0.107   7.750  0.2788 -0.0757  0.0262
10616W        W12816  24.768   0.315  27.309 -0.1929  0.2606  0.0907
10617W        W12817  12.137   2.699  32.064  0.1070  0.4715  0.3281
10618W        W12818  10.273   0.468  28.362  0.0749 -0.0828  0.0544
10619W        W12819  20.041   0.461  29.696  0.0729  0.1426 -0.2490
10620W        W12820   1.784   1.727  25.228 -0.3175 -0.0908  0.2438
10621W        W12821  24.721   5.702  26.960 -0.0808  0.1643 -0.1721
10622W        W12822  23.403   6.425  28.637 -0.1540  0.0448 -0.3779
10623W        W12823  11.241   1.451   8.135  0.0132  0.0685 -0.2345
10624W        W12824   1.852   1.392  35.104 -0.0142  0.1098 -0.2699
10625W        W12825  18.619   6.327   5.723  0.1432 -0.1299  0.1324
10626W        W12826  21.570   2.563  21.654  0.0937  0.1760 -0.3479
10627W        W12827  22.458   4.885  27.346  0.2481  0.0261 -0.0677
10628W        W12828   5.113   3.389  22.779 -0.2130 -0.0990 -0.2375
10629W        W12829  23.864   5.792   1.715  0.1530  0.1613  0.0470
10630W        W12830  11.067   6.244  13.313 -0.1781 -0.3263  0.1298
10631W        W12831   7.871   5.110  11.383 -0.1367  0.1518 -0.1508
10632W        W12832  12.512   6.035  35.855 -0.2100 -0.2137  0.2138
10633W        W12833   9.705   3.688   4.754  0.0554  0.2147 -0.3521
10634W        W12834   9.691   4.465  14.698  0.0892 -0.0133  0.3031
10635W        W12835   1.565   0.111  32.228 -0.0466 -0.0170 -0.2274
10636W        W12836  24.180   5.738  32.881 -0.0685 -0.2281 -0.0083
10637W        W12837  12.563   0.451   4.925 -0.0335 -0.0249 -0.1744
10638W        W12838  19.409   0.632   5.675  0.1942  0.1332 -0.0314
10639W        W12839  25.179   6.372   9.810  0.2655 -0.0414  0.2949
10640W        W12840   8.755   5.426  12.069  0.1327  0.0997 -0.1326
10641W        W12841   5.239   5.036  15.655  0.1395 -0.1011 -0.1343
10642W        W12842  10.341   2.211  23.575  0.0319  0.0499  0.0486
10643W        W12843  16.210   1.622  27.075 -0.3459 -0.0135  0.2133
10644W        W12844   2.032   2.283  26.749  0.0207 -0.1516  0.1500
10645W        W12845  26.425   6.464  14.082  0.2078 -0.2562 -0.1582
10646W        W12846  16.045   4.151  31.611  0.0472  0.0453  0.0796
10647W        W12847   9.019   1.921  11.207 -0.0760  0.1924  0.1919
10648W        W12848   4.130   1.042  26.346  0.0577 -0.0196  0.1407
10649W        W12849  13.004   1.109  34.937  0.2405 -0.0487  0.2593
10650W        W12850  10.976   2.163  30.649 -0.1086  0.1395 -0.2573
10651W        W12851  18.412   5.133  25.203 -0.1764  0.1017  0.2180
10652W        W12852   5.153   6.283  28.429 -0.0351  0.0763  0.3576
10653W        W12853  11.529   2.285  34.914  0.0618 -0.1743 -0.1983
10654W        W12854  11.415   5.333   6.324  0.3847  0.1218  0.1402
10655W        W12855  13.953   1.077  33.841 -0.1765 -0.0029  0.1853
10656W        W12856  15.586   1.677   9.013 -0.1612  0.0364  0.0830
10657W        W12857  14.326   3.335   4.522 -0.0196  0.1076 -0.1170
10658W        W12858   5.177   5.709  33.307  0.1391  0.1137  0.1724
10659W        W12859   6.738   5.966   4.244  0.1463 -0.3166  0.0343
10660W        W12860   2.200   2.279   0.654 -0.0164  0.0136 -0.1847
10661W        W12861  23.572   3.491   5.057  0.0922 -0.0055 -0.2609
10662W        W12862  18.133   2.740  30.505 -0.1760  0.1712  0.3761
10663W        W12863  15.939   4.453  34.544 -0.0146 -0.1621 -0.1814
10664W        W12864  22.525   3.255   5.421 -0.1727  0.0193  0.2624
10665W        W12865  24.058   3.102  10.947 -0.2266 -0.4345 -0.1123
10666W        W12866   4.249   5.472   3.827  0.0435 -0.1354 -0.1859
10667W        W12867  17.187   5.159  13.270  0.2663 -0.0063 -0.1324
10668W        W12868  22.768   4.998  35.881 -0.0271 -0.0561 -0.0489
10669W        W12869  14.576   6.007  29.202 -0.0835 -0.3293 -0.1127
10670W        W12870  12.726   0.930  22.265  0.0686 -0.2013 -0.0803
10671W        W12871   6.656   5.224   1.368  0.2141  0.0089  0.1395
10672W        W12872   0.545   2.272   0.682  0.1569 -0.0127  0.0763
10673W        W12873  15.232   2.516  34.472 -0.0315  0.1059 -0.1680
10674W        W12874   8.969   0.453   9.624  0.1147 -0.2229 -0.0899
10675W        W12875  13.423   0.277  31.762  0.1266  0.1515 -0.2009
10676W        W12876  19.895   5.076   6.963  0.2211  0.0395 -0.2642
10677W        W12877  22.255   3.695   3.112 -0.2380  0.2232 -0.0029
10678W        W12878  23.582   4.997  33.235 -0.0614  0.1411  0.0813
10679W        W12879  15.132   0.183  15.188  0.3041 -0.2266 -0.0495
10680W        W12880   0.524   0.020  11.488  0.3319 -0.0715  0.2201
10681W        W12881  11.906   1.024  33.593  0.2242  0.0340  0.0304
10682W        W12882   2.709   0.421  35.407  0.1220 -0.1198  0.1634
10683W        W12883  15.228   1.210  15.732 -0.0563 -0.2075  0.1495
10684W        W12884  26.000   0.435  35.003  0.0141 -0.1722  0.1094
10685W        W12885  20.542   5.024   2.558  0.0854 -0.1179 -0.0898
10686W        W12886  20.196   3.724   3.840  0.2525  0.2347  0.0421
10687W        W12887   7.981   5.335  26.004 -0.0518 -0.2528  0.0846
10688W        W12888   9.257   1.131  32.067  0.1200 -0.2532 -0.0231
10689W        W12889   2.993   5.830  31.314  0.2093 -0.2695  0.1045
10690W        W12890   7.404   6.518  26.780 -0.1687 -0.0919 -0.0521
10691W        W12891   5.380   5.087   9.400 -0.2615  0.4159  0.1171
10692W        W12892   9.024   2.042  28.042 -0.2379 -0.1044  0.2483
10693W        W12893  23.192   5.543  11.306 -0.1096  0.0239 -0.0955
10694W        W12894  16.907   0.542   4.304  0.2508  0.0077 -0.1905
10695W        W12895  10.424   5.708  15.042 -0.0004 -0.1610  0.1531
10696W        W12896  14.895   5.893  30.089  0.2595 -0.1246 -0.2147
10697W        W12897   1.624   4.066   7.620  0.2243 -0.0175  0.0707
10698W        W12898   9.238   5.492  29.688 -0.2282  0.2059  0.1888
10699W        W12899  17.076   3.043  34.092 -0.0528  0.2706  0.1048
10700W        W12900  26.317   3.562  22.967 -0.3092  0.0089  0.0497
10701W        W12901  16.715   4.651   5.834  0.2124 -0.1301  0.2261
10702W        W12902  25.129   4.807  14.928 -0.2002 -0.2277  0.0301
10703W        W12903  11.107   5.573  12.220 -0.0265 -0.2523 -0.2874
10704W        W12904  15.379   0.594  31.440  0.0171  0.0468  0.0212
10705W        W12905  23.050   2.806  34.113  0.2481 -0.0691  0.0728
10706W        W12906  18.360   6.346  33.192  0.2816 -0.1425 -0.1161
10707W        W12907   5.443   2.042  25.688 -0.1307  0.1352 -0.0980
10708W        W12908  21.807   4.890  35.370  0.1420 -0.4354 -0.1481
10709W        W12909  22.452   2.939  21.493  0.1064 -0.1058  0.2305
10710W        W12910  23.517   2.261  12.334 -0.0416 -0.2675  0.1747
10711W        W12911   8.522   4.866  29.500  0.1898 -0.2904 -0.0335
10712W        W12912   7.599   3.365  10.946  0.0721 -0.4069  0.0662
10713W        W12913  23.844   1.930  32.175  0.0421 -0.1795 -0.3620
10714W        W12914  19.115   3.381  31.446  0.0931 -0.2947  0.0876
10715W        W12915   4.598   0.463  22.775  0.0455 -0.0305 -0.0791
10716W        W12916   3.746   2.765  13.897  0.0849 -0.0193  0.0748
10717W        W12917  12.318   6.215  15.067  0.4442  0.1291  0.1570
10718W        W12918   7.697   3.506   3.285 -0.2330  0.2144 -0.4635
10719W        W12919  21.410   2.841  26.043  0.1996  0.2778 -0.1433
10720W        W12920  15.870   1.460   1.969 -0.1445 -0.2535 -0.0306
10721W        W12921  10.501   6.594  14.710  0.2370 -0.0306 -0.0785
10722W        W12922   3.979   1.810  22.822 -0.1530  0.0652  0.1230
10723W        W12923  10.208   3.343  22.313  0.2160 -0.0016  0.2329
10724W        W12924  17.596   5.915  10.300  0.1920  0.1109 -0.1159
10725W        W12925  20.826   4.251  28.494 -0.0108  0.1563 -0.1802
10726W        W12926  23.794   5.762   6.209  0.1293 -0.0554 -0.2459
10727W        W12927  24.972   0.629   5.308  0.0156  0.4207 -0.0680
10728W        W12928   9.237   0.669   5.473 -0.2356  0.2707 -0.1621
10729W        W12929   5.918   3.086  20.417  0.1656  0.0084 -0.0537
10730W        W12930   3.604   5.705   6.311 -0.0978 -0.0046 -0.0717
10731W        W12931  20.749   2.169   3.765  0.2272  0.3971  0.1788
10732W        W12932   2.217   4.577   2.258  0.0562  0.1392 -0.2304
10733W        W12933   7.189   1.788  21.768  0.2792 -0.2407 -0.0982
10734W        W12934  12.101   2.212  14.465  0.0539  0.2328  0.0251
10735W        W12935  16.697   2.052   4.042  0.1067  0.0089  0.0327
10736W        W12936  25.823   3.511  20.972  0.2256 -0.1020  0.1548
10737W        W12937  20.209   2.122  30.264 -0.0572  0.2558 -0.0692
10738W        W12938   8.208   1.711   7.930 -0.1910  0.0924  0.0856
10739W        W12939   1.542   3.876   2.273 -0.2365 -0.1634 -0.1330
10740W        W12940  10.317   3.199   0.210  0.1217  0.2030  0.0808
10741W        W12941   0.889   4.318   9.982  0.0617 -0.0929  0.1728
10742W        W12942  15.359   2.495  29.430  0.1826  0.1052 -0.2442
10743W        W12943  22.042   0.165  26.985  0.0605  0.0051 -0.0409
10744W        W12944  26.009   6.211  13.950 -0.1449 -0.0154 -0.1357
10745W        W12945  21.860   0.799   4.036 -0.3392 -0.3791 -0.0995
10746W        W12946  19.701   1.917   6.059  0.0822 -0.2989 -0.2600
10747W        W12947   4.759   2.052  13.491 -0.0421  0.2199 -0.1348
10748W        W12948   1.452   3.510   1.090  0.1269  0.2326  0.0134
10749W        W12949   8.254   2.518  13.204 -0.0260 -0.0305  0.0452
10750W        W12950   0.628   1.365   0.453 -0.0691 -0.3102 -0.1092
10751W        W12951  14.522   5.819  31.556 -0.1428  0.0205 -0.1970
10752W        W12952   0.503   0.591  29.604 -0.0936 -0.0621 -0.1387
10753W        W12953   6.666   1.757  21.529 -0.1639  0.0081  0.2376
10754W        W12954   9.835   0.566   3.709  0.1112  0.1238  0.0842
10755W        W12955  16.184   4.013   3.611  0.2276  0.1520  0.0907
10756W        W12956   0.249   6.454  28.318 -0.1508  0.2030  0.2611
10757W        W12957   9.945   1.577  24.400 -0.1452 -0.1621  0.1756
10758W        W12958  12.280   2.118   8.837 -0.1440 -0.1653 -0.0822
10759W        W12959   6.256   0.314   6.818  0.0689 -0.2260 -0.1845
10760W        W12960   2.061   2.363  10.491 -0.1007  0.2916 -0.0551
10761W        W12961  11.113   1.640  28.706  0.2176 -0.0300 -0.0956
10762W        W12962  11.015   6.507  10.619 -0.0395 -0.0081  0.2469
10763W        W12963  17.166   0.881  14.055 -0.0208  0.2183 -0.0897
10764W        W12964  20.634   3.415  32.844 -0.0671  0.0155  0.0615
10765W        W12965  25.512   2.330   5.105 -0.1390  0.0498  0.1348
10766W        W12966  22.834   3.772   3.256 -0.1078  0.0481  0.2048
10767W        W12967  18.256   3.834  24.129 -0.0630  0.0794 -0.0294
10768W        W12968   2.110   5.996  31.284 -0.2851 -0.0386  0.3672
10769W        W12969  24.948   0.189   3.489 -0.1530  0.0476  0.0175
10770W        W12970  15.982   5.258  31.304 -0.0706 -0.0993 -0.5038
10771W        W12971  17.771   3.404  26.657 -0.1247  0.0744  0.3005
10772W        W12972  16.767   4.357  30.632 -0.1183  0.0138  0.1834
10773W        W12973   2.565   0.274  25.511 -0.0016 -0.0614 -0.1419
10774W        W12974  15.218   1.245  25.941  0.1021  0.2177 -0.0088
10775W        W12975  18.896   1.441  10.264  0.1479  0.2731 -0.0176
10776W        W12976  11.521   3.655  35.281 -0.0195  0.0283 -0.3124
10777W        W12977  16.399   2.665  33.473  0.3033  0.0709  0.1353
10778W        W12978  25.022   5.677  32.395 -0.0533 -0.1338  0.0600
10779W        W12979   2.177   5.169   2.752 -0.0583 -0.1699  0.0361
10780W        W12980  22.534   6.319   8.702 -0.1338  0.0913 -0.1236
10781W        W12981  13.714   3.486  22.034 -0.1019  0.2642  0.1857
10782W        W12982  12.938   5.885  34.900 -0.0050 -0.0429  0.3382
10783W        W12983  22.239   2.223  32.231 -0.1732  0.2513  0.1666
10784W        W12984   6.015   0.730  27.341  0.2322  0.0057  0.1207
10785W        W12985  15.173   0.155  31.223  0.3431 -0.2198  0.1277
10786W        W12986  25.020   4.636  23.684 -0.0887  0.1803  0.0194
10787W        W12987  10.885   1.894  29.609 -0.1411  0.1207 -0.1574
10788W        W12988  18.123   5.953   0.258 -0.0607  0.2733 -0.0999
10789W        W12989  23.240   1.653  35.255  0.1930 -0.1892 -0.0355
10790W        W12990   4.821   1.748  32.256 -0.0803  0.2321  0.2095
10791W        W12991  13.147   0.713   8.978  0.2809  0.2345  0.1921
10792W        W12992  22.221   5.477   4.307 -0.2713  0.1697  0.1781
10793W        W12993  15.669   6.156  34.894  0.2088 -0.2606  0.1149
10794W        W12994  16.584   6.159  26.630 -0.0251  0.2583  0.0410
10795W        W12995  19.443   2.998  25.915 -0.0420 -0.1456 -0.1904
10796W        W12996  14.116   3.039  28.105 -0.5644  0.1347  0.1033
10797W        W12997  14.791   3.560  25.823  0.1326  0.0381  0.1580
10798W        W12998  17.101   2.714  14.314 -0.1445  0.2002 -0.0964
10799W        W12999  12.783   1.285  14.689 -0.2055  0.2731 -0.2224
10800W        W13000   1.353   4.258  22.977  0.2330 -0.0115 -0.1260
10801W        W13001  11.681   4.474   3.380  0.2496 -0.3824 -0.1291
10802W        W13002   4.032   3.867  14.256  0.3206 -0.1059 -0.0724
10803W        W13003   0.947   1.609  21.533  0.1432 -0.3413  0.1955
10804W        W13004   6.125   3.050   7.354  0.0004  0.3156  0.0190
10805W        W13005   4.655   3.025  10.653 -0.1600  0.1674  0.2876
10806W        W13006   2.641   5.372  36.083 -0.2826 -0.1996 -0.1028
10807W        W13007  10.684   3.187   7.921  0.3419  0.2074  0.0246
10808W        W13008   3.415   0.563   1.195 -0.0519  0.0635 -0.2375
10809W        W13009   9.373   0.686  29.663  0.1258 -0.0242 -0.2366
10810W        W13010  13.801   3.204  23.458  0.1707  0.3248  0.0927
10811W        W13011  19.585   3.183  29.718 -0.0114 -0.0850 -0.0027
10812W        W13012  20.232   5.042  15.306  0.0648 -0.1008  0.0170
10813W        W13013  16.503   2.683  28.966 -0.0130  0.0694  0.1507
10814W        W13014   7.225   1.778  10.903  0.1077 -0.0193  0.1944
10815W        W13015   9.924   2.021  22.138  0.1498 -0.0931 -0.1710
10816W        W13016   5.830   5.583   9.710 -0.0945  0.0874 -0.1721
10817W        W13017   5.859   0.380  31.964 -0.1686 -0.1322  0.2481
10818W        W13018  18.754   4.508  36.133 -0.3382  0.1964  0.0042
10819W        W13019  13.028   0.335   6.611 -0.0863 -0.2443  0.1665
10820W        W13020  26.241   0.801  35.183  0.3161 -0.1486  0.0200
10821W        W13021  18.903   0.167  24.020  0.0817  0.1209 -0.3140
10822W        W13022   8.465   3.680  13.695  0.1939  0.2104  0.2595
10823W        W13023  22.953   5.780  35.339 -0.0775  0.1138  0.1692
10824W        W13024  10.637   3.839  25.670  0.1333  0.2119  0.0128
10825W        W13025   8.499   0.554  27.834  0.0473 -0.0418  0.2710
10826W        W13026  22.293   3.023  26.222  0.2941 -0.1614 -0.0420
10827W        W13027   7.381   2.417  33.439  0.0294 -0.3948 -0.1300
10828W        W13028   7.487   1.563  31.550 -0.5214  0.1764  0.0079
10829W        W13029  20.635   6.001  10.434  0.3838  0.3808  0.2513
10830W        W13030   4.603   0.893   3.680  0.1710  0.1199  0.0591
10831W        W13031  21.595   1.244  34.562  0.0133 -0.1784  0.0904
10832W        W13032   0.807   6.375  31.100  0.3681 -0.1205  0.1178
10833W        W13033   8.708   2.179   4.582 -0.0500 -0.1376  0.1284
10834W        W13034  18.525   1.372   6.526 -0.1081  0.0229  0.2286
10835W        W13035   7.546   4.893  27.995  0.1773  0.0942 -0.0732
10836W        W13036  14.854   3.758  24.333  0.3567  0.0489 -0.1808
10837W        W13037  18.832   0.172  21.944 -0.1347 -0.0383  0.1021
10838W        W13038  12.973   2.139   9.842  0.2345  0.0950 -0.0583
10839W        W13039  16.490   5.970  22.091  0.4987 -0.2611  0.2554
10840W        W13040   6.051   2.947  10.791 -0.5110 -0.0990  0.1314
10841W        W13041  12.366   2.353   0.699  0.0322 -0.1075 -0.0319
10842W        W13042  15.666   0.624  13.857 -0.0295  0.1415 -0.1068
10843W        W13043  13.947   5.833  23.444 -0.0287 -0.5139 -0.2629
10844W        W13044  22.252   4.992  35.132 -0.3196  0.2410  0.0349
10845W        W13045  19.797   0.013   6.322  0.1520 -0.0785  0.0941
10846W        W13046   4.567   6.552  13.566  0.2406 -0.1892  0.0868
10847W        W13047   9.914   4.350   9.212 -0.2388 -0.0787  0.4109
10848W        W13048   0.632   4.023  14.514  0.0667  0.0771 -0.1412
10849W        W13049  12.673   5.761   6.568 -0.1102 -0.0564  0.3774
10850W        W13050  12.235   6.449  21.720  0.1308 -0.4253  0.0188
10851W        W13051   3.705   3.121   7.554  0.2304  0.0498 -0.0974
10852W        W13052  22.407   0.093   9.258 -0.0849  0.2398 -0.0383
10853W        W13053   9.844   3.417   2.107 -0.0955  0.3841  0.0047
10854W        W13054  20.053   5.960  23.573  0.1084  0.2394 -0.2277
10855W        W13055  23.812   1.914  34.171 -0.0270 -0.1042  0.1326
10856W        W13056  19.811   2.135  10.032  0.1371  0.2544  0.3422
10857W        W13057   2.871   0.108  23.114  0.0993  0.0291 -0.0227
10858W        W13058   8.309   6.107  25.005  0.1080  0.1154  0.0311
10859W        W13059  19.901   0.662   7.258  0.1206 -0.0405 -0.0808
10860W        W13060  13.451   5.976  34.846  0.0650  0.1530 -0.2007
10861W        W13061  26.289   0.433  25.433 -0.0646 -0.2094 -0.3415
10862W        W13062   9.741   5.481   0.307 -0.1902 -0.3607  0.0550
10863W        W13063  12.926   3.540  10.895  0.1383  0.0120 -0.1297
10864W        W13064  21.889   4.721  12.436  0.0686 -0.1220 -0.1161
10865W        W13065  13.544   4.970  11.869 -0.3273  0.3522  0.0388
10866W        W13066  23.501   2.831  26.891  0.1240 -0.0535  0.2352
10867W        W13067   2.808   4.433   7.149  0.1675 -0.1970 -0.1243
10868W        W13068  21.270   0.724  27.501  0.0421  0.1029 -0.2196
10869W        W13069  22.566   2.557  29.390 -0.0188 -0.0123 -0.3331
10870W        W13070   7.365   0.553  14.736 -0.1641 -0.1908  0.1075
10871W        W13071   0.334   0.820  35.048 -0.0610  0.1847  0.3055
10872W        W13072  18.496   0.691  12.280 -0.1146 -0.1755 -0.0177
10873W        W13073  10.817   1.036  22.149 -0.0983  0.2262 -0.0267
10874W        W13074  23.452   2.446   6.869  0.1419  0.1974 -0.0656
10875W        W13075  17.735   1.864   5.519 -0.0145  0.3425 -0.0393
10876W        W13076  26.008   0.576   9.800 -0.0052 -0.1694  0.2315
10877W        W13077  15.876   4.576   5.653  0.1005  0.1734  0.0667
10878W        W13078   7.721   0.577  27.513 -0.0585  0.0870 -0.1084
10879W        W13079  19.198   2.202   8.806  0.2522  0.1373 -0.1469
10880W        W13080   5.522   3.144  28.813  0.3904 -0.0086 -0.2153
10881W        W13081  24.225   2.091   0.969  0.0859  0.1956  0.1294
10882W        W13082   9.957   0.164  34.216 -0.1806  0.1977 -0.2304
10883W        W13083  24.106   4.163   5.594  0.2883 -0.2884  0.1116
10884W        W13084   1.371   2.622   8.913  0.1658 -0.1247 -0.0258
10885W        W13085  17.156   3.301   4.858  0.4328  0.0900  0.2408
10886W        W13086  20.772   3.076  22.102  0.1234 -0.1016 -0.0897
10887W        W13087  12.009   6.119  28.282  0.0229 -0.1067  0.1869
10888W        W13088   8.092   4.487  15.369  0.4452 -0.2527  0.0647
10889W        W13089  26.011   4.696   1.678  0.3156  0.1157 -0.1280
10890W        W13090  22.137   6.608   2.862  0.0244 -0.2397  0.3662
10891W        W13091  21.191   4.609  26.272  0.0468 -0.0989  0.2500
10892W        W13092  14.621   3.977  30.536  0.2343 -0.3464 -0.0321
10893W        W13093   0.513   3.717  27.131 -0.1288 -0.3349 -0.1867
10894W        W13094   8.656   1.288   6.239 -0.2496  0.2070  0.4797
10895W        W13095  11.680   3.130  27.615 -0.1921  0.1378 -0.1897
10896W        W13096  13.525   0.901  13.310  0.0299  0.0144 -0.1602
10897W        W13097  25.809   0.058  26.634  0.2461  0.1185  0.0054
10898W        W13098  23.956   3.221   7.158  0.0449  0.1421 -0.3719
10899W        W13099  19.761   3.125  27.919 -0.0534  0.0739  0.0829
10900W        W13100  24.189   2.823  12.678 -0.0263  0.3094 -0.2012
10901W        W13101  16.210   5.946  31.040  0.1587  0.1396 -0.0831
10902W        W13102   9.002   3.881   9.241 -0.0575 -0.1163  0.1366
10903W        W13103  21.682   4.798  26.571  0.2039 -0.0434 -0.3305
10904W        W13104  18.872   0.404   4.839  0.7041 -0.2058 -0.2573
10905W        W13105  20.652   5.623   8.950 -0.0253 -0.0445  0.1099
10906W        W13106  14.122   0.471  31.167 -0.1667  0.0615  0.0076
10907W        W13107  11.340   3.489  31.044  0.0726  0.0689 -0.0205
10908W        W13108   1.757   2.698   9.603  0.4648 -0.1944 -0.0749
10909W        W13109   1.097   5.940  29.240  0.2497 -0.2601  0.1299
10910W        W13110   7.779   6.213   0.992 -0.0033 -0.0250  0.1138
10911W        W13111  17.425   0.821  30.702  0.1221  0.0875  0.0792
10912W        W13112  25.254   0.921  12.488 -0.4199 -0.0876 -0.2630
10913W        W13113  13.443   3.987  35.612 -0.0680 -0.1028  0.0673
10914W        W13114  11.865   3.928   1.236 -0.0038  0.0585 -0.0049
10915W        W13115   2.878   1.762  35.119 -0.3013 -0.0047  0.1369
10916W        W13116  21.096   4.021  20.767 -0.0517  0.1500 -0.2761
10917W        W13117  16.854   4.545  13.960  0.2950  0.1891 -0.2475
10918W        W13118  14.661   4.786  31.506 -0.0819  0.1892 -0.1305
10919W        W13119  11.567   4.791  12.308 -0.2694 -0.0419 -0.1081
10920W        W13120  18.719   3.476   1.583 -0.4203 -0.1211 -0.0783
10921W        W13121  21.572   0.519   9.361  0.1665  0.0735 -0.2003
10922W        W13122   4.390   2.819  26.755  0.0874 -0.1228 -0.3846
10923W        W13123   1.003   2.173  20.184  0.1915  0.1380  0.1869
10924W        W13124  12.087   4.729  13.667 -0.2791  0.0717  0.0682
10925W        W13125  11.183   4.294  11.997  0.0953  0.0550 -0.0687
10926W        W13126   7.751   5.968   6.282 -0.1601  0.0275  0.3612
10927W        W13127   5.406   0.842   8.272 -0.0761  0.0904 -0.1173
10928W        W13128   5.864   3.014   5.986 -0.0281 -0.0069  0.2099
10929W        W13129   8.616   5.563  31.123 -0.0739 -0.2655  0.1507
10930W        W13130  18.073   5.307   6.851  0.0581  0.0261  0.1431
10931W        W13131  20.396   3.145  23.210 -0.3111  0.1149 -0.2147
10932W        W13132  20.456   4.259  31.418  0.1861 -0.2025 -0.0453
10933W        W13133   4.603   0.963   6.961  0.1191 -0.1455  0.2600
10934W        W13134   3.152   6.445  35.328 -0.0158  0.2119  0.2199
10935W        W13135  24.259   6.107  25.953  0.0759 -0.0629 -0.0308
10936W        W13136  15.733   1.843   6.614  0.0634  0.3909  0.1112
10937W        W13137  15.161   3.489   6.798  0.1195  0.0677 -0.2104
10938W        W13138   6.399   1.771  10.606 -0.1211  0.0604 -0.4020
10939W        W13139  23.224   2.227   1.951 -0.0494 -0.0103 -0.2132
10940W        W13140  15.753   0.909  31.566  0.1430  0.1067  0.0194
10941W        W13141  15.551   1.411  25.622  0.2015 -0.1327  0.1795
10942W        W13142   6.818   4.449   8.830 -0.1835  0.0165  0.4555
10943W        W13143  11.939   5.430   9.479  0.2681  0.2641 -0.0071
10944W        W13144  13.989   1.796  12.547  0.0393  0.0295 -0.0167
10945W        W13145   8.882   0.401  29.565 -0.2190  0.1040  0.1154
10946W        W13146  24.278   6.573   4.684  0.2847 -0.5964  0.0764
10947W        W13147  16.638   4.325  33.790 -0.1135 -0.1719  0.2310
10948W        W13148   4.103   1.334   0.211 -0.2097  0.3259  0.0665
10949W        W13149  24.952   0.600  20.960 -0.0776 -0.1226 -0.4293
10950W        W13150   4.796   4.355  28.361 -0.0421  0.0617  0.1683
10951W        W13151   1.558   4.023  24.571  0.1080  0.0021 -0.2433
10952W        W13152  14.617   0.571  29.975  0.0856 -0.2925 -0.0425
10953W        W13153   3.259   1.294  28.629 -0.0640 -0.3595 -0.2319
10954W        W13154  22.449   3.162  22.972 -0.1417 -0.0959 -0.1300
10955W        W13155  14.976   1.037  14.815  0.2138  0.1737 -0.0040
10956W        W13156  25.230   1.098  20.453  0.2016  0.1323 -0.0468
10957W        W13157   0.828   6.517   7.289 -0.2183 -0.0485  0.0081
10958W        W13158  23.166   3.665  34.132  0.1293 -0.1074  0.1693
10959W        W13159  19.201   6.179  22.668  0.2976 -0.1094  0.1561
10960W        W13160  26.025   1.168   7.205  0.1391 -0.1976 -0.2925
10961W        W13161  17.869   6.150  20.544 -0.2868  0.0328  0.4870
10962W        W13162   4.174   4.736  11.214 -0.3268  0.0720  0.0113
10963W        W13163  24.108   0.596   8.889  0.1598  0.2428  0.1448
10964W        W13164  23.086   1.596   0.833  0.0230 -0.2106 -0.1960
10965W        W13165  15.768   0.022  11.038 -0.1840  0.0934  0.4043
10966W        W13166  18.811   2.016   8.441  0.1824  0.0184 -0.2686
10967W        W13167  13.361   3.940   0.808 -0.2912 -0.0431  0.1847
10968W        W13168  22.608   2.093   5.634  0.0372  0.1254  0.0035
10969W        W13169   8.755   4.084  10.605  0.0112  0.0532  0.1878
10970W        W13170   0.791   0.581  29.199  0.0429  0.1565  0.1489
10971W        W13171  20.415   3.297   9.987 -0.1035 -0.0028 -0.3018
10972W        W13172   3.707   6.304   6.137 -0.0594  0.0857 -0.0004
10973W        W13173  13.947   5.085   4.848  0.1108  0.1649 -0.1400
10974W        W13174   4.314   5.552   3.190  0.0221 -0.3649 -0.1040
10975W        W13175  21.938   2.964  10.346 -0.0247 -0.0099  0.1040
10976W        W13176  14.063   1.256  33.342 -0.0686 -0.0530 -0.0761
10977W        W13177  13.295   6.096   0.263  0.1707  0.1249 -0.0481
10978W        W13178   7.652   4.999  15.404  0.0921  0.1188  0.1190
10979W        W13179  23.604   4.407  26.288 -0.0218 -0.2240 -0.1223
10980W        W13180  14.974   4.954   6.496  0.1199 -0.0191 -0.2198
10981W        W13181   4.103   5.977   5.200  0.6179 -0.3055  0.2261
10982W        W13182  15.138   0.021  20.986 -0.0898  0.2038  0.0675
10983W        W13183  19.658   5.523  33.924  0.2938  0.0097 -0.2445
10984W        W13184  23.710   3.348  11.498  0.0088 -0.0026  0.0687
10985W        W13185  25.183   6.146  32.562  0.1104  0.0432  0.3216
10986W        W13186   5.828   4.083  13.798 -0.0019  0.2707  0.1873
10987W        W13187   1.505   3.566  30.399  0.0716 -0.0248 -0.0580
10988W        W13188   7.113   1.533   8.369  0.0241  0.3562 -0.0364
10989W        W13189  18.986   2.723  31.173 -0.1269 -0.0252 -0.1081
10990W        W13190  20.357   1.007   0.822  0.0114  0.2372  0.1936
10991W        W13191  10.987   1.666  12.067  0.1193  0.2230 -0.2069
10992W        W13192  16.908   2.740  33.619  0.0094 -0.0879  0.1421
10993W        W13193   4.001   2.754  32.925  0.1328 -0.1268 -0.1815
10994W        W13194   2.709   1.828   7.466  0.2490  0.3717  0.1637
10995W        W13195  23.237   3.582   9.844 -0.0233 -0.1791  0.0979
10996W        W13196   4.249   1.367  24.762 -0.1983 -0.1766  0.0950
10997W        W13197  21.674   1.206   6.605  0.1280 -0.0457  0.0288
10998W        W13198   1.623   6.031  32.754 -0.0705 -0.1407 -0.3996
10999W        W13199   5.199   3.907   4.953  0.2338 -0.0078 -0.0812
11000W        W13200   8.902   2.638  27.943  0.2942  0.0282 -0.4018
11001W        W13201  12.425   5.264  12.236 -0.2989 -0.2972  0.1960
11002W        W13202   4.400   0.052   4.386  0.0792  0.2507 -0.0779
11003W        W13203   5.033   2.480   5.575 -0.0589  0.0203 -0.1177
11004W        W13204   9.967   6.538   6.425 -0.1074 -0.0713  0.0300
11005W        W13205  13.298   1.993  31.434  0.0838  0.0414 -0.1125
11006W        W13206   8.769   0.859  13.049  0.0654  0.0833 -0.2611
11007W        W13207  19.889   1.084  27.152 -0.2737  0.2372  0.1548
11008W        W13208  14.785   6.330  15.294 -0.0999 -0.0133 -0.1673
11009W        W13209  22.246   1.870   1.859  0.3088 -0.4849  0.2851
11010W        W13210   4.299   6.494   0.060 -0.2157 -0.1429 -0.1003
11011W        W13211  25.082   1.878  12.465  0.1916  0.0118 -0.0470
11012W        W13212   7.516   3.812   3.691 -0.1724  0.1733  0.1152
11013W        W13213  14.628   1.344  34.594 -0.0535 -0.0277 -0.2183
11014W        W13214  16.768   4.527  14.466 -0.3868 -0.2277 -0.0049
11015W        W13215   0.877   3.066  35.561 -0.0941 -0.1027  0.0150
11016W        W13216  11.964   4.195  32.612  0.1247 -0.1123  0.0865
11017W        W13217  12.159   6.046  23.040  0.1158  0.1149  0.0496
11018W        W13218  23.442   3.771  21.964 -0.1637 -0.0935 -0.0626
11019W        W13219  17.280   1.079   6.412  0.2727  0.1143 -0.0936
11020W        W13220  14.401   1.098   7.971  0.1761 -0.1012  0.3459
11021W        W13221  17.042   2.439  25.140 -0.0419  0.1318 -0.1822
11022W        W13222  13.990   2.361  23.860 -0.1085  0.1119  0.2359
11023W        W13223  25.274   4.081   9.591  0.0919 -0.1604  0.0573
11024W        W13224  16.278   1.367  28.093  0.0217  0.0996 -0.0862
11025W        W13225  15.209   1.886   2.326  0.1662 -0.2242  0.2161
11026W        W13226  17.849   1.748  34.910 -0.0453  0.1578  0.2835
11027W        W13227  22.843   2.131  21.628 -0.1174  0.2321  0.0044
11028W        W13228  20.064   5.819  29.828 -0.0530 -0.1405 -0.0486
11029W        W13229  10.318   0.313  29.596  0.1420 -0.0969 -0.1805
11030W        W13230  21.267   1.135  23.439  0.0676 -0.0796 -0.0837
11031W        W13231  23.661   4.308   9.216  0.0335  0.1644 -0.1995
11032W        W13232   0.093   4.015  23.119  0.0849 -0.0939 -0.2288
11033W        W13233   3.887   3.447   8.339  0.1330  0.0037  0.2664
11034W        W13234  10.977   1.163  35.389 -0.2875 -0.3247 -0.0753
11035W        W13235   5.956   3.624  12.846  0.3633  0.0317 -0.0448
11036W        W13236   5.551   4.338  21.240  0.0435 -0.2184  0.2993
11037W        W13237   1.475   3.242  33.646  0.2422 -0.0669 -0.0888
11038W        W13238  26.314   6.269   1.353  0.1586  0.1531 -0.1660
11039W        W13239   6.690   4.380  35.132  0.0724 -0.0988  0.2577
11040W        W13240  19.720   3.812  34.633 -0.0224 -0.0390 -0.0787
11041W        W13241  21.381   0.496   7.779 -0.2045  0.0389 -0.2551
11042W        W13242   2.021   1.521  34.224  0.1946  0.2087  0.0303
11043W        W13243  24.988   4.572  33.780 -0.0490  0.0283  0.0877
11044W        W13244  12.976   3.571   3.158 -0.1946 -0.0604 -0.0611
11045W        W13245  16.378   1.216   3.437  0.1399 -0.0517  0.0251
11046W        W13246  14.320   0.896   1.409  0.2284 -0.0345 -0.1383
11047W        W13247  26.063   4.194  34.199  0.2889  0.0807 -0.1953
11048W        W13248  10.107   1.064   3.602  0.0328  0.1342  0.0259
11049W        W13249  26.097   2.949  33.191  0.0159  0.2905 -0.0827
11050W        W13250  10.681   4.167  15.565 -0.1736 -0.0074  0.1950
11051W        W13251   0.953   2.997  28.772  0.0994 -0.2410 -0.0275
11052W        W13252  19.986   1.336  30.382  0.3014 -0.0519  0.0292
11053W        W13253  15.189   4.732  15.145  0.4112  0.2839  0.0006
11054W        W13254   6.613   3.134  22.562 -0.1587 -0.2375 -0.1103
11055W        W13255   8.104   2.416   5.803 -0.2308  0.0503 -0.0246
11056W        W13256  21.256   4.990  22.300 -0.0464  0.2895  0.0191
11057W        W13257  25.824   4.857   9.114 -0.1493  0.0037  0.1247
11058W        W13258  15.221   4.678  23.462  0.1129  0.2392 -0.0117
11059W        W13259  19.063   5.206   4.136  0.0813  0.0717  0.4225
11060W        W13260   0.574   0.824  25.426  0.2603 -0.3666  0.2064
11061W        W13261  18.513   5.353   7.023  0.2969 -0.1102 -0.1875
11062W        W13262  11.186   4.167  27.154  0.0432  0.0891  0.0571
11063W        W13263  14.568   4.689  35.274 -0.0683  0.0702 -0.0382
11064W        W13264  12.773   6.258   0.042 -0.0018 -0.2348 -0.0106
11065W        W13265   7.362   3.773  35.538  0.2120 -0.0949  0.1575
11066W        W13266  24.167   4.018   1.361  0.0786 -0.1428  0.3050
11067W        W13267   7.797   2.698  11.200 -0.0757  0.1923 -0.1700
11068W        W13268   1.125   3.552  27.050  0.0084  0.3867  0.2212
11069W        W13269   7.280   4.621   8.614 -0.3628  0.2912  0.0240
11070W        W13270  15.277   3.474   1.026 -0.1678  0.1748  0.2575
11071W        W13271  16.943   2.595   1.339  0.0705  0.3137  0.0902
11072W        W13272   3.832   3.323  34.782 -0.1551 -0.4003  0.1086
11073W        W13273  16.058   1.832   9.140  0.0276  0.1699 -0.1397
11074W        W13274  17.353   3.073  21.921  0.0290  0.2926 -0.0496
11075W        W13275   7.999   5.400  34.906 -0.3972 -0.0791  0.0084
11076W        W13276  11.381   1.902   2.527  0.1535  0.2652 -0.0010
11077W        W13277   7.054   2.303  30.333  0.1369  0.0413 -0.2373
11078W        W13278   7.543   1.347  22.587 -0.1033  0.2263 -0.2197
11079W        W13279  16.793   1.079   1.233 -0.1192 -0.0871  0.3366
11080W        W13280  22.988   3.860  21.728 -0.0518 -0.1436  0.3627
11081W        W13281  13.674   6.285  14.725 -0.1807  0.0168  0.0370
11082W        W13282   3.382   0.245   9.699 -0.0025  0.4977  0.1034
11083W        W13283   6.004   0.116  25.502 -0.2603  0.2948  0.0983
11084W        W13284   9.871   2.781  31.328 -0.2012  0.2557  0.6684
11085W        W13285   6.253   1.827  22.870  0.0494  0.2217 -0.1232
11086W        W13286  17.485   5.880  26.072  0.0022  0.0429  0.0427
11087W        W13287  24.172   1.001  27.383 -0.2193 -0.0083  0.0663
11088W        W13288   6.478   5.403  34.402 -0.1050  0.3014 -0.2082
11089W        W13289  17.647   6.264  33.820  0.1868 -0.2586  0.2218
11090W        W13290  19.817   0.455  31.229 -0.1340 -0.1756  0.1655
11091W        W13291  24.849   0.988  28.195 -0.2967 -0.0322  0.0283
11092W        W13292  10.819   1.737   3.261  0.0761  0.1384  0.0193
11093W        W13293   3.125   1.113  22.517 -0.3284  0.0384 -0.1515
11094W        W13294  14.313   0.570  14.589 -0.0128  0.1166 -0.1927
11095W        W13295  26.304   5.227   1.140 -0.0459 -0.2584 -0.2359
11096W        W13296   8.008   4.197  33.827 -0.1862 -0.0511  0.0420
11097W        W13297  24.430   0.526  30.020 -0.1190  0.0618  0.0136
11098W        W13298  13.591   0.303  31.269  0.0767  0.3407 -0.0882
11099W        W13299  10.891   3.005  23.144 -0.1342 -0.2187  0.1257
11100W        W13300  16.857   1.327  23.029 -0.0221  0.0339 -0.3196
11101W        W13301   7.108   1.275  27.992  0.1428  0.2801 -0.0909
11102W        W13302   0.588   0.706   5.620 -0.0436 -0.1894 -0.0185
11103W        W13303  11.620   4.556  32.396  0.1944 -0.2860  0.0604
11104W        W13304   9.035   5.435  23.061  0.1730  0.2439  0.1287
11105W        W13305  10.902   3.961  33.263 -0.0873 -0.0835 -0.0299
11106W        W13306  23.593   2.494  22.022 -0.3271  0.1032  0.0133
11107W        W13307   1.102   0.481  23.267  0.1269 -0.1525  0.2245
11108W        W13308   0.635   4.572  30.403  0.0267 -0.0701  0.3797
11109W        W13309   1.902   5.365  10.490 -0.2917  0.0674 -0.1420
11110W        W13310   1.814   0.192  10.629 -0.0352  0.1120  0.3778
11111W        W13311  20.785   6.175  14.025  0.1192 -0.0963  0.1458
11112W        W13312  21.033   2.428  25.933 -0.1598 -0.0115  0.0635
11113W        W13313  17.188   1.606   8.902 -0.3877 -0.1540 -0.1044
11114W        W13314   9.143   4.102  11.389 -0.0225  0.4311 -0.0330
11115W        W13315  10.175   0.410   6.639 -0.0123  0.0684 -0.3251
11116W        W13316  11.800   3.384  15.337 -0.0099 -0.3321 -0.0032
11117W        W13317  10.069   4.976   4.627  0.3214 -0.0780  0.0543
11118W        W13318  20.779   1.660  27.120  0.0042 -0.1115  0.1326
11119W        W13319  18.344   1.891   8.193 -0.0368  0.0531 -0.0831
11120W        W13320  11.025   4.029  25.376 -0.0934  0.1013 -0.0173
11121W        W13321  20.657   1.376  13.855 -0.1218  0.1350 -0.0910
11122W        W13322   5.117   4.000   8.502 -0.1499  0.0431 -0.1133
11123W        W13323  25.998   3.240  25.713  0.3496  0.1286  0.3775
11124W        W13324  24.424   4.940   7.155  0.0590 -0.3997 -0.0794
11125W        W13325  16.567   3.252  34.660 -0.2712 -0.0657  0.0899
11126W        W13326  10.681   4.825  31.828 -0.0794  0.2141  0.2440
11127W        W13327  20.804   6.252  22.375  0.0998  0.1899  0.0680
11128W        W13328   4.326   1.844   5.365 -0.1557 -0.1277 -0.0642
11129W        W13329  22.418   6.019   3.571  0.2747 -0.0783  0.0886
11130W        W13330   3.668   0.213  26.163 -0.1690 -0.1374 -0.2312
11131W        W13331   8.695   0.852  22.941  0.2648  0.0505 -0.0308
11132W        W13332  14.150   5.174   6.070 -0.0976  0.1361 -0.3748
11133W        W13333   0.511   6.450  34.024  0.1271 -0.1513  0.2329
11134W        W13334  20.153   1.152   9.916 -0.0764  0.1492  0.1270
11135W        W13335  20.010   1.307   7.213 -0.2548 -0.2487 -0.0508
11136W        W13336  22.922   4.301  10.383 -0.2342 -0.1027  0.2074
11137W        W13337   7.083   2.582   7.867 -0.0728  0.1312 -0.0194
11138W        W13338  16.812   5.595  10.584  0.0431  0.2841  0.1696
11139W        W13339  21.981   0.260   3.958  0.1496  0.1706  0.1069
11140W        W13340   3.545   2.807   0.840 -0.2697 -0.1522  0.1103
11141W        W13341   1.520   4.247  23.477 -0.0812  0.1709 -0.0486
11142W        W13342  25.070   5.223   9.569  0.1769  0.1429 -0.1294
11143W        W13343  13.043   4.098  21.710  0.0545  0.2878  0.3303
11144W        W13344   0.678   1.416   5.735 -0.0315  0.0042  0.2171
11145W        W13345  13.272   0.145   7.910  0.1578 -0.1287 -0.1707
11146W        W13346  17.100   4.299  35.580  0.1308 -0.0929  0.3908
11147W        W13347   6.069   3.135  21.710 -0.1560  0.0366  0.2371
11148W        W13348  20.887   5.140  29.657  0.1890  0.0136  0.0816
11149W        W13349   6.057   3.184  34.773 -0.2276 -0.0671  0.0435
11150W        W13350   7.401   2.847  29.170 -0.1313 -0.1006 -0.1235
11151W        W13351   8.500   1.881  33.638 -0.2836 -0.1650  0.0370
11152W        W13352  23.586   1.974   5.340  0.0242 -0.1313  0.0979
11153W        W13353   0.718   1.674   9.369  0.1443  0.0048 -0.3512
11154W        W13354  12.235   4.729  25.743 -0.4253  0.1957  0.0476
11155W        W13355   2.311   4.125   0.920  0.3165  0.0592  0.1781
11156W        W13356  23.854   5.686   4.515  0.0080 -0.2198 -0.1902
11157W        W13357   6.242   6.030  13.936  0.1843 -0.0274 -0.1341
11158W        W13358   3.379   1.357  11.985 -0.2417 -0.2299 -0.0178
11159W        W13359  15.293   5.576  31.621  0.0322  0.3263 -0.0660
11160W        W13360  11.516   1.564   5.382 -0.0423  0.1590 -0.3320
11161W        W13361  16.434   2.499  24.188  0.1615  0.3848  0.1733
11162W        W13362  12.762   4.120  32.258  0.2912 -0.0628  0.2292
11163W        W13363  18.127   2.831  25.311 -0.0759  0.0329 -0.2670
11164W        W13364   8.327   1.796  34.208  0.0122  0.1792 -0.0212
11165W        W13365   2.301   1.088  34.268  0.3426 -0.0221 -0.2214
11166W        W13366   0.083   6.597   9.987 -0.1184 -0.0747 -0.0756
11167W        W13367  26.104   2.973  15.463  0.1801 -0.0162 -0.0771
11168W        W13368  16.402   2.634  13.483 -0.2328  0.0815  0.1596
11169W        W13369  24.539   0.320  21.091 -0.1782 -0.1194 -0.0352
11170W        W13370  11.509   5.140  24.820  0.2991  0.1821  0.1388
11171W        W13371  11.176   0.709  11.124 -0.1305  0.1938 -0.4212
11172W        W13372  18.000   0.811   7.644 -0.0753  0.0470 -0.1803
11173W        W13373   5.620   2.748  29.814 -0.1869 -0.2711 -0.2124
11174W        W13374  14.711   3.724   2.058  0.1559  0.3781 -0.0228
11175W        W13375  14.227   5.744  13.040 -0.1850 -0.1251 -0.0755
11176W        W13376   7.288   3.262   2.103 -0.2131  0.2410 -0.0315
11177W        W13377   3.151   4.520  27.664  0.1056 -0.1185  0.0064
11178W        W13378  24.821   2.910  12.498  0.4181  0.1014 -0.0098
11179W        W13379   7.893   3.978   5.138  0.2544  0.2119 -0.2129
11180W        W13380  24.239   4.865  22.448  0.1756 -0.1063  0.1920
11181W        W13381   8.824   3.668   7.501  0.1000 -0.2137  0.0336
11182W        W13382  21.545   3.139  30.717  0.1530 -0.2043 -0.0539
11183W        W13383  22.110   0.109  24.371 -0.1153 -0.0113  0.1774
11184W        W13384  10.446   4.371  36.183  0.0158  0.0609  0.1624
11185W        W13385  12.082   4.229  25.737  0.2602 -0.2157  0.0566
11186W        W13386  22.764   3.859   8.074  0.0383  0.2520  0.1323
11187W        W13387   5.231   5.707  21.576 -0.0928  0.1744 -0.4344
11188W        W13388  25.081   6.403   4.425 -0.0547  0.5973  0.0557
11189W        W13389  22.505   2.065  31.735 -0.2177  0.2362 -0.0967
11190W        W13390   4.605   0.215  23.333  0.1135  0.2216  0.0771
11191W        W13391  20.172   6.005  32.258 -0.0938  0.0188 -0.2716
11192W        W13392   2.609   6.560  14.843 -0.1718  0.0409  0.0768
11193W        W13393  20.224   5.652  29.372  0.1256  0.3397 -0.0017
11194W        W13394   6.833   0.257   2.620  0.0316 -0.4870 -0.1068
11195W        W13395   0.450   3.576   0.572  0.1512 -0.0540 -0.0940
11196W        W13396  17.609   4.458  28.589 -0.2731 -0.0670  0.3663
11197W        W13397  15.960   2.632  29.102 -0.0525 -0.1709  0.0138
11198W        W13398  11.838   6.191   9.125  0.0364 -0.1938  0.0755
11199W        W13399  16.073   0.283   6.797  0.3560 -0.1363  0.0616
11200W        W13400   9.049   3.687  24.496  0.1130 -0.0954  0.0163
11201W        W13401   4.658   0.546  27.686 -0.0754 -0.1253  0.0786
11202W        W13402  17.108   2.852   6.063 -0.0801  0.0328  0.0438
11203W        W13403  15.189   3.395  14.845  0.0344 -0.0946  0.1211
11204W        W13404  18.625   3.514   0.546 -0.0987  0.1341  0.1389
11205W        W13405  25.569   1.335  22.148  0.2841 -0.1525 -0.0316
11206W        W13406  10.924   2.074  10.029  0.2160  0.3375 -0.1153
11207W        W13407  20.314   1.364   2.806  0.2216  0.1308  0.2446
11208W        W13408  14.709   4.167  15.922  0.1102  0.0495  0.1806
11209W        W13409   6.130   1.131  24.106 -0.1179  0.1316 -0.2061
11210W        W13410  23.788   0.902  12.222 -0.3017  0.0858 -0.2575
11211W        W13411  21.970   6.230  25.031 -0.2420 -0.2443  0.3175
11212W        W13412  18.609   2.879  28.670 -0.1104 -0.1613 -0.0731
11213W        W13413  20.502   0.795  25.020 -0.0554  0.0669 -0.2368
11214W        W13414  18.023   4.566   2.040 -0.2518  0.0214  0.3271
11215W        W13415   7.923   3.256  33.512  0.0178 -0.1811 -0.1744
11216W        W13416  10.687   5.140  34.875 -0.2380  0.1218  0.2152
11217W        W13417  24.589   1.798  29.350  0.1112  0.2775  0.0397
11218W        W13418  19.959   2.231   5.631  0.0369  0.1152  0.0417
11219W        W13419  20.844   4.782  12.530 -0.0872  0.2025 -0.0586
11220W        W13420  10.978   1.135   8.480  0.1108  0.1854 -0.2051
11221W        W13421  20.738   2.421  34.684 -0.0223 -0.2168 -0.0855
11222W        W13422  26.101   2.109  25.687 -0.1315  0.0567  0.0330
11223W        W13423   7.590   4.737  24.794  0.1288  0.3279  0.0398
11224W        W13424  20.009   2.474  30.597 -0.1537 -0.1164 -0.3136
11225W        W13425  26.282   6.094   6.620 -0.2518 -0.0471 -0.2345
11226W        W13426  18.367   0.623   3.452  0.0888  0.0666  0.1786
11227W        W13427  14.615   0.954   0.997 -0.0081  0.0031  0.0162
11228W        W13428  12.155   5.969  30.617  0.1857 -0.0487 -0.4566
11229W        W13429   2.247   2.297  21.150  0.1858  0.0894 -0.2009
11230W        W13430  20.242   0.308   9.291 -0.2491 -0.0643 -0.0268
11231W        W13431  25.592   6.161  31.161  0.0889  0.1868  0.3559
11232W        W13432  20.092   1.118   4.576  0.2771 -0.1355  0.1985
11233W        W13433  19.830   0.872  24.314 -0.1226 -0.0278 -0.2975
11234W        W13434   8.861   2.892  22.974  0.3510  0.3350  0.2616
11235W        W13435  13.288   1.028  11.313  0.1166  0.2159 -0.1477
11236W        W13436  13.928   5.843  30.325 -0.0932 -0.2213  0.0633
11237W        W13437  24.996   3.024  24.250  0.0743  0.1230 -0.2479
11238W        W13438  20.345   0.470   3.790  0.1030  0.2842 -0.2574
11239W        W13439  25.926   2.236   9.492  0.1184 -0.0446  0.0834
11240W        W13440   2.146   3.595   7.897  0.0480 -0.0641  0.0849
11241W        W13441   6.417   6.374   1.795  0.0178  0.2245 -0.0128
11242W        W13442  23.906   3.556  32.553 -0.1267 -0.0099 -0.3032
11243W        W13443   3.481   3.569  13.518 -0.1488  0.0796  0.1819
11244W        W13444  23.295   0.264  26.868  0.3571 -0.1337  0.3327
11245W        W13445   4.169   2.906  22.916  0.2561  0.0521  0.0086
11246W        W13446  12.854   1.445   9.170 -0.0004 -0.0123 -0.3071
11247W        W13447   2.565   5.320  22.119 -0.1770 -0.0612  0.1872
11248W        W13448  25.678   1.238   0.593 -0.1926 -0.2823 -0.3925
11249W        W13449   3.384   0.670  22.425 -0.2332 -0.1307 -0.1576
11250W        W13450   3.137   3.222  23.596  0.0812  0.0058 -0.0925
11251W        W13451  12.497   4.912   8.068  0.2349  0.0457  0.0982
11252W        W13452   0.352   5.969  29.803 -0.4447  0.0901  0.0713
11253W        W13453  21.169   0.161   9.381  0.2355 -0.0797  0.0685
11254W        W13454  24.846   4.605  28.154  0.0752 -0.1042  0.0349
11255W        W13455   1.465   4.355  31.695 -0.1389  0.3422  0.3495
11256W        W13456  16.919   3.000  11.388  0.0398  0.2431  0.3162
11257W        W13457  15.035   3.181  28.496  0.2161 -0.1251  0.2020
11258W        W13458  22.024   3.292   2.246 -0.2249 -0.2833 -0.1121
11259W        W13459  21.904   3.809  31.419  0.1094 -0.0299 -0.1409
11260W        W13460   8.478   2.443  29.522  0.0745 -0.0355  0.3600
11261W        W13461   8.196   6.130  13.723 -0.0568 -0.3427  0.1411
11262W        W13462  22.016   5.989  20.938  0.0082  0.1212 -0.0870
11263W        W13463  21.880   1.108  32.951 -0.1452 -0.1984 -0.0802
11264W        W13464   6.831   1.501  10.612  0.0029 -0.2889  0.1123
11265W        W13465  17.785   3.299  14.409 -0.1589 -0.0536 -0.1501
11266W        W13466  19.878   2.848  25.507  0.1207  0.0838  0.1840
11267W        W13467  14.572   3.172  32.156  0.1681 -0.3559  0.2909
11268W        W13468  13.056   3.866  14.849 -0.1175  0.0469  0.0579
11269W        W13469  17.426   5.379  35.177 -0.1873  0.0927  0.0468
11270W        W13470  17.548   0.478  34.994  0.0926 -0.0465  0.0338
11271W        W13471  21.764   2.451  13.148 -0.1502 -0.2006  0.1366
11272W        W13472  25.634   1.149   7.480  0.1054  0.1739 -0.1326
11273W        W13473  20.764   3.453   4.303 -0.1830  0.0359  0.0198
11274W        W13474   5.529   0.019  33.811 -0.0233 -0.1528  0.2260
11275W        W13475   7.474   1.293   2.177  0.1031  0.2314  0.1939
11276W        W13476   6.400   1.080  30.124 -0.0724 -0.0760 -0.0420
11277W        W13477  18.779   1.091  34.133 -0.1764 -0.0730 -0.1934
11278W        W13478  20.621   3.090   6.234 -0.2709  0.1713 -0.2452
11279W        W13479  11.378   4.863   2.567 -0.0302 -0.0982 -0.2468
11280W        W13480  14.514   5.336  34.531  0.1029 -0.0038  0.1701
11281W        W13481  22.237   5.882  30.087  0.0650 -0.2558 -0.0709
11282W        W13482   1.253   3.390  22.876  0.1831 -0.1577  0.3144
11283W        W13483   2.682   4.330   0.587  0.1032  0.0588  0.0016
11284W        W13484   3.790   3.984  23.311  0.0838  0.1324 -0.1514
11285W        W13485  26.070   0.792  31.752  0.3151  0.1381 -0.3234
11286W        W13486  15.650   0.217   9.719  0.1007  0.2004 -0.0564
11287W        W13487  11.947   5.323   2.539 -0.0617  0.1589 -0.0218
11288W        W13488  19.818   3.697  21.749  0.3115  0.2155  0.0620
11289W        W13489   0.568   3.660  20.722  0.2567 -0.1120  0.1331
11290W        W13490   6.726   0.530  27.620  0.1064  0.0161  0.0422
11291W        W13491  17.854   4.007  12.044 -0.0245 -0.0998  0.1274
11292W        W13492   5.631   6.596  27.225 -0.1076 -0.0359  0.1765
11293W        W13493  13.541   4.360   1.916 -0.1118  0.0056  0.0664
11294W        W13494  10.437   5.490  24.218  0.1933  0.1391 -0.1824
11295W        W13495  19.242   5.589  11.001 -0.1746  0.1312  0.0774
11296W        W13496  22.174   0.082  35.061 -0.0283 -0.2725 -0.1703
11297W        W13497   7.810   5.822  13.749  0.0485  0.0419  0.0381
11298W        W13498  16.527   3.975   5.819 -0.1368  0.1786 -0.1471
11299W        W13499  16.046   5.320  32.604  0.0482 -0.0755  0.0428
11300W        W13500   6.747   1.077   0.947 -0.0523 -0.0004  0.1955
11301W        W13501   4.112   0.740  35.799  0.2343  0.2859 -0.1058
11302W        W13502  20.741   3.363  26.463 -0.1083  0.1292  0.0420
11303W        W13503  11.861   0.673  33.944 -0.2290 -0.1604 -0.0764
11304W        W13504   3.509   1.059   8.389  0.1664  0.3704 -0.1497
11305W        W13505  22.399   3.462  35.909 -0.1713  0.1872 -0.3518
11306W        W13506   3.162   2.452   5.526  0.1373 -0.0071 -0.0664
11307W        W13507   6.124   2.082  25.427  0.1656 -0.4197  0.0059
11308W        W13508   8.280   5.027  25.646  0.4731  0.1750 -0.0197
11309W        W13509   1.220   6.514  28.679 -0.1108 -0.1307  0.0878
11310W        W13510  11.931   4.045  10.108 -0.3277 -0.2047 -0.1965
11311W        W13511  22.401   1.752  13.006 -0.1510 -0.1292  0.2886
11312W        W13512   5.032   3.409  28.503 -0.3131  0.0739 -0.1698
11313W        W13513  19.826   5.668  12.556  0.0697 -0.1934 -0.0726
11314W        W13514  23.864   4.425   7.632 -0.2988 -0.2336  0.0022
11315W        W13515  15.209   5.858  34.438  0.0036 -0.2348  0.2187
11316W        W13516  19.346   3.954   2.150  0.1799 -0.0784 -0.0054
11317W        W13517  14.433   6.332  29.481  0.3335  0.1437 -0.3545
11318W        W13518  19.932   0.551  11.659 -0.0643  0.0625  0.1686
11319W        W13519  21.933   2.373   0.534 -0.0457  0.1378 -0.0342
11320W        W13520  10.985   1.154  13.372 -0.0513  0.3893 -0.2422
11321W        W13521  24.475   2.443  12.656  0.0704 -0.0908 -0.0516
11322W        W13522   3.424   5.433  25.817 -0.2343  0.2557 -0.1323
11323W        W13523  19.982   4.916  12.176  0.1708  0.0584  0.1345
11324W        W13524   8.028   4.322  20.839  0.2520  0.3932  0.0269
11325W        W13525  20.303   0.055  20.232 -0.1845 -0.3489 -0.0570
11326W        W13526   2.628   1.019   6.842 -0.0265  0.0650 -0.1317
11327W        W13527  25.425   6.298  34.445 -0.0331  0.0289  0.1608
11328W        W13528   9.159   2.733  12.598  0.1671 -0.0518  0.2250
11329W        W13529  23.660   1.641   4.278 -0.3748 -0.0854 -0.1764
11330W        W13530   1.388   0.819  27.273  0.0735 -0.0154  0.3980
11331W        W13531  20.909   3.934  11.386 -0.2944  0.2339  0.0826
11332W        W13532  12.027   1.714  25.156 -0.1197  0.4109 -0.1973
11333W        W13533  17.588   0.674   9.315 -0.0747 -0.0089 -0.3366
11334W        W13534   1.458   4.343  27.344  0.0229  0.3192  0.2977
11335W        W13535  18.307   3.018  14.760  0.3778  0.2484  0.2370
11336W        W13536  24.288   4.413   3.089 -0.0525 -0.0104  0.1478
11337W        W13537  25.121   6.283  28.666 -0.0772  0.1785 -0.0686
11338W        W13538   5.512   5.899  13.433  0.0822 -0.0422  0.0653
11339W        W13539  19.740   5.695   9.313 -0.1444  0.0491 -0.0300
11340W        W13540  20.770   6.310   4.634 -0.3266 -0.1120  0.0873
11341W        W13541   0.159   6.564  33.629  0.0681  0.0515 -0.0146
11342W        W13542   1.390   3.341   2.468 -0.1093 -0.2022  0.2120
11343W        W13543  20.351   3.157   5.201  0.1762 -0.1779 -0.1706
11344W        W13544  18.739   2.511   3.192  0.2977  0.2134 -0.1761
11345W        W13545  23.445   2.543  10.165 -0.1135  0.1838 -0.1379
11346W        W13546  14.781   5.662  28.840 -0.1495 -0.0861 -0.1186
11347W        W13547   3.721   2.545  33.854  0.1919 -0.4121  0.2307
11348W        W13548  13.159   2.171  33.153 -0.1552 -0.0086 -0.0048
11349W        W13549  15.740   0.212  29.091  0.1372  0.2515 -0.1087
11350W        W13550  18.990   2.487   9.159 -0.2839 -0.2549 -0.1316
11351W        W13551  15.625   4.910  15.166 -0.2421 -0.0386  0.0415
11352W        W13552  11.812   2.490  12.244 -0.1474  0.1020 -0.4131
11353W        W13553  14.071   3.087   4.194 -0.0850  0.2107 -0.2429
11354W        W13554  12.403   1.998  23.474 -0.1186 -0.0649 -0.0510
11355W        W13555   0.829   1.578  33.195  0.0660 -0.0948  0.3377
11356W        W13556  19.804   2.011   0.658  0.1156  0.2061 -0.3017
11357W        W13557  14.672   4.687  33.935 -0.1340  0.2258  0.1522
11358W        W13558  11.965   3.390  26.112 -0.1597 -0.0031 -0.3124
11359W        W13559  16.234   2.516  30.226  0.0421 -0.1665 -0.2859
11360W        W13560  16.694   1.380  27.780 -0.6918  0.1262 -0.0597
11361W        W13561   2.882   0.696   6.393 -0.0259  0.1317 -0.0199
11362W        W13562  13.374   4.713  12.312  0.1741  0.0679 -0.2302
11363W        W13563  19.630   5.943   4.238 -0.0823 -0.2184 -0.0689
11364W        W13564   2.448   4.582  30.775  0.1628 -0.0049  0.0788
11365W        W13565  21.029   3.791  35.840  0.1690  0.5367  0.0203
11366W        W13566  16.918   4.217  25.435 -0.1452  0.1618  0.0096
11367W        W13567   4.829   4.199   6.660 -0.2832  0.0986 -0.3413
11368W        W13568  23.800   3.061  23.126 -0.2242  0.1594 -0.0148
11369W        W13569  18.620   0.845  32.721 -0.0608  0.1583 -0.2410
11370W        W13570  22.639   1.877   1.467 -0.0217  0.0562  0.0422
11371W        W13571   8.891   4.767   1.367  0.0765 -0.1963  0.1813
11372W        W13572   1.386   6.311  29.074  0.0625  0.0190 -0.0175
11373W        W13573   8.896   0.310  13.135 -0.0266 -0.0306 -0.0900
11374W        W13574  11.706   4.616  27.321  0.0869  0.0441 -0.2860
11375W        W13575   4.227   4.240  11.265  0.0325  0.1268  0.1573
11376W        W13576  22.747   4.049   0.176 -0.0720 -0.3670  0.0223
11377W        W13577   5.861   0.934  23.749 -0.1012 -0.1851  0.0041
11378W        W13578  13.208   1.534   9.975  0.0743  0.1121  0.0120
11379W        W13579  18.200   2.128   4.302  0.0436 -0.2352 -0.0393
11380W        W13580  11.916   3.669  24.790 -0.0250 -0.1720  0.1688
11381W        W13581  22.259   3.957  26.459 -0.1809 -0.3892  0.0076
11382W        W13582  17.536   3.183  34.817 -0.0942  0.1242  0.0263
11383W        W13583   9.855   3.353  23.961  0.2135 -0.3323  0.2266
11384W        W13584   3.682   2.349  33.160  0.0103  0.2182 -0.1554
11385W        W13585  14.567   4.223   6.969  0.0997  0.1234  0.3951
11386W        W13586  21.043   6.034  30.065 -0.0380  0.0781  0.4100
11387W        W13587   1.537   3.938   9.235 -0.0372  0.1479 -0.0690
11388W        W13588   9.072   4.296   4.406 -0.1525  0.0170 -0.1533
11389W        W13589   5.632   3.097  26.173 -0.0341  0.0353 -0.1562
11390W        W13590   7.920   2.288  11.983  0.1432 -0.1844  0.3813
11391W        W13591  19.189   0.349   3.051  0.1132  0.0718  0.0489
11392W        W13592  18.225   5.754  25.728 -0.2051  0.0174  0.1975
11393W        W13593   2.366   2.479  23.935  0.1836 -0.0104 -0.1609
11394W        W13594  14.188   2.193  26.901  0.3867 -0.0071  0.0939
11395W        W13595  11.428   2.713   3.065  0.0892 -0.0300 -0.2792
11396W        W13596  19.758   0.013  35.774  0.0722  0.0164  0.2288
11397W        W13597   2.646   5.654   7.687  0.1296  0.0280  0.2313
11398W        W13598  19.611   5.435  19.799  0.0342  0.0315 -0.1158
11399W        W13599   9.373   3.018  25.664 -0.0023 -0.1345 -0.0401
11400W        W13600  11.126   3.234  23.614 -0.1580  0.0795 -0.0634
11401W        W13601  10.232   2.965  33.531  0.2085 -0.2920 -0.2029
11402W        W13602   0.448   4.321   3.949  0.1093 -0.0557  0.0559
11403W        W13603   8.834   2.112  14.232 -0.4615 -0.0751  0.1539
11404W        W13604  23.090   5.928   1.342 -0.0027 -0.2022  0.0966
11405W        W13605  22.223   4.764   1.296  0.1563  0.0823 -0.0015
11406W        W13606  15.488   4.965   4.739  0.2851 -0.1428 -0.1633
11407W        W13607  24.809   2.175  20.829 -0.0158  0.0037 -0.2096
11408W        W13608  12.639   3.443   5.731  0.0192 -0.0116 -0.1080
11409W        W13609  11.494   2.233  28.313 -0.0410  0.1611  0.0872
11410W        W13610   0.993   6.462   9.623  0.1451  0.0099 -0.1227
11411W        W13611  16.996   6.275  35.017  0.3543 -0.1495  0.3488
11412W        W13612  13.377   1.155  26.235 -0.1286  0.0979  0.2013
11413W        W13613  22.386   2.965  12.591  0.2901  0.1876  0.0062
11414W        W13614   9.366   4.234  32.840  0.1171 -0.0829 -0.2150
11415W        W13615  16.649   6.395  25.778 -0.1717  0.1514 -0.5153
11416W        W13616  10.468   4.460  11.930 -0.0849  0.0511  0.0688
11417W        W13617  23.387   0.688  34.781 -0.1996 -0.0626  0.0297
11418W        W13618  13.826   4.766  31.359 -0.1306 -0.0385  0.4157
11419W        W13619   7.456   5.761   0.892 -0.1761  0.0631  0.1834
11420W        W13620  24.335   1.966   6.749  0.0905 -0.1234 -0.1235
11421W        W13621  25.758   3.422  12.409  0.1234  0.2875  0.2492
11422W        W13622  15.916   3.461  31.872 -0.0217  0.1686 -0.1581
11423W        W13623   6.691   3.576  29.505  0.1174 -0.0377  0.2361
11424W        W13624  22.405   5.497  27.194 -0.1829 -0.1131  0.1733
11425W        W13625  17.514   2.862  23.745  0.0614  0.0434 -0.3032
11426W        W13626  18.066   0.475   9.133  0.2330 -0.0050 -0.0749
11427W        W13627   7.764   3.521   6.645  0.0079 -0.1851  0.1897
11428W        W13628  25.834   4.986  14.839 -0.0112 -0.0512 -0.0710
11429W        W13629  25.665   3.178  31.271  0.0588 -0.0878 -0.0891
11430W        W13630   8.680   4.059  33.274 -0.1216  0.0391 -0.1385
11431W        W13631  20.080   3.927   7.074  0.0580  0.1807  0.1658
11432W        W13632   1.470   6.103   2.635  0.1410 -0.4500 -0.0335
11433W        W13633  23.832   4.014   2.200  0.3242 -0.0480  0.0268
11434W        W13634   7.491   3.459  22.455 -0.1463  0.0728  0.1296
11435W        W13635  25.125   5.981   6.735 -0.1236  0.0057  0.0360
11436W        W13636   9.166   4.852  10.724 -0.1067  0.0321 -0.1121
11437W        W13637   2.716   3.334   0.486 -0.0652  0.1108 -0.0817
11438W        W13638   5.958   3.575   3.514  0.1623 -0.1005  0.1732
11439W        W13639  17.916   1.584  28.467 -0.1974 -0.2603  0.2541
11440W        W13640  21.099   3.394  29.923  0.3234  0.0564 -0.2270
11441W        W13641  18.385   0.144  35.258 -0.3645 -0.2403  0.2666
11442W        W13642  16.285   3.740  24.342  0.2396 -0.1212  0.0819
11443W        W13643   6.922   0.320  15.366 -0.3845 -0.4994  0.4590
11444W        W13644  11.870   3.369   0.423  0.0029 -0.2004 -0.1268
11445W        W13645  24.119   3.918  15.221  0.1519  0.4067 -0.1294
11446W        W13646   3.515   1.211  33.594 -0.0871  0.0846  0.0215
11447W        W13647  24.773   5.371  30.425  0.2843 -0.1305 -0.0785
11448W        W13648   5.616   2.726  13.025 -0.1483  0.0765 -0.1020
11449W        W13649   1.777   2.490  21.814  0.2277 -0.1193 -0.3067
11450W        W13650  10.943   5.847  14.378 -0.1875 -0.0331 -0.2266
11451W        W13651  12.087   1.354  36.149 -0.4349  0.0026 -0.0260
11452W        W13652   2.394   2.797   5.617 -0.0237 -0.1114  0.3601
11453W        W13653   1.553   4.294   8.142 -0.1870 -0.2771 -0.3648
11454W        W13654   2.627   2.518  28.762 -0.1611 -0.0246 -0.1787
11455W        W13655  11.646   5.764   1.032  0.0042  0.2610  0.1457
11456W        W13656  22.383   5.130   5.497 -0.4541 -0.0912 -0.0067
11457W        W13657   8.888   1.775   1.143  0.2552  0.0261 -0.3920
11458W        W13658  11.112   0.884   3.721  0.1785  0.4697 -0.1177
11459W        W13659  17.639   5.166  13.804  0.1129 -0.0326 -0.1066
11460W        W13660  25.942   4.905  12.277  0.0181 -0.1123 -0.1685
11461W        W13661   8.435   0.273  34.623  0.1195 -0.1592  0.0769
11462W        W13662   4.128   3.650  25.589  0.0404  0.0479 -0.2027
11463W        W13663  12.574   1.106  27.874  0.1625 -0.1169 -0.2171
11464W        W13664   3.650   0.397  29.989  0.2262 -0.1478  0.2172
11465W        W13665  14.342   6.459  15.493  0.0692 -0.2462  0.0710
11466W        W13666  11.593   3.899  34.742 -0.3906  0.0989  0.0308
11467W        W13667   4.439   4.816   9.797  0.0257 -0.0250  0.2385
11468W        W13668  24.191   2.603  22.318 -0.2516 -0.1140  0.0197
11469W        W13669   0.153   4.086   6.096  0.2425 -0.1674 -0.3031
11470W        W13670  18.268   6.001  28.521 -0.0450 -0.1210 -0.2804
11471W        W13671  19.389   2.319   5.996 -0.0329 -0.4388  0.0395
11472W        W13672  23.926   1.337  26.479 -0.1441 -0.1497 -0.0562
11473W        W13673  17.672   1.074  21.104 -0.0745 -0.0049 -0.1708
11474W        W13674  22.542   6.314   0.789  0.2251  0.0270 -0.0836
11475W        W13675  15.324   1.204  27.089  0.0925 -0.0280 -0.1026
11476W        W13676  10.984   1.252   1.314  0.1932  0.0767  0.1283
11477W        W13677   5.717   3.459  33.659  0.1029 -0.3478 -0.0158
11478W        W13678  18.334   6.256   3.815 -0.1666  0.0840  0.4385
11479W        W13679   9.399   2.000   7.993  0.0674 -0.0369  0.1102
11480W        W13680  10.662   6.290   8.209 -0.1876 -0.2359 -0.2192
11481W        W13681   3.782   6.341  25.627 -0.1610 -0.2332 -0.3897
11482W        W13682  24.617   2.424  20.456  0.1398  0.1040  0.0112
11483W        W13683  18.437   3.206   5.470  0.2701  0.0527 -0.1122
11484W        W13684   2.834   0.880   7.736 -0.3666 -0.1349 -0.1144
11485W        W13685  11.413   5.771  10.769 -0.1824  0.1322  0.1752
11486W        W13686  21.344   0.797   8.214  0.0811 -0.1106 -0.2030
11487W        W13687  19.943   2.430   7.309 -0.1277  0.0865  0.1965
11488W        W13688  15.099   4.308  22.992  0.1406  0.0709 -0.2156
11489W        W13689  19.282   2.396  35.669  0.0349  0.2596  0.2216
11490W        W13690  11.048   3.859  31.750  0.0503  0.1831  0.1078
11491W        W13691   6.288   4.333  10.174  0.1426  0.1252  0.1829
11492W        W13692   3.434   2.684  10.722  0.0996 -0.0713  0.1431
11493W        W13693  19.628   2.228   2.800 -0.3348  0.0160 -0.0236
11494W        W13694  19.755   6.257  31.756 -0.0780 -0.0315  0.3938
11495W        W13695   8.710   1.848  29.997 -0.0496  0.1163 -0.0323
11496W        W13696  19.239   5.014   1.620  0.2621  0.2273  0.4697
11497W        W13697   4.759   2.043   5.191 -0.2349  0.2268 -0.0586
11498W        W13698  14.752   4.065  15.375  0.4674  0.1200 -0.2031
11499W        W13699   3.164   6.178  24.222 -0.0360  0.0973  0.1795
11500W        W13700   8.356   4.275  10.991  0.5476  0.1402 -0.0556
11501W        W13701   1.993   0.245  30.750 -0.0760 -0.1322 -0.0657
11502W        W13702  23.403   2.614   8.756 -0.0878  0.0055 -0.2086
11503W        W13703   2.541   6.545  36.064 -0.2659  0.4097 -0.0283
11504W        W13704  18.875   1.401   5.240  0.1994  0.1495  0.0352
11505W        W13705   3.707   2.878  25.650 -0.0992  0.1952  0.2086
11506W        W13706  20.451   4.615  15.044  0.0770  0.2984 -0.0221
11507W        W13707  22.870   5.699   0.435 -0.1456 -0.0820 -0.0874
11508W        W13708  17.790   1.335  15.675  0.0701  0.2293 -0.1750
11509W        W13709   8.772   5.635   6.823  0.0393  0.1808  0.3284
11510W        W13710   4.929   5.263  28.008  0.0820 -0.1293 -0.2063
11511W        W13711  26.184   5.467   0.225  0.0919  0.1130  0.0058
11512W        W13712   3.602   3.093  10.471 -0.1016 -0.1427 -0.0701
11513W        W13713   4.313   2.910  13.499 -0.0053  0.1480  0.0616
11514W        W13714  22.457   2.842  13.437  0.1683  0.2334  0.2090
11515W        W13715   5.133   3.160  33.861  0.1554  0.2215 -0.0363
11516W        W13716  13.216   3.187  10.558 -0.0739 -0.1443  0.2507
11517W        W13717  24.650   5.607  21.680  0.1219 -0.2357 -0.0522
11518W        W13718   6.852   6.041  31.305 -0.1901  0.1441  0.1721
11519W        W13719   9.101   1.467   2.424  0.2047  0.0505 -0.1139
11520W        W13720  23.624   0.597  20.581  0.2983  0.2869  0.1651
11521W        W13721  18.805   1.238  23.935 -0.2054  0.1248 -0.3128
11522W        W13722  21.395   0.082  14.431 -0.0452 -0.1452  0.0387
11523W        W13723   4.139   3.655  12.828 -0.2125  0.1137  0.2267
11524W        W13724   9.605   0.164  26.935  0.1645 -0.3683  0.0828
11525W        W13725  11.304   2.057   9.419 -0.0676 -0.0593  0.2291
11526W        W13726  21.618   2.581   3.148  0.1005  0.2491 -0.2684
11527W        W13727  15.585   0.579  22.826  0.0810 -0.1607  0.0204
11528W        W13728   0.431   0.906   7.852  0.1087  0.0660 -0.3580
11529W        W13729  24.300   4.586   4.828  0.0032  0.4241  0.2326
11530W        W13730   3.068   1.570   0.694 -0.0461 -0.0231  0.0971
11531W        W13731   0.056   3.356  13.055 -0.1376  0.1503 -0.3541
11532W        W13732  16.291   2.134  14.989  0.4076 -0.0528 -0.2641
11533W        W13733   5.533   1.271  14.656  0.0081  0.0121 -0.2928
11534W        W13734  18.877   3.320  14.146  0.0612 -0.3327  0.1555
11535W        W13735  11.597   1.564  36.071 -0.0681  0.1294 -0.0232
11536W        W13736  16.530   3.437  26.074 -0.0634 -0.4081  0.1752
11537W        W13737  18.869   2.220   9.561  0.1451  0.1979  0.3896
11538W        W13738   9.502   1.013   8.426 -0.1987  0.0194 -0.0467
11539W        W13739   6.039   6.242  14.350 -0.0134  0.2482  0.0591
11540W        W13740  18.752   4.885   3.160 -0.0045  0.2888  0.1019
11541W        W13741   8.381   1.842  31.416  0.0150  0.0660  0.0241
11542W        W13742   2.469   5.249   3.694  0.1052 -0.1251 -0.1784
11543W        W13743  18.174   3.263  30.560  0.3293 -0.2371 -0.3217
11544W        W13744  12.794   0.596  34.939 -0.0786  0.2099  0.1640
11545W        W13745  25.231   0.951  35.456  0.3765 -0.0797 -0.1602
11546W        W13746   6.461   0.964  27.306 -0.0816 -0.1753 -0.0250
11547W        W13747  12.017   5.899  11.709 -0.0423 -0.2303  0.0378
11548W        W13748  10.156   4.677  24.179  0.0209  0.0626  0.0307
11549W        W13749  14.520   5.536  24.765 -0.1077  0.2227  0.1633
11550W        W13750  12.818   6.096   1.093  0.0917  0.1474  0.2018
11551W        W13751  18.766   2.081  12.454  0.1090  0.1535  0.0782
11552W        W13752   5.065   3.950  31.046 -0.1510  0.0577  0.1926
11553W        W13753  15.343   4.775  29.683  0.1787  0.1817 -0.1652
11554W        W13754  18.314   4.864  30.912 -0.0647  0.2250 -0.0039
11555W        W13755  15.662   1.137  12.456 -0.1546  0.2335 -0.1920
11556W        W13756   5.093   1.506  31.931  0.0353  0.0526  0.0532
11557W        W13757  12.232   0.689   1.513  0.0466 -0.1394  0.1878
11558W        W13758  16.875   2.134   0.035 -0.0096 -0.1628 -0.0645
11559W        W13759  11.412   3.244   4.111 -0.0209  0.0907 -0.0013
11560W        W13760  14.629   5.598   8.677 -0.1177  0.0635  0.0353
11561W        W13761  14.644   4.761  14.251 -0.0020  0.0909 -0.1715
11562W        W13762  20.584   5.403  27.387 -0.0778 -0.0612 -0.0648
11563W        W13763  21.774   3.324  12.798 -0.0484 -0.1960  0.2571
11564W        W13764  16.215   2.573   2.398 -0.3686  0.0684  0.0016
11565W        W13765   7.667   2.809   2.485 -0.0719 -0.0924  0.1231
11566W        W13766  24.931   1.654   2.857  0.0926  0.0261 -0.0411
11567W        W13767  22.138   6.101  33.040 -0.3134  0.0225 -0.3842
11568W        W13768  21.922   3.754  13.202  0.1840 -0.1731  0.0112
11569W        W13769  21.787   2.704   0.871  0.1826 -0.1786  0.2212
11570W        W13770  16.168   2.505  32.447 -0.2882  0.2639  0.1921
11571W        W13771  15.554   1.651  27.560  0.0078 -0.1769  0.0157
11572W        W13772   8.942   0.773  21.849 -0.2596 -0.3474  0.0933
11573W        W13773  10.463   0.870  31.846 -0.1281  0.0567  0.0837
11574W        W13774  22.324   6.586  32.956 -0.1511  0.1056  0.1460
11575W        W13775   6.184   5.408   8.926  0.2000  0.3576  0.1618
11576W        W13776  20.733   5.470   6.672 -0.0695 -0.2433  0.0613
11577W        W13777   6.155   5.800  21.524 -0.0735 -0.0156  0.1241
11578W        W13778  15.693   0.828  14.835 -0.1883  0.0523  0.1707
11579W        W13779  11.987   5.369  27.007  0.0505  0.2495 -0.1233
11580W        W13780   1.237   5.981  15.474 -0.2234  0.1144 -0.0210
11581W        W13781   1.230   4.338  14.753 -0.2422 -0.2019 -0.0606
11582W        W13782   1.436   3.621  13.426 -0.0993 -0.2587 -0.0497
11583W        W13783   4.456   5.608   5.849  0.1080 -0.0692  0.1451
11584W        W13784  16.443   5.119  31.733 -0.1802  0.1202  0.1429
11585W        W13785  26.108   3.315   1.037 -0.1192  0.1140  0.2130
11586W        W13786  21.040   3.724  24.963  0.0247 -0.1194 -0.0420
11587W        W13787   1.264   5.729  25.570 -0.0885 -0.0131  0.2158
11588W        W13788  21.616   4.272  25.528  0.0018  0.0835 -0.2410
11589W        W13789  18.890   1.677  34.010 -0.0285  0.1091 -0.3033
11590W        W13790  12.873   2.466  15.061 -0.1594 -0.1307 -0.0238
11591W        W13791  11.611   0.415  13.313  0.0275  0.3436 -0.0080
11592W        W13792  17.230   5.171  28.114  0.1957 -0.1434 -0.0484
11593W        W13793  15.939   6.280  35.930  0.1040 -0.2307 -0.0405
11594W        W13794   2.361   0.764  26.756  0.0815 -0.0659 -0.1958
11595W        W13795  20.811   2.402  24.782  0.1075 -0.0008  0.1252
11596W        W13796  17.278   0.425  10.317 -0.0094  0.0592  0.1465
11597W        W13797   2.952   3.678  32.587  0.0347 -0.0896 -0.0569
11598W        W13798  25.938   2.932  35.044 -0.1108 -0.0141  0.2127
11599W        W13799  18.374   0.718  23.257 -0.1717  0.2816 -0.1153
11600W        W13800  22.131   4.266   8.322  0.1723  0.0189 -0.0300
11601W        W13801  10.272   5.928  24.610 -0.1644 -0.0850 -0.0195
11602W        W13802  20.297   4.031  25.577 -0.0061 -0.1390  0.1396
11603W        W13803   0.754   1.914   8.404 -0.1718  0.1245  0.0063
11604W        W13804  15.625   5.003  24.870 -0.3270  0.2655  0.4587
11605W        W13805  25.582   4.926  27.549 -0.1526  0.2821  0.0070
11606W        W13806  24.755   3.151  25.620  0.0899  0.2548  0.0751
11607W        W13807   6.908   2.174  33.447 -0.0899 -0.2429 -0.1907
11608W        W13808  24.820   2.301   1.590 -0.4279 -0.1541 -0.0018
11609W        W13809  24.884   3.287  22.207  0.0764  0.1583 -0.2478
11610W        W13810  16.122   5.153  26.917  0.3425  0.2084 -0.2126
11611W        W13811   2.058   4.899  21.344  0.1570 -0.3455 -0.1095
11612W        W13812  25.934   5.656  11.308  0.1085 -0.0139 -0.3207
11613W        W13813   4.990   3.355   0.377 -0.1571  0.0551  0.0844
11614W        W13814  15.874   5.306  20.938  0.0101 -0.1057  0.2289
11615W        W13815  20.271   2.429  27.241 -0.2180 -0.1035  0.5869
11616W        W13816  19.062   5.288  30.715  0.0149  0.0498  0.0117
11617W        W13817   6.251   5.230  25.891  0.0585 -0.2445 -0.0438
11618W        W13818   2.545   3.983  21.169 -0.0968 -0.0949  0.1653
11619W        W13819  14.484   3.499  20.810  0.0031 -0.0620  0.3664
11620W        W13820   9.923   5.768  15.146 -0.0137  0.2599  0.1235
11621W        W13821  19.916   4.885  13.253  0.2740  0.2584 -0.3823
11622W        W13822  18.694   0.366  25.144  0.2002 -0.1500  0.0135
11623W        W13823  19.893   2.945  26.432  0.0116 -0.3477 -0.2102
11624W        W13824  24.270   2.337   2.201 -0.0436 -0.2294 -0.0932
11625W        W13825   2.798   4.957  12.297 -0.0793 -0.0945 -0.0384
11626W        W13826   2.926   1.824  27.208 -0.1389  0.0939  0.0411
11627W        W13827  24.967   1.767  13.865 -0.0809 -0.1219  0.0887
11628W        W13828  24.637   0.918   2.654 -0.1142 -0.1430 -0.0669
11629W        W13829  10.511   2.311   5.048  0.2353  0.1754 -0.2733
11630W        W13830  21.966   1.898   0.580 -0.0222  0.1331 -0.0688
11631W        W13831  16.978   3.837  12.139 -0.4185 -0.1422  0.0514
11632W        W13832  25.187   4.878  27.149 -0.3369 -0.3694  0.2532
11633W        W13833  25.464   5.122  26.301  0.0629  0.0105  0.1286
11634W        W13834   8.742   2.634  29.879 -0.4608  0.3417  0.2832
11635W        W13835  22.534   5.174  24.285 -0.1348 -0.1282 -0.0550
11636W        W13836  14.615   4.393  30.168 -0.0300 -0.1194 -0.1884
11637W        W13837  24.178   4.708   2.387 -0.0099  0.2377 -0.0663
11638W        W13838  12.106   2.851  35.461 -0.1846  0.0891 -0.1567
11639W        W13839   1.411   1.297  11.385 -0.1978  0.0482 -0.0142
11640W        W13840   0.596   3.829  13.775  0.1944  0.0299 -0.0834
11641W        W13841   5.979   0.396   7.502 -0.0374 -0.0949  0.0195
11642W        W13842  19.090   5.837   0.248 -0.0531  0.1073  0.3444
11643W        W13843   1.748   5.835   3.321 -0.1152 -0.0363 -0.1608
11644W        W13844   5.319   0.275   6.581 -0.0495 -0.0727 -0.2250
11645W        W13845  13.139   2.328  25.583  0.0301 -0.2005  0.0735
11646W        W13846  16.022   0.684  23.887 -0.1877  0.0125  0.1024
11647W        W13847  12.126   2.167  12.638 -0.0336 -0.0142 -0.1130
11648W        W13848  20.800   0.157  11.958 -0.0470  0.3176 -0.0338
11649W        W13849   4.743   2.228  25.628  0.1181 -0.2923  0.1383
11650W        W13850   6.370   5.782  23.572  0.1299 -0.2989 -0.0332
11651W        W13851  22.717   5.782  25.429  0.2911 -0.3210 -0.0060
11652W        W13852  16.131   5.117  21.323  0.1284  0.1770 -0.0024
11653W        W13853  16.001   6.044  22.949 -0.2358 -0.0352  0.2049
11654W        W13854   9.597   4.922  23.139 -0.2181 -0.2143  0.1793
11655W        W13855  18.404   1.797  24.549  0.0544  0.2483  0.0313
11656W        W13856  13.040   1.176   8.624 -0.0805 -0.0144 -0.1180
11657W        W13857  24.243   4.432   0.992 -0.1615  0.0882  0.0341
11658W        W13858   3.374   3.882   2.528 -0.2207 -0.0967  0.0922
11659W        W13859  21.860   1.003  12.430  0.0315 -0.4331 -0.2301
11660W        W13860  17.651   3.017  13.626  0.0815  0.2201  0.1435
11661W        W13861   8.237   3.207  21.827  0.1115 -0.2117  0.2401
11662W        W13862  23.330   2.816  20.513  0.2725  0.1839 -0.1522
11663W        W13863   1.535   1.467  32.665  0.1651  0.2060 -0.2019
11664W        W13864  23.801   5.381  26.250  0.1067 -0.1329 -0.3539
11665W        W13865   7.535   2.169  25.522  0.0106  0.0238  0.0954
11666W        W13866   4.197   4.697  34.313 -0.2599  0.1538 -0.1533
11667W        W13867   7.629   1.114   5.400 -0.0979 -0.1825  0.1665
11668W        W13868  14.626   2.789   0.717  0.3012  0.0889 -0.0942
11669W        W13869  23.079   0.856  13.969 -0.0986 -0.3053  0.2077
11670W        W13870  23.310   2.042   6.560 -0.0614 -0.2964 -0.0011
11671W        W13871   4.484   1.418  32.483 -0.3167 -0.1245 -0.0479
11672W        W13872   3.392   0.963  22.991 -0.1148 -0.1584 -0.0140
11673W        W13873   5.354   6.507   4.470 -0.0732 -0.0711 -0.3703
11674W        W13874  16.252   0.967  21.325  0.0221  0.4985  0.0313
11675W        W13875  21.006   2.647   9.409  0.1124 -0.0516  0.1342
11676W        W13876  14.855   2.008  14.029 -0.1326  0.2512 -0.1073
11677W        W13877   4.058   4.182  30.927 -0.5126  0.1443  0.2426
11678W        W13878   0.111   4.879  10.874  0.0471 -0.1007 -0.1922
11679W        W13879  18.176   4.395  13.574  0.0914  0.2200  0.0590
11680W        W13880  22.408   6.110   5.126  0.2666 -0.0615 -0.1921
11681W        W13881  21.579   3.294   0.208 -0.0934 -0.0200 -0.2924
11682W        W13882  10.579   3.591  33.543  0.2318 -0.0287 -0.1837
11683W        W13883  20.996   3.307  14.695 -0.1620  0.1762 -0.1988
11684W        W13884   5.217   5.543  20.130 -0.1061  0.0878 -0.0093
11685W        W13885  19.549   5.543   8.080  0.3000 -0.0747 -0.1436
11686W        W13886   3.647   5.232   5.501 -0.0666  0.1393  0.2941
11687W        W13887  20.949   3.165   0.283  0.0552  0.2302  0.2329
11688W        W13888   2.445   1.762  15.442 -0.0568 -0.1270 -0.0830
11689W        W13889   0.910   5.740  22.084  0.1419 -0.0743  0.1386
11690W        W13890  18.294   1.089  24.077  0.0714 -0.2204 -0.2282
11691W        W13891   1.336   4.088  35.696 -0.2780  0.2054 -0.2048
11692W        W13892   5.684   4.972  33.739 -0.0402 -0.0840  0.0786
11693W        W13893  25.438   0.465  29.165  0.0168 -0.1649  0.0388
11694W        W13894  23.676   5.831  33.760  0.2239 -0.1835 -0.1718
11695W        W13895  24.185   4.558  26.365  0.1362 -0.2178  0.4783
11696W        W13896  11.407   0.591  24.962  0.1056  0.1798 -0.0306
11697W        W13897   2.496   4.771  22.296 -0.1964  0.1050 -0.2653
11698W        W13898  17.631   5.508  28.776  0.3122  0.0314 -0.2938
11699W        W13899   8.641   4.629  22.743  0.1842 -0.1929 -0.0693
11700W        W13900  21.370   4.945  24.428  0.2003 -0.2880 -0.2817
11701W        W13901   5.135   2.397  24.512  0.5232 -0.1772  0.2522
11702W        W13902  24.327   1.547  21.355 -0.0102 -0.1086  0.0319
11703W        W13903  15.231   1.993   5.934 -0.0185 -0.0052  0.1515
11704W        W13904  25.745   6.584  24.671  0.2300 -0.0885 -0.2766
11705W        W13905  12.336   5.653   3.825  0.1352 -0.0730  0.1357
11706W        W13906  18.320   3.455  12.646 -0.1638 -0.0733  0.1507
11707W        W13907  12.474   0.266  28.310 -0.2576 -0.1203 -0.0912
11708W        W13908  25.299   3.682  12.246 -0.0812  0.0610  0.0575
11709ION     NA13909   6.616   6.078  31.645 -0.0663  0.2588 -0.3979
11710ION     NA13910   2.880   4.798  27.839  0.1089 -0.0686  0.1359
11711ION     NA13911  25.127   1.751   7.776 -0.0253 -0.1050 -0.1514
11712ION     NA13912  16.224   0.245  30.893  0.0470 -0.0596 -0.0103
11713ION     NA13913  21.091   5.087  28.631  0.2060 -0.0064  0.0913
11714ION     NA13914  22.617   3.834  22.406  0.1087  0.0485 -0.0073
11715ION     NA13915   8.900   0.684  26.782 -0.1217  0.0939 -0.2331
11716ION     NA13916  17.933   1.388  29.679 -0.3610  0.2216 -0.1604
11717ION     NA13917  25.490   4.768  24.559 -0.3714  0.0983  0.1164
11718ION     NA13918   3.368   6.326   3.068 -0.0401 -0.2097 -0.0934
11719ION     NA13919   1.385   6.335  35.517  0.0470  0.1111  0.3348
11720ION     NA13920  12.569   5.966   3.227  0.1862  0.1214 -0.1046
11721ION     NA13921   2.155   1.289   6.263  0.0429  0.1330 -0.3607
11722ION     NA13922  25.788   1.549  26.776  0.2272 -0.4976 -0.2974
11723ION     NA13923   1.602   4.920   6.298 -0.4543  0.1453 -0.1548
11724ION     NA13924   0.902   1.437  28.164  0.3239 -0.1799 -0.4409
11725ION     NA13925   8.186   3.789   8.835 -0.1191  0.1113 -0.0607
11726ION     NA13926   9.155   2.375   1.561  0.1581  0.0320  0.7494
11727ION     NA13927  10.761   3.562  24.380  0.2072  0.0241 -0.3298
11728ION     NA13928  10.106   0.595  34.155  0.0191  0.0790 -0.2310
11729ION     NA13929  13.584   0.759  25.580 -0.2269 -0.1166  0.3274
11730ION     NA13930   9.653   5.914   5.151 -0.4116 -0.1399 -0.2735
11731ION     NA13931   5.656   3.555   2.880  0.0988 -0.1955  0.0650
11732ION     NA13932  25.201   2.514  31.899  0.1273 -0.4326  0.0781
11733ION     NA13933  16.127   3.541  33.799 -0.4869 -0.0201  0.1452
11734ION     NA13934  13.178   0.853   5.732 -0.0714 -0.2038 -0.0257
11735ION     NA13935   8.704   3.138  15.808 -0.0239  0.0231  0.1971
11736ION     NA13936   5.173   2.698  26.517  0.2180 -0.4650  0.0092
11737ION     NA13937  14.624   3.934  21.238  0.0374 -0.3037 -0.4319
11738ION     NA13938  12.480   1.593   1.205  0.0091  0.2033 -0.5051
11739ION     NA13939  23.750   4.723  34.064  0.4913  0.0549 -0.0396
11740ION     NA13940  13.880   1.909  15.303  0.0148  0.1088 -0.0201
11741ION     NA13941   2.290   0.708  14.807  0.0489  0.0020 -0.0563
11742ION     NA13942   9.150   3.663  14.394 -0.3360 -0.4397 -0.4612
11743ION     NA13943  19.689   2.067  25.522  0.1131  0.2640 -0.0739
11744ION     NA13944  13.048   2.550  26.501 -0.0739  0.2229  0.4338
11745ION     NA13945  17.938   3.987  35.246 -0.2119 -0.0885  0.3994
11746ION     NA13946   5.484   5.524   9.499  0.3207  0.0313 -0.1823
11747ION     NA13947  23.548   5.195  25.368  0.1541 -0.5351 -0.0759
11748ION     NA13948  24.554   2.362   0.935 -0.2594 -0.5039 -0.0524
11749ION     NA13949   8.510   3.146  36.036  0.2195 -0.5249  0.0786
11750ION     NA13950   4.141   1.540  21.893 -0.5551 -0.2298 -0.3036
11751ION     NA13951   7.634   2.159  10.077  0.1423  0.2109  0.0561
11752ION     NA13952   5.015   3.721  13.010 -0.1073  0.0679  0.1982
11753ION     NA13953  13.650   5.516   2.836 -0.0678  0.0721 -0.1712
11754ION     NA13954   4.889   0.494  29.873  0.4034  0.1983 -0.1704
11755ION     NA13955  10.406   0.854  10.329  0.0453 -0.1124  0.1584
11756ION     NA13956  17.852   1.729  12.450 -0.2802 -0.2169  0.0366
11757ION     NA13957  18.852   1.499  32.360 -0.0655  0.1850 -0.1663
11758ION     NA13958  22.307   6.522  21.405  0.0076 -0.1695  0.2095
11759ION     NA13959  17.726   5.893  34.957  0.0927  0.1104  0.2967
11760ION     NA13960   2.119   5.213   8.147  0.0276  0.0327  0.0371
11761ION     NA13961   5.538   1.814  12.973  0.3725  0.2173 -0.1326
11762ION     NA13962  16.373   2.275  11.439 -0.1426 -0.0721 -0.3993
11763ION     NA13963   9.822   3.691  30.376 -0.0742  0.1807  0.1443
11764ION     NA13964  15.515   5.360  29.285 -0.0154 -0.3861  0.2791
11765ION     NA13965  13.972   1.609  24.706 -0.1106 -0.0455 -0.2179
11766ION     NA13966   1.183   1.419  10.698 -0.2364  0.2446 -0.2200
11767ION     NA13967   7.076   0.715   7.157 -0.3361 -0.1724  0.1478
11768ION     NA13968   4.286   6.328   1.728  0.0648 -0.0614 -0.5164
11769ION     NA13969   2.828   6.123  11.920  0.1918  0.1789  0.3514
11770ION     NA13970   7.443   5.756  11.353  0.3302 -0.0915 -0.1289
11771ION     NA13971  12.917   4.491  15.323  0.1865  0.1181  0.3838
11772ION     NA13972   3.194   4.076   1.770 -0.0130  0.0791  0.1169
11773ION     NA13973  14.940   2.621  29.523 -0.2526 -0.2079 -0.0940
11774ION     NA13974  26.416   3.646  33.027  0.1077  0.5297 -0.2012
11775ION     NA13975  26.076   1.803   1.108 -0.0260  0.2206 -0.0947
11776ION     NA13976  15.459   3.271  22.312  0.0292  0.0023 -0.1327
11777ION     NA13977   0.152   1.106  12.651 -0.1394 -0.5690  0.0156
11778ION     NA13978  21.081   5.544   9.846 -0.1039  0.1099  0.1252
11779ION     NA13979  20.728   0.528  32.410  0.0363  0.1130  0.3454
11780ION     NA13980  12.321   5.793  10.216  0.0996 -0.7797  0.1281
11781ION     NA13981  13.015   2.487  12.561 -0.0159  0.2368 -0.1757
11782ION     NA13982   3.589   5.818  34.337 -0.3234 -0.1482 -0.4312
11783ION     NA13983  19.787   5.613  26.366 -0.4964 -0.5957  0.1741
11784ION     NA13984  14.185   0.856  24.463 -0.0946 -0.1196  0.1399
11785ION     NA13985  14.777   3.315  12.327 -0.1369 -0.0551 -0.2714
11786ION     NA13986  21.993   5.783  13.264 -0.2739 -0.0591 -0.0026
11787ION     NA13987  12.976   3.913  29.520 -0.3331  0.3566  0.1344
11788ION     NA13988  17.184   4.828   6.522 -0.1691  0.2272 -0.2291
11789ION     NA13989  13.533   5.356  28.870 -0.1021 -0.0020 -0.1016
11790ION     NA13990  18.656   5.067  27.235  0.0488  0.3379  0.2208
11791ION     NA13991  13.181   0.738   7.473  0.1213 -0.0587 -0.1510
11792ION     NA13992  15.802   0.897  13.538 -0.5113 -0.0094  0.0521
11793ION     NA13993  17.692   3.464   7.191 -0.6319 -0.3233  0.1870
11794ION     NA13994   8.887   4.634  29.669 -0.1065 -0.1593 -0.4841
11795ION     NA13995   3.088   2.878  34.617 -0.2014 -0.0908 -0.1679
11796ION     NA13996   3.691   1.152  11.197  0.1151  0.1810 -0.2799
11797ION     NA13997   2.058   0.049  23.699 -0.0042  0.0120 -0.3574
11798ION     NA13998   9.042   0.822  21.403 -0.0543 -0.1616  0.4526
11799ION     NA13999   1.076   2.681  29.644  0.3016  0.0840 -0.3009
11800ION     NA14000  25.132   5.080  26.025 -0.0144  0.0428  0.0378
11801ION     NA14001   3.076   3.581   2.650 -0.2431  0.0727 -0.2725
11802ION     NA14002  20.187   1.462   8.473  0.0750 -0.1513 -0.1445
11803ION     NA14003  15.872   5.253  22.554  0.2141 -0.0787  0.2934
11804ION     NA14004  17.944   5.503  24.055 -0.0638  0.1336 -0.2165
11805ION     NA14005  14.091   4.172  27.379  0.3202  0.2567  0.0988
11806ION     NA14006  10.053   3.999  30.922 -0.5903  0.1814 -0.3435
11807ION     NA14007  24.868   0.460   4.104 -0.0945 -0.1923 -0.4172
11808ION     NA14008   4.442   4.299   8.860 -0.0023  0.3629  0.0957
11809ION     NA14009  19.707   1.281   9.252 -0.2571  0.2821  0.1581
11810ION     NA14010  23.867   5.362   1.577 -0.3987 -0.2170  0.1351
11811ION     NA14011   4.912   0.534  10.560 -0.0024  0.1632  0.3430
11812ION     NA14012   7.868   0.984   7.764 -0.2011  0.3562  0.0956
11813ION     NA14013  25.894   0.328  25.508  0.0066 -0.0752  0.1692
11814ION     NA14014   7.979   1.978  35.414  0.2339  0.0219 -0.0769
11815ION     NA14015  23.696   0.210  36.161 -0.0996 -0.0788 -0.1095
11816ION     NA14016  18.451   5.171  26.020  0.0007 -0.0998  0.0693
11817ION     NA14017  25.640   4.632  29.671 -0.3500 -0.2758  0.2430
11818ION     NA14018  26.064   0.935  20.647  0.0812  0.0218 -0.3710
11819ION     NA14019   9.321   1.915   5.583 -0.5339  0.2064 -0.0635
11820ION     NA14020   6.352   2.988   4.234  0.0502  0.1439  0.4167
11821ION     NA14021  26.288   4.961  34.979  0.2098  0.2154  0.4673
11822ION     NA14022   2.957   3.939   5.479  0.0234  0.4659  0.2192
11823ION     NA14023  25.534   3.618  21.308  0.0707 -0.4560  0.0635
11824ION     NA14024  24.291   4.316   7.438 -0.0295 -0.1372  0.2645
11825ION     NA14025   1.479   5.479  33.774  0.1531  0.3367  0.2114
11826ION     NA14026  21.444   1.061  12.602  0.2547 -0.0309  0.3034
11827ION     NA14027   5.467   5.804  23.073  0.3360  0.1969  0.0882
11828ION     NA14028   6.908   4.902  34.078 -0.1628 -0.5430  0.1563
11829ION     NA14029  22.636   0.250  12.199 -0.0439 -0.0202  0.1617
11830ION     NA14030   2.583   4.819   2.202 -0.0959  0.0631 -0.2047
11831ION     NA14031   6.233   1.020  26.143 -0.1832 -0.3440 -0.1892
11832ION     NA14032  17.030   1.540  30.532  0.1992 -0.2894 -0.0556
11833ION     NA14033  24.131   0.040  26.611  0.3650 -0.0948 -0.0673
11834ION     NA14034   6.561   4.812   1.388 -0.0719 -0.1534  0.0401
11835ION     NA14035   6.898   2.850  28.370  0.2489 -0.0519 -0.1209
11836ION     NA14036  10.648   6.475  10.436  0.3165 -0.1815  0.0197
11837ION     NA14037   8.178   0.738   5.819  0.3179  0.0601 -0.1270
11838ION     NA14038   1.599   3.822   6.317 -0.1281 -0.1099 -0.2842
11839ION     NA14039   9.824   6.504  33.522 -0.1712 -0.2893  0.4748
11840ION     NA14040  22.482   2.171  25.214  0.4673 -0.0139 -0.3347
11841ION     NA14041  10.478   6.249  23.253  0.1110 -0.0503 -0.1460
11842ION     NA14042  21.810   3.909   4.731 -0.2082 -0.3098 -0.5267
11843ION     NA14043  22.213   0.656   2.585  0.2552 -0.0390 -0.0130
11844ION     NA14044  10.686   1.074  12.548 -0.2631  0.2473 -0.4281
11845ION     NA14045   4.336   2.949  28.087  0.1919 -0.1480 -0.0393
11846ION     NA14046  20.126   2.026  27.253 -0.1093  0.2292 -0.1520
11847ION     NA14047  17.813   2.875   4.471  0.0492  0.1882 -0.2483
11848ION     NA14048   1.823   4.034  27.420  0.0148  0.1018 -0.3162
11849ION     NA14049   4.428   4.054  35.267 -0.1195 -0.0859  0.1997
11850ION     NA14050  25.904   1.135  13.731  0.0258  0.3934  0.1105
11851ION     NA14051  13.403   5.822   7.656  0.1824  0.2481 -0.0695
11852ION     NA14052  11.189   1.538   3.352 -0.0799  0.3416  0.2599
11853ION     NA14053  22.287   5.814  12.391 -0.0564 -0.3608 -0.3543
11854ION     CL14054  13.415   2.030   9.519  0.1349  0.0889 -0.1021
11855ION     CL14055   6.089   4.792  29.977 -0.0160 -0.0110  0.1769
11856ION     CL14056  24.228   1.985  13.787  0.2462 -0.1054 -0.3976
11857ION     CL14057  11.960   2.224   7.724 -0.3330 -0.3112  0.2472
11858ION     CL14058  13.164   0.751  28.623  0.0736 -0.3836  0.1684
11859ION     CL14059   7.448   0.026   4.807  0.1310  0.4015  0.2136
11860ION     CL14060   2.910   2.852  29.569  0.0203  0.0425  0.2113
11861ION     CL14061   6.165   2.763  23.272 -0.1837  0.0310 -0.0377
11862ION     CL14062  25.882   0.475  35.430  0.0742  0.4196 -0.0314
11863ION     CL14063  23.629   2.425  26.736  0.0607  0.1220  0.0114
11864ION     CL14064  16.710   6.349  13.330 -0.0418  0.0801 -0.0347
11865ION     CL14065   7.602   2.155   0.876 -0.1363  0.0758 -0.0779
11866ION     CL14066  19.552   6.239  25.892 -0.4039 -0.1758 -0.1609
11867ION     CL14067  15.631   5.367  28.796 -0.3534 -0.3117  0.0982
11868ION     CL14068  21.640   6.414   2.018  0.0437  0.5381  0.0909
11869ION     CL14069  14.397   6.308  21.843  0.0597  0.1053  0.1369
11870ION     CL14070  16.353   1.710  34.684  0.0873 -0.0371  0.0940
11871ION     CL14071   5.139   0.523  27.705  0.2980 -0.0062 -0.3219
11872ION     CL14072   2.593   2.766   7.153 -0.4059  0.1779  0.0568
11873ION     CL14073  17.946   4.345  11.482 -0.4228 -0.4910 -0.2072
11874ION     CL14074   2.199   0.426  22.366 -0.1370 -0.0059  0.1819
11875ION     CL14075   4.892   4.264  35.115 -0.0665  0.3692  0.5879
11876ION     CL14076  23.496   6.206  13.258 -0.3344 -0.0524  0.1766
11877ION     CL14077  18.183   6.319   7.012 -0.1717 -0.0046 -0.4235
11878ION     CL14078   3.202   5.523   6.113 -0.3143 -0.6527 -0.1490
11879ION     CL14079  14.883   4.522   7.077  0.1385 -0.2782  0.0405
11880ION     CL14080  16.641   3.820  28.137  0.0810 -0.2828  0.0655
11881ION     CL14081   5.623   6.308  24.904 -0.0811  0.0962  0.3401
11882ION     CL14082  18.265   0.696  26.283  0.1285 -0.0486  0.1956
11883ION     CL14083  11.723   4.020  24.546  0.0370  0.0614 -0.0216
11884ION     CL14084   7.639   3.465  14.796  0.2569  0.1193  0.3629
11885ION     CL14085   5.963   4.907  24.508  0.4085 -0.0227 -0.1290
11886ION     CL14086   2.490   5.798  12.284  0.3664 -0.1466  0.1773
11887ION     CL14087   1.117   0.477  27.171 -0.2742 -0.2261  0.2467
11888ION     CL14088   2.310   4.675  29.526  0.4319 -0.2833  0.2012
11889ION     CL14089  21.576   4.476  10.385 -0.0498  0.0050 -0.2024
11890ION     CL14090   2.083   2.876  27.223 -0.0187  0.1917  0.0613
11891ION     CL14091  18.159   4.249  21.725 -0.7904  0.0587  0.3178
11892ION     CL14092   3.833   2.292   7.453  0.3325 -0.0875 -0.2830
11893ION     CL14093  11.472   2.519  12.511  0.2629  0.1365 -0.2813
11894ION     CL14094  15.148   1.706   0.166  0.2287 -0.2838  0.2569
11895ION     CL14095   3.618   2.455  23.271  0.4576 -0.2115  0.3302
11896ION     CL14096   6.181   0.020  36.148 -0.1698  0.5911 -0.3439
11897ION     CL14097  13.933   5.931  13.548 -0.0067 -0.2731  0.0344
11898ION     CL14098   6.706   5.935  35.408  0.2395  0.2459  0.0976
11899ION     CL14099  21.855   2.487  22.578 -0.0060  0.0106  0.5358
11900ION     CL14100  20.772   2.739  25.783 -0.0500  0.3767  0.0473
11901ION     CL14101  25.729   2.604  14.010  0.1776 -0.0326  0.2812
11902ION     CL14102  18.859   3.715   0.246 -0.2112  0.0548  0.2319
11903ION     CL14103  16.734   4.464  23.528  0.4481 -0.3048  0.5219
11904ION     CL14104  19.308   3.633  10.616  0.0383  0.3481  0.7756
11905ION     CL14105  10.103   3.837   4.838  0.2076 -0.1871  0.5685
11906ION     CL14106  18.541   5.734   9.353  0.1175 -0.2695  0.1463
11907ION     CL14107   8.387   3.814  23.454 -0.1322  0.0509 -0.0489
11908ION     CL14108  23.664   3.529  27.287 -0.0325 -0.1100  0.0256
11909ION     CL14109  16.841   0.023  10.902 -0.1097 -0.0260 -0.1603
11910ION     CL14110   2.174   5.432   8.795  0.3913  0.1547 -0.3179
11911ION     CL14111  25.990   5.329   2.687 -0.5259 -0.1189  0.0655
11912ION     CL14112   5.191   4.214  31.408  0.0512 -0.1695  0.2425
11913ION     CL14113  14.268   1.458  24.133  0.1975 -0.2953  0.1251
11914ION     CL14114  25.703   4.890  30.022  0.1009  0.4398 -0.2407
11915ION     CL14115  12.642   1.248  23.424  0.0140  0.0652 -0.3990
11916ION     CL14116  12.172   5.994  31.047 -0.0398  0.2049 -0.1452
11917ION     CL14117  17.234   1.613  27.201 -0.1108 -0.3045  0.0531
11918ION     CL14118  21.229   5.299   5.895 -0.0786  0.1257 -0.2016
11919ION     CL14119  22.140   5.334   5.053  0.0583 -0.0902  0.1092
11920ION     CL14120  18.633   0.068  20.776 -0.1008  0.2043  0.4107
11921ION     CL14121   5.428   6.423  28.113 -0.3240 -0.1734 -0.0400
11922ION     CL14122  25.632   2.377  25.045 -0.3877 -0.0607  0.1181
11923ION     CL14123  22.367   6.220  21.115 -0.0610  0.1324 -0.2263
11924ION     CL14124   4.237   4.401   3.550 -0.0898 -0.1074  0.1353
11925ION     CL14125   9.959   2.037  11.329  0.7167  0.2230  0.0053
11926ION     CL14126  25.625   1.881   5.031 -0.3016  0.2968 -0.0051
11927ION     CL14127  20.775   5.458  32.617  0.1415 -0.4003 -0.2300
11928ION     CL14128  13.148   0.508   2.636 -0.5401 -0.1386  0.0687
11929ION     CL14129  25.813   2.445  31.859 -0.1801  0.4624 -0.1888
11930ION     CL14130   2.219   4.825  13.424 -0.1881 -0.2138  0.4480
11931ION     CL14131   6.408   1.563  32.385 -0.0372 -0.5307 -0.0811
11932ION     CL14132  17.639   2.721  36.081  0.1928 -0.4668 -0.1176
11933ION     CL14133   1.859   0.280   7.671 -0.2475  0.1598 -0.3752
11934ION     CL14134  23.314   0.837   5.259  0.1711 -0.5862 -0.2818
11935ION     CL14135  24.458   2.473  14.659  0.3237  0.3498 -0.2349
11936ION     CL14136   8.994   1.099   1.696 -0.3910  0.2019 -0.2512
11937ION     CL14137   8.431   5.683   0.742  0.5188  0.2630 -0.1585
11938ION     CL14138   3.264   3.565  24.313  0.0555  0.2659  0.0189
11939ION     CL14139  11.638   0.789   5.275  0.2546  0.0717  0.2134
11940ION     CL14140   2.605   0.951   5.972 -0.1064  0.0136  0.2117
11941ION     CL14141   5.180   3.168   2.888  0.0369  0.1058 -0.1155
11942ION     CL14142  25.393   1.919   7.903  0.1312 -0.1379 -0.2699
11943ION     CL14143   6.708   6.430  10.403  0.4019 -0.2164  0.2345
11944ION     CL14144  11.589   0.621  25.940  0.2071  0.1584  0.5460
11945ION     CL14145  15.939   2.431  14.125 -0.2011 -0.3001 -0.1754
11946ION     CL14146  21.455   0.023  35.089 -0.0535  0.2693  0.0460
11947ION     CL14147  15.274   2.026   1.502  0.0050 -0.1445  0.0668
11948ION     CL14148   8.524   5.208  27.625  0.2928  0.0764 -0.1787
11949ION     CL14149   7.055   5.608  10.364 -0.0144  0.1166  0.0796
11950ION     CL14150   1.851   1.481  12.758  0.0560 -0.1488 -0.1691
11951ION     CL14151  25.965   6.180  31.382  0.5082  0.3672 -0.2001
11952ION     CL14152  24.258   0.673  26.440 -0.6317  0.0760 -0.1773
11953ION     CL14153  15.624   6.586  20.974  0.5207  0.0500 -0.4937
11954ION     CL14154  20.371   5.844  22.383  0.1706 -0.0941 -0.0525
11955ION     CL14155   7.231   4.612  25.042 -0.3444 -0.1630  0.0938
11956ION     CL14156  10.208   4.306  33.262  0.1751 -0.0132 -0.3819
11957ION     CL14157   3.770   3.140  32.985  0.5009  0.5209 -0.5165
11958ION     CL14158   9.786   6.397  34.171  0.6487  0.3857  0.0925
11959ION     CL14159   6.709   1.337   6.777 -0.3694  0.2238  0.1653
11960ION     CL14160   2.874   0.796  24.975  0.1595  0.4278 -0.1257
11961ION     CL14161   2.859   1.295   0.965  0.2118 -0.1319  0.4349
11962ION     CL14162  10.612   5.932   7.417  0.0934 -0.1108  0.4868
11963ION     CL14163   0.434   1.483  31.638 -0.0634 -0.2872  0.0657
11964ION     CL14164   8.614   5.678  11.221 -0.2603 -0.1783 -0.2222
11965ION     CL14165   9.058   1.681  13.733 -0.2290 -0.2117  0.1154
11966ION     CL14166  20.617   4.809   3.319  0.2684  0.1073  0.1200
11967ION     CL14167  11.206   6.170   9.910  0.2023  0.0726 -0.0569
11968ION     CL14168  24.763   3.843  30.219  0.0541 -0.1127 -0.0058
11969ION     CL14169  21.985   2.325   8.220 -0.0961 -0.4406  0.2923
11970ION     CL14170   2.814   3.201   5.113 -0.2852 -0.0819 -0.3218
11971ION     CL14171  14.831   4.102  27.590  0.1406 -0.3007 -0.0560
11972ION     CL14172  20.199   1.942   9.097 -0.2430 -0.0049 -0.0048
11973ION     CL14173  24.783   5.461  23.563 -0.0154 -0.0920  0.3378
11974ION     CL14174  19.551   4.611   8.991 -0.1159 -0.3953  0.0435
11975ION     CL14175  20.105   4.739   6.928 -0.1042 -0.0385 -0.1139
11976ION     CL14176  13.794   5.915  28.840 -0.0182  0.0983 -0.2262
11977ION     CL14177  13.090   6.346  12.685 -0.0357  0.2690  0.1272
11978ION     CL14178  16.453   1.118  12.002  0.0270 -0.0447 -0.0038
11979ION     CL14179   4.404   0.752  26.990 -0.0614  0.0392 -0.1321
11980ION     CL14180  14.261   0.802  34.022  0.0458 -0.2070  0.4999
11981ION     CL14181  26.047   0.787  13.230  0.1478  0.2179 -0.1024
11982ION     CL14182  18.131   1.168  29.920  0.3416 -0.0700 -0.2659
11983ION     CL14183  12.711   2.652   0.867 -0.3191  0.3570 -0.2323
11984ION     CL14184   8.729   4.262  22.541 -0.5758 -0.2789 -0.0324
11985ION     CL14185   8.742   2.516  22.127  0.3795  0.0670 -0.1665
11986ION     CL14186   1.684   4.548  27.793  0.6466  0.0026 -0.0779
11987ION     CL14187  26.176   1.326  25.329 -0.2599  0.0252 -0.1292
11988ION     CL14188   4.453   1.434   6.824  0.0216 -0.4291 -0.0297
11989ION     CL14189  14.071   4.171   8.919  0.1047  0.4137  0.4327
11990ION     CL14190   7.442   1.722  11.638 -0.0169  0.3489  0.1842
11991ION     CL14191  10.812   1.619  14.889  0.4516 -0.2660  0.0873
11992ION     CL14192   0.569   1.476  29.689  0.0669 -0.1051  0.3197
11993ION     CL14193  15.954   3.313  22.731 -0.1224 -0.0178  0.0991
11994ION     CL14194  14.829   4.651  23.224 -0.2386  0.0860 -0.0506
11995ION     CL14195  21.863   5.301  33.423  0.2542 -0.1636  0.3261
11996ION     CL14196  12.725   5.754   7.561  0.1698 -0.1766 -0.2785
11997ION     CL14197   0.824   1.625  32.242 -0.4831 -0.2256 -0.3584
11998ION     CL14198  13.832   0.696  14.053 -0.1625  0.0858  0.2607
11999DPPC   NC314199  22.207   2.658  20.538 -0.1428 -0.0470  0.1834
11999DPPC   PO414200  22.034   2.349  20.332 -0.0322 -0.2240  0.1062
11999DPPC   GL114201  21.876   2.365  19.996  0.0614 -0.0323  0.3758
11999DPPC   GL214202  21.615   2.488  19.908 -0.2572 -0.5294 -0.0723
11999DPPC   C1A14203  22.140   2.340  19.742 -0.1225 -0.0628  0.0775
11999DPPC   C2A14204  22.214   2.509  19.393  0.2054  0.3861 -0.0817
11999DPPC   C3A14205  22.199   2.503  18.925  0.3549  0.1530 -0.1843
11999DPPC   C4A14206  22.215   2.445  18.476 -0.2608  0.1757  0.0518
11999DPPC   C1B14207  21.539   2.525  19.572  0.4361 -0.2289 -0.0605
11999DPPC   C2B14208  21.650   2.506  19.181  0.1518 -0.3084  0.2383
11999DPPC   C3B14209  21.726   2.571  18.692 -0.1425  0.4176  0.1068
11999DPPC   C4B14210  21.668   2.504  18.197  0.2844  0.0626 -0.0308
12000DPPC   NC314211  20.516   3.284  20.598 -0.0996 -0.1478  0.1173
12000DPPC   PO414212  20.827   3.347  20.354  0.0826  0.3947 -0.0263
12000DPPC   GL114213  21.014   3.254  20.062  0.1111 -0.0170 -0.1251
12000DPPC   GL214214  21.284   3.360  20.156 -0.2296  0.3243 -0.2326
12000DPPC   C1A14215  20.974   3.257  19.703  0.1306 -0.2059 -0.3569
12000DPPC   C2A14216  21.010   3.237  19.280  0.1217  0.1523 -0.0170
12000DPPC   C3A14217  21.080   3.172  18.812 -0.1035 -0.3709  0.1487
12000DPPC   C4A14218  21.061   3.206  18.317  0.2763 -0.0453  0.0849
12000DPPC   C1B14219  21.322   3.454  19.816 -0.1582  0.0268  0.0805
12000DPPC   C2B14220  21.435   3.507  19.414  0.1315  0.1206 -0.0326
12000DPPC   C3B14221  21.452   3.521  18.951  0.1013  0.0640 -0.3332
12000DPPC   C4B14222  21.398   3.542  18.477  0.0493  0.0856 -0.0496
12001DPPC   NC314223  26.022   6.520  19.655 -0.0993  0.2717  0.1278
12001DPPC   PO414224  25.670   6.387  19.754 -0.1471 -0.3375  0.0432
12001DPPC   GL114225  25.401   6.445  19.418  0.2174 -0.1727 -0.0305
12001DPPC   GL214226  25.340   6.700  19.261  0.0958 -0.2557  0.0073
12001DPPC   C1A14227  25.160   6.309  19.208 -0.0070 -0.1169  0.3009
12001DPPC   C2A14228  25.078   6.214  18.802  0.0684  0.2510 -0.0704
12001DPPC   C3A14229  25.019   6.241  18.332 -0.1272  0.0542 -0.3013
12001DPPC   C4A14230  25.047   6.306  17.806  0.1520  0.0711 -0.1451
12001DPPC   C1B14231  25.402   6.610  18.901 -0.0683 -0.0166 -0.1224
12001DPPC   C2B14232  25.440   6.588  18.483 -0.0601 -0.3793 -0.4209
12001DPPC   C3B14233  25.388   6.625  18.046 -0.0393  0.0346 -0.1265
12001DPPC   C4B14234  25.355   6.596  17.555  0.2243  0.1605 -0.3447
12002DPPC   NC314235   0.565   1.789  20.047 -0.1242  0.1313 -0.0085
12002DPPC   PO414236   0.605   1.393  19.958  0.2734 -0.0324  0.0298
12002DPPC   GL114237   0.436   1.329  19.582 -0.0522  0.1255  0.0938
12002DPPC   GL214238   0.395   1.010  19.621 -0.2718 -0.0040 -0.3917
12002DPPC   C1A14239   0.282   1.445  19.286  0.3456  0.1225  0.2274
12002DPPC   C2A14240   0.270   1.581  18.900 -0.1576 -0.1076 -0.1749
12002DPPC   C3A14241   0.280   1.562  18.434 -0.1803  0.0542 -0.2374
12002DPPC   C4A14242   0.220   1.564  17.922 -0.0019 -0.1219 -0.2622
12002DPPC   C1B14243   0.375   1.031  19.237 -0.2972  0.4062  0.1954
12002DPPC   C2B14244   0.425   1.118  18.863  0.0008  0.1023 -0.2308
12002DPPC   C3B14245   0.387   1.036  18.409  0.0111  0.2450 -0.0040
12002DPPC   C4B14246   0.385   1.042  17.886 -0.0134 -0.2386 -0.0383
12003DPPC   NC314247  20.880   4.105  20.312  0.1716 -0.0180  0.1351
12003DPPC   PO414248  21.070   3.762  20.301  0.1576 -0.0144 -0.1682
12003DPPC   GL114249  20.967   3.818  19.914  0.0323 -0.2386 -0.0216
12003DPPC   GL214250  20.734   3.642  19.918  0.3611 -0.0180  0.4522
12003DPPC   C1A14251  20.894   4.108  19.707 -0.0632 -0.0403 -0.2177
12003DPPC   C2A14252  20.684   4.139  19.377 -0.1071 -0.1335 -0.0385
12003DPPC   C3A14253  20.712   4.109  18.918  0.0807  0.1244  0.0558
12003DPPC   C4A14254  20.769   4.112  18.438 -0.1736  0.0042  0.1446
12003DPPC   C1B14255  20.879   3.688  19.543  0.1914  0.1793 -0.0057
12003DPPC   C2B14256  20.871   3.684  19.112  0.3555 -0.2126  0.0475
12003DPPC   C3B14257  20.893   3.609  18.640 -0.1458 -0.0450  0.0044
12003DPPC   C4B14258  20.974   3.690  18.155 -0.0695  0.0597  0.2052
12004DPPC   NC314259  23.940   0.321  20.348 -0.2265  0.1004 -0.2873
12004DPPC   PO414260  23.917   0.703  20.131 -0.1368 -0.0994 -0.2413
12004DPPC   GL114261  23.745   1.071  20.086  0.1914  0.3670 -0.0775
12004DPPC   GL214262  23.506   0.940  19.900 -0.1630 -0.0869 -0.1001
12004DPPC   C1A14263  23.839   1.188  19.765  0.2220 -0.2696 -0.3961
12004DPPC   C2A14264  23.906   1.246  19.374 -0.0071  0.1835 -0.0651
12004DPPC   C3A14265  23.998   1.288  18.900 -0.1057  0.0035 -0.1448
12004DPPC   C4A14266  24.060   1.177  18.401  0.0066  0.1426  0.1511
12004DPPC   C1B14267  23.544   0.870  19.515 -0.2246  0.0236  0.1881
12004DPPC   C2B14268  23.618   0.943  19.119 -0.0117  0.0985  0.1124
12004DPPC   C3B14269  23.747   0.923  18.636  0.2180  0.0899 -0.2105
12004DPPC   C4B14270  23.738   0.811  18.138 -0.0174 -0.1676 -0.1682
12005DPPC   NC314271   0.257   5.551  20.049 -0.1607  0.2204 -0.0183
12005DPPC   PO414272   0.467   5.771  19.757  0.1588 -0.2697  0.0576
12005DPPC   GL114273   0.331   5.725  19.378  0.1038  0.0229  0.2970
12005DPPC   GL214274   0.283   5.523  19.504 -0.1207  0.0574 -0.1736
12005DPPC   C1A14275   0.429   5.851  18.993 -0.2356  0.2026 -0.0127
12005DPPC   C2A14276   0.524   5.865  18.591  0.0101 -0.0811 -0.2745
12005DPPC   C3A14277   0.572   5.868  18.134 -0.0810 -0.0753  0.3075
12005DPPC   C4A14278   0.609   5.812  17.633  0.0784 -0.0937  0.0173
12005DPPC   C1B14279   0.288   5.196  19.250 -0.0756 -0.0251  0.2168
12005DPPC   C2B14280   0.353   5.041  18.835 -0.2389 -0.0313  0.1961
12005DPPC   C3B14281   0.312   4.996  18.323 -0.1432  0.0272 -0.0789
12005DPPC   C4B14282   0.378   4.942  17.834 -0.2728  0.2349  0.0879
12006DPPC   NC314283  23.694   1.084  20.584  0.1664 -0.0876 -0.0125
12006DPPC   PO414284  23.719   1.449  20.405  0.2228 -0.2956  0.0520
12006DPPC   GL114285  23.671   1.515  20.029 -0.1082  0.2247 -0.2258
12006DPPC   GL214286  23.907   1.616  19.908 -0.3513 -0.1949 -0.3563
12006DPPC   C1A14287  23.465   1.458  19.726  0.1952 -0.5451  0.4320
12006DPPC   C2A14288  23.389   1.346  19.364 -0.2001  0.1362 -0.1239
12006DPPC   C3A14289  23.477   1.375  18.882  0.1080  0.0244  0.2450
12006DPPC   C4A14290  23.569   1.285  18.345 -0.0568 -0.0696  0.0699
12006DPPC   C1B14291  24.174   1.640  19.598  0.3426 -0.3796 -0.2770
12006DPPC   C2B14292  24.297   1.648  19.223  0.1350  0.0175  0.1542
12006DPPC   C3B14293  24.436   1.511  18.790  0.0176 -0.1874  0.1840
12006DPPC   C4B14294  24.394   1.551  18.306  0.1155 -0.5131 -0.0941
12007DPPC   NC314295  24.410   0.719  20.230 -0.1530  0.1117 -0.2509
12007DPPC   PO414296  24.328   0.433  19.928 -0.3498  0.0945  0.1329
12007DPPC   GL114297  24.164   0.494  19.570 -0.1566 -0.3894 -0.1084
12007DPPC   GL214298  24.060   0.767  19.628 -0.1457  0.2417 -0.2091
12007DPPC   C1A14299  24.228   0.413  19.227 -0.1565 -0.1142  0.1945
12007DPPC   C2A14300  24.310   0.289  18.841 -0.2004 -0.0416  0.0057
12007DPPC   C3A14301  24.315   0.195  18.409 -0.0983  0.1923  0.0491
12007DPPC   C4A14302  24.419   0.264  17.885  0.2148 -0.2518  0.0643
12007DPPC   C1B14303  24.135   0.853  19.274 -0.1314  0.2883  0.3250
12007DPPC   C2B14304  24.153   0.810  18.846 -0.0413  0.1455  0.3589
12007DPPC   C3B14305  24.225   0.691  18.322 -0.2707 -0.0073 -0.2143
12007DPPC   C4B14306  24.235   0.728  17.823  0.0096  0.3285 -0.0890
12008DPPC   NC314307  22.942   4.898  20.310  0.1811 -0.0409  0.2670
12008DPPC   PO414308  22.932   4.501  20.185  0.0210 -0.2145  0.3205
12008DPPC   GL114309  22.873   4.494  19.810  0.1294 -0.0538  0.3322
12008DPPC   GL214310  22.573   4.570  19.865 -0.0462 -0.0652 -0.2185
12008DPPC   C1A14311  22.880   4.471  19.437 -0.1830  0.0882 -0.4224
12008DPPC   C2A14312  22.763   4.500  19.002  0.1174  0.2674 -0.1632
12008DPPC   C3A14313  22.775   4.576  18.556  0.0508  0.1183 -0.0182
12008DPPC   C4A14314  22.803   4.568  18.072 -0.1341  0.1300 -0.0158
12008DPPC   C1B14315  22.312   4.547  19.604  0.1829 -0.0065  0.2343
12008DPPC   C2B14316  22.375   4.649  19.217 -0.0211 -0.0618 -0.0697
12008DPPC   C3B14317  22.361   4.713  18.770 -0.0863 -0.1534 -0.4272
12008DPPC   C4B14318  22.310   4.667  18.262 -0.0265 -0.1515  0.0700
12009DPPC   NC314319  22.601   5.832  20.611 -0.3267  0.1504 -0.1968
12009DPPC   PO414320  22.281   5.801  20.344  0.0700 -0.1462 -0.1196
12009DPPC   GL114321  22.357   5.756  19.971 -0.0015 -0.2917  0.0055
12009DPPC   GL214322  22.326   6.032  19.903  0.1827 -0.0211  0.0659
12009DPPC   C1A14323  22.241   5.610  19.601  0.2304  0.0257  0.3036
12009DPPC   C2A14324  22.040   5.530  19.293  0.0380  0.2757 -0.1493
12009DPPC   C3A14325  22.056   5.596  18.883  0.2203 -0.2606  0.2138
12009DPPC   C4A14326  22.065   5.609  18.407 -0.1161 -0.0003 -0.1974
12009DPPC   C1B14327  22.369   6.016  19.490  0.1900  0.2767 -0.1723
12009DPPC   C2B14328  22.412   5.913  19.078 -0.2127 -0.3080  0.2369
12009DPPC   C3B14329  22.406   5.984  18.601 -0.1389  0.0796  0.3539
12009DPPC   C4B14330  22.413   5.914  18.108 -0.1179  0.0030 -0.0441
12010DPPC   NC314331  22.051   1.133  20.026  0.1605 -0.0760 -0.3592
12010DPPC   PO414332  22.249   0.816  19.983 -0.0771 -0.2239  0.0302
12010DPPC   GL114333  22.254   0.594  19.676  0.1747 -0.1540 -0.1616
12010DPPC   GL214334  21.974   0.513  19.771  0.0634  0.0212  0.0014
12010DPPC   C1A14335  22.270   0.612  19.326 -0.0861  0.2895  0.0575
12010DPPC   C2A14336  22.370   0.755  18.927 -0.0754  0.1139 -0.1737
12010DPPC   C3A14337  22.423   0.655  18.452  0.3188 -0.2285  0.0557
12010DPPC   C4A14338  22.456   0.553  17.925  0.0444 -0.0073  0.0349
12010DPPC   C1B14339  21.717   0.504  19.486 -0.1216 -0.0450 -0.0641
12010DPPC   C2B14340  21.546   0.411  19.149  0.0475  0.0528 -0.0705
12010DPPC   C3B14341  21.513   0.395  18.652 -0.3830  0.0845  0.0659
12010DPPC   C4B14342  21.523   0.411  18.181 -0.3567 -0.0922  0.0261
12011DPPC   NC314343  21.469   3.636  20.511  0.1199  0.1354  0.3403
12011DPPC   PO414344  21.718   3.383  20.328 -0.1417  0.1138 -0.2536
12011DPPC   GL114345  21.697   3.218  19.984 -0.1165  0.1492  0.4562
12011DPPC   GL214346  21.484   3.023  19.949  0.0398  0.2097  0.5267
12011DPPC   C1A14347  21.854   3.340  19.656  0.3715 -0.2240  0.3135
12011DPPC   C2A14348  21.885   3.416  19.226 -0.2198  0.0315  0.0485
12011DPPC   C3A14349  21.942   3.410  18.734 -0.1698 -0.1102  0.0350
12011DPPC   C4A14350  21.844   3.413  18.251 -0.1914  0.0237 -0.0412
12011DPPC   C1B14351  21.474   3.065  19.585 -0.4720 -0.3117 -0.0517
12011DPPC   C2B14352  21.494   3.035  19.176  0.1407  0.6642 -0.0623
12011DPPC   C3B14353  21.582   3.067  18.728  0.0730 -0.1339  0.1991
12011DPPC   C4B14354  21.538   3.005  18.244  0.2120 -0.1671 -0.1484
12012DPPC   NC314355  25.394   6.003  19.575  0.1506 -0.2787  0.1709
12012DPPC   PO414356  25.461   5.650  19.703  0.2557  0.0782 -0.1027
12012DPPC   GL114357  25.687   5.564  19.331 -0.0850 -0.1337  0.0873
12012DPPC   GL214358  25.547   5.742  19.197 -0.3029  0.0974 -0.0754
12012DPPC   C1A14359  26.000   5.600  19.113 -0.1602 -0.1203 -0.3639
12012DPPC   C2A14360  26.101   5.586  18.745  0.0202  0.1100  0.0282
12012DPPC   C3A14361  26.133   5.594  18.259  0.0839 -0.0543  0.0264
12012DPPC   C4A14362  26.126   5.624  17.791 -0.0102 -0.0926  0.2147
12012DPPC   C1B14363  25.627   5.725  18.891  0.0994  0.3003  0.2276
12012DPPC   C2B14364  25.710   5.614  18.518  0.3018 -0.1989  0.0917
12012DPPC   C3B14365  25.651   5.690  17.984  0.2897 -0.0457  0.0001
12012DPPC   C4B14366  25.686   5.689  17.454  0.1209  0.1466 -0.0707
12013DPPC   NC314367  22.360   2.015  20.447  0.1119  0.0794  0.0158
12013DPPC   PO414368  22.586   2.360  20.372  0.1809  0.0189 -0.0796
12013DPPC   GL114369  22.661   2.350  19.939 -0.0835 -0.0971 -0.1877
12013DPPC   GL214370  22.486   2.091  19.918  0.1978  0.2080 -0.3464
12013DPPC   C1A14371  22.606   2.336  19.566 -0.1119  0.2389  0.0229
12013DPPC   C2A14372  22.665   2.360  19.171 -0.1425 -0.2729  0.0119
12013DPPC   C3A14373  22.671   2.317  18.685  0.0673  0.2117 -0.0109
12013DPPC   C4A14374  22.697   2.363  18.224  0.1453  0.1214 -0.0867
12013DPPC   C1B14375  22.266   1.932  19.646 -0.1201 -0.0189  0.0434
12013DPPC   C2B14376  22.301   1.974  19.229  0.0168  0.0673  0.2504
12013DPPC   C3B14377  22.312   1.957  18.746 -0.1814  0.0009  0.3510
12013DPPC   C4B14378  22.365   1.935  18.256 -0.0132  0.0472 -0.6359
12014DPPC   NC314379  23.482   3.347  20.199 -0.0130 -0.0935  0.0458
12014DPPC   PO414380  23.829   3.437  20.045 -0.1228 -0.0536  0.1812
12014DPPC   GL114381  23.759   3.692  19.734 -0.0076  0.2371  0.0653
12014DPPC   GL214382  23.578   3.491  19.652 -0.2286 -0.0306 -0.0296
12014DPPC   C1A14383  23.896   3.821  19.399  0.1159  0.1654 -0.1036
12014DPPC   C2A14384  24.001   3.840  19.023  0.1617  0.2705 -0.1028
12014DPPC   C3A14385  23.988   3.872  18.495 -0.0996  0.2494  0.1854
12014DPPC   C4A14386  23.951   3.849  17.970 -0.0602  0.1540 -0.0154
12014DPPC   C1B14387  23.612   3.439  19.291  0.3298 -0.1383  0.0848
12014DPPC   C2B14388  23.610   3.453  18.844  0.0486 -0.0239  0.0536
12014DPPC   C3B14389  23.688   3.420  18.385  0.0139  0.1779 -0.0824
12014DPPC   C4B14390  23.623   3.456  17.873 -0.1385  0.0126  0.3890
12015DPPC   NC314391  24.630   5.860  20.597  0.2285 -0.0682 -0.3601
12015DPPC   PO414392  24.707   5.691  20.246 -0.2243  0.0708  0.2024
12015DPPC   GL114393  24.520   5.978  19.938 -0.5122  0.4562  0.1197
12015DPPC   GL214394  24.581   5.727  19.712  0.1230  0.2135  0.0363
12015DPPC   C1A14395  24.466   6.112  19.579 -0.0458  0.5070  0.0567
12015DPPC   C2A14396  24.260   6.003  19.216 -0.1569 -0.1826  0.0782
12015DPPC   C3A14397  24.159   5.928  18.781  0.0328  0.1591 -0.1053
12015DPPC   C4A14398  24.219   5.988  18.276 -0.3098  0.0235  0.3411
12015DPPC   C1B14399  24.567   5.692  19.327 -0.0605  0.2370 -0.1836
12015DPPC   C2B14400  24.351   5.538  18.941  0.0309  0.4987 -0.1587
12015DPPC   C3B14401  24.399   5.532  18.418  0.2475  0.1096  0.3363
12015DPPC   C4B14402  24.331   5.501  17.916 -0.2091 -0.3123 -0.1497
12016DPPC   NC314403  21.906   5.624  20.612 -0.1877 -0.0349  0.2173
12016DPPC   PO414404  21.865   5.329  20.362  0.2401  0.1804 -0.3833
12016DPPC   GL114405  21.866   5.345  19.953 -0.2354  0.0864 -0.1223
12016DPPC   GL214406  22.033   5.111  19.833  0.1553  0.2275  0.0227
12016DPPC   C1A14407  21.823   5.588  19.658  0.1735  0.1714 -0.1111
12016DPPC   C2A14408  21.539   5.641  19.362 -0.0591  0.1127 -0.1069
12016DPPC   C3A14409  21.522   5.658  18.868  0.1686 -0.1531  0.1068
12016DPPC   C4A14410  21.533   5.680  18.374 -0.1081 -0.1389 -0.2378
12016DPPC   C1B14411  21.800   5.142  19.510 -0.0075 -0.3673  0.0447
12016DPPC   C2B14412  21.704   5.231  19.098 -0.1848  0.1963 -0.2053
12016DPPC   C3B14413  21.679   5.272  18.617 -0.3136 -0.0069 -0.4482
12016DPPC   C4B14414  21.679   5.243  18.157  0.4068 -0.3225 -0.0099
12017DPPC   NC314415  24.129   5.783  19.622 -0.0820  0.1994 -0.0020
12017DPPC   PO414416  24.194   5.380  19.638  0.2372 -0.0062 -0.1832
12017DPPC   GL114417  24.407   5.098  19.401  0.3694  0.1073  0.4527
12017DPPC   GL214418  24.658   5.285  19.445  0.0795  0.2520  0.0178
12017DPPC   C1A14419  24.441   5.055  19.054 -0.1230  0.1758  0.1222
12017DPPC   C2A14420  24.473   5.020  18.653 -0.1320 -0.1434  0.0090
12017DPPC   C3A14421  24.507   5.052  18.199 -0.4753  0.2548  0.1061
12017DPPC   C4A14422  24.477   5.030  17.717  0.0303  0.0094 -0.2576
12017DPPC   C1B14423  24.792   5.345  19.091  0.3879 -0.0047 -0.0208
12017DPPC   C2B14424  24.854   5.409  18.697 -0.1411 -0.0631  0.0380
12017DPPC   C3B14425  24.811   5.405  18.193 -0.0174 -0.3242 -0.1496
12017DPPC   C4B14426  24.797   5.477  17.671  0.0495  0.1910 -0.1867
12018DPPC   NC314427   0.606   4.974  20.283 -0.0147  0.3020  0.0879
12018DPPC   PO414428   0.263   5.038  20.083  0.2165  0.1396 -0.1402
12018DPPC   GL114429   0.495   4.938  19.712  0.1756  0.3030 -0.1608
12018DPPC   GL214430   0.665   5.202  19.770  0.1568 -0.3459 -0.4501
12018DPPC   C1A14431   0.540   4.869  19.355 -0.2637 -0.1739  0.1765
12018DPPC   C2A14432   0.596   4.558  19.070 -0.1723 -0.0251  0.1716
12018DPPC   C3A14433   0.562   4.552  18.607  0.2725  0.1346  0.1549
12018DPPC   C4A14434   0.580   4.528  18.095  0.1517 -0.4169  0.0359
12018DPPC   C1B14435   0.668   5.299  19.435  0.1106 -0.1972 -0.1066
12018DPPC   C2B14436   0.667   5.403  19.036 -0.2338 -0.0099  0.1332
12018DPPC   C3B14437   0.656   5.329  18.505 -0.2211  0.0072 -0.0059
12018DPPC   C4B14438   0.723   5.276  18.023 -0.0117  0.0167  0.1215
12019DPPC   NC314439   1.144   0.667  19.989 -0.1358  0.1504 -0.0626
12019DPPC   PO414440   0.719   0.731  19.892 -0.0197 -0.2299  0.2115
12019DPPC   GL114441   0.520   0.421  19.514 -0.1137 -0.1977 -0.2757
12019DPPC   GL214442   0.695   0.669  19.417 -0.0662 -0.1649  0.0840
12019DPPC   C1A14443   0.271   0.287  19.237 -0.3107  0.0987 -0.1293
12019DPPC   C2A14444   0.202   0.177  18.837  0.1123  0.1969 -0.2180
12019DPPC   C3A14445   0.209   0.215  18.348  0.0851  0.0472 -0.0129
12019DPPC   C4A14446   0.260   0.245  17.831 -0.0194 -0.0680  0.1424
12019DPPC   C1B14447   0.595   0.583  19.065 -0.0048  0.1273 -0.2368
12019DPPC   C2B14448   0.532   0.642  18.686  0.0139  0.0922 -0.0031
12019DPPC   C3B14449   0.513   0.597  18.175  0.0989  0.2385 -0.3060
12019DPPC   C4B14450   0.587   0.572  17.689 -0.4125  0.0354 -0.2365
12020DPPC   NC314451  24.976   5.449  19.725  0.0988 -0.4696  0.2416
12020DPPC   PO414452  24.993   5.858  19.795  0.1786  0.1174 -0.0186
12020DPPC   GL114453  24.907   5.894  19.345 -0.2237 -0.1174 -0.2227
12020DPPC   GL214454  25.099   5.706  19.310  0.3136 -0.1419 -0.2636
12020DPPC   C1A14455  24.680   5.971  19.013 -0.1066 -0.1833 -0.2208
12020DPPC   C2A14456  24.664   5.881  18.621 -0.0238 -0.0226  0.2838
12020DPPC   C3A14457  24.666   5.905  18.150  0.3329 -0.0522  0.2059
12020DPPC   C4A14458  24.683   5.965  17.719  0.3889  0.1642  0.0400
12020DPPC   C1B14459  25.152   5.795  18.939  0.1012 -0.1340  0.1418
12020DPPC   C2B14460  25.186   5.759  18.469  0.0229 -0.0535  0.0948
12020DPPC   C3B14461  25.146   5.791  17.991  0.2792 -0.1689  0.0983
12020DPPC   C4B14462  25.119   5.827  17.484  0.0595  0.2941  0.1471
12021DPPC   NC314463  25.318   3.156  20.176  0.0241  0.1356  0.1365
12021DPPC   PO414464  25.214   2.911  19.862 -0.0702  0.1929  0.2919
12021DPPC   GL114465  25.160   3.094  19.475 -0.1508 -0.1199 -0.0669
12021DPPC   GL214466  24.883   3.157  19.477  0.1037  0.1249  0.2034
12021DPPC   C1A14467  25.185   3.190  19.133 -0.1532  0.0274  0.0144
12021DPPC   C2A14468  25.140   3.239  18.728  0.0516 -0.1801  0.1029
12021DPPC   C3A14469  25.123   3.158  18.278 -0.0393 -0.2337 -0.0560
12021DPPC   C4A14470  25.182   3.238  17.844 -0.0157  0.2068  0.4193
12021DPPC   C1B14471  24.833   2.954  19.186  0.1678 -0.1061 -0.0789
12021DPPC   C2B14472  24.765   2.934  18.764  0.1297  0.0933 -0.0793
12021DPPC   C3B14473  24.806   2.827  18.260  0.1049  0.0162  0.2119
12021DPPC   C4B14474  24.802   2.920  17.786  0.1832 -0.1537  0.1663
12022DPPC   NC314475  24.097   1.723  20.275 -0.1781  0.0473 -0.1917
12022DPPC   PO414476  24.393   1.904  20.075 -0.0247 -0.0900  0.0750
12022DPPC   GL114477  24.468   1.972  19.703 -0.2230 -0.1791 -0.0790
12022DPPC   GL214478  24.508   2.312  19.740  0.2836 -0.0492 -0.0674
12022DPPC   C1A14479  24.574   1.968  19.351 -0.1480 -0.1776  0.2549
12022DPPC   C2A14480  24.648   1.970  19.000 -0.3489  0.2728  0.0928
12022DPPC   C3A14481  24.680   1.933  18.492 -0.0766  0.0520 -0.0928
12022DPPC   C4A14482  24.708   1.865  17.986  0.1113  0.1350 -0.2133
12022DPPC   C1B14483  24.423   2.449  19.414  0.1940  0.1030 -0.3892
12022DPPC   C2B14484  24.429   2.462  18.978  0.1950 -0.2993  0.0062
12022DPPC   C3B14485  24.489   2.402  18.509 -0.1044  0.3149 -0.2010
12022DPPC   C4B14486  24.552   2.370  18.050 -0.0163 -0.2320  0.0709
12023DPPC   NC314487  23.224   0.496  19.935 -0.1042  0.2298  0.1074
12023DPPC   PO414488  23.514   0.320  20.146 -0.0433  0.1593  0.0919
12023DPPC   GL114489  23.812   0.327  19.845 -0.4847 -0.4975 -0.0989
12023DPPC   GL214490  23.668   0.490  19.709  0.4185 -0.0602  0.0137
12023DPPC   C1A14491  23.908   0.090  19.559  0.0773  0.1142  0.1122
12023DPPC   C2A14492  24.018  -0.041  19.172 -0.5362  0.0055  0.0382
12023DPPC   C3A14493  24.100  -0.159  18.714  0.2460  0.0919  0.0204
12023DPPC   C4A14494  23.987  -0.130  18.204 -0.0265 -0.3465 -0.0786
12023DPPC   C1B14495  23.718   0.429  19.366 -0.0482 -0.0529 -0.4674
12023DPPC   C2B14496  23.799   0.409  18.964  0.3027  0.0740 -0.1410
12023DPPC   C3B14497  23.829   0.406  18.475 -0.0887  0.2484 -0.1161
12023DPPC   C4B14498  23.906   0.373  17.960  0.1314  0.1352  0.0747
12024DPPC   NC314499  21.881   0.849  20.416 -0.2671  0.2069 -0.1623
12024DPPC   PO414500  21.663   0.688  20.131 -0.0424 -0.0354  0.2268
12024DPPC   GL114501  21.626   0.813  19.800  0.2978  0.2915 -0.0618
12024DPPC   GL214502  21.784   0.934  19.657  0.0613 -0.3413  0.0575
12024DPPC   C1A14503  21.423   0.852  19.496  0.1283 -0.0016  0.2589
12024DPPC   C2A14504  21.323   0.852  19.118 -0.0949  0.0345  0.3349
12024DPPC   C3A14505  21.344   0.851  18.646  0.0403  0.4395 -0.0177
12024DPPC   C4A14506  21.456   0.940  18.192 -0.0060 -0.0397  0.0110
12024DPPC   C1B14507  21.856   0.839  19.314  0.0851 -0.1737  0.1580
12024DPPC   C2B14508  21.888   0.692  18.895  0.1210 -0.0345  0.2137
12024DPPC   C3B14509  21.876   0.782  18.448 -0.2133 -0.2116  0.2592
12024DPPC   C4B14510  21.910   0.810  17.886 -0.1952  0.3067 -0.1816
12025DPPC   NC314511  23.911   4.375  20.110 -0.1454  0.1952 -0.0495
12025DPPC   PO414512  23.483   4.374  20.061 -0.1579  0.3245 -0.2959
12025DPPC   GL114513  23.301   4.150  19.806  0.2303 -0.1492 -0.1832
12025DPPC   GL214514  23.262   4.438  19.665  0.1448  0.2746 -0.3304
12025DPPC   C1A14515  23.030   3.991  19.537  0.2050  0.1341  0.1756
12025DPPC   C2A14516  22.966   4.028  19.136 -0.0976  0.1058  0.0501
12025DPPC   C3A14517  22.983   4.004  18.688 -0.3035  0.2287  0.1802
12025DPPC   C4A14518  22.955   4.025  18.251  0.0706 -0.0937 -0.0830
12025DPPC   C1B14519  23.268   4.372  19.299  0.2274  0.2916  0.0973
12025DPPC   C2B14520  23.294   4.378  18.882  0.0163 -0.1218  0.0539
12025DPPC   C3B14521  23.247   4.381  18.425  0.3861  0.0102 -0.0008
12025DPPC   C4B14522  23.290   4.324  17.932 -0.0256 -0.2789 -0.0479
12026DPPC   NC314523  23.419   6.400  20.112 -0.0860 -0.2233  0.1136
12026DPPC   PO414524  23.088   6.168  19.993 -0.1591 -0.0892 -0.1494
12026DPPC   GL114525  22.781   6.209  19.617  0.2948  0.1284  0.0623
12026DPPC   GL214526  22.748   6.005  19.725 -0.7194 -0.0463  0.4282
12026DPPC   C1A14527  22.742   6.269  19.248  0.2354  0.1924  0.0117
12026DPPC   C2A14528  22.745   6.319  18.854  0.1508  0.1245 -0.0092
12026DPPC   C3A14529  22.712   6.259  18.350 -0.0214 -0.0456  0.2757
12026DPPC   C4A14530  22.732   6.316  17.854  0.1326 -0.0895 -0.1130
12026DPPC   C1B14531  22.908   5.887  19.416  0.4219  0.0238  0.2255
12026DPPC   C2B14532  22.874   5.835  19.036 -0.3939  0.1482  0.0372
12026DPPC   C3B14533  22.871   5.833  18.505  0.0636  0.2596 -0.0653
12026DPPC   C4B14534  22.926   5.845  18.025  0.1677  0.1306 -0.4412
12027DPPC   NC314535  25.023   3.873  20.042 -0.1423 -0.1431 -0.0329
12027DPPC   PO414536  25.360   3.738  20.089 -0.1787  0.1821  0.0573
12027DPPC   GL114537  25.648   3.688  19.714  0.0305  0.2001 -0.1016
12027DPPC   GL214538  25.554   3.462  19.657 -0.0153  0.0846 -0.0398
12027DPPC   C1A14539  25.752   3.872  19.493 -0.3756  0.1026 -0.0475
12027DPPC   C2A14540  25.826   3.947  19.097  0.0920  0.1865 -0.0013
12027DPPC   C3A14541  25.762   3.971  18.596 -0.0684  0.1509  0.1277
12027DPPC   C4A14542  25.817   3.969  18.070 -0.3962  0.1983  0.0078
12027DPPC   C1B14543  25.503   3.561  19.296  0.2379  0.0889  0.0188
12027DPPC   C2B14544  25.465   3.554  18.900 -0.4180  0.0467 -0.0939
12027DPPC   C3B14545  25.476   3.528  18.413  0.0414 -0.3273 -0.0305
12027DPPC   C4B14546  25.332   3.711  17.984 -0.2956 -0.1490 -0.3536
12028DPPC   NC314547  25.812   4.080  20.024  0.0451 -0.1489  0.0751
12028DPPC   PO414548  25.833   4.468  19.962  0.2320 -0.0959 -0.0142
12028DPPC   GL114549  25.842   4.624  19.506  0.1525  0.0518 -0.0443
12028DPPC   GL214550  25.567   4.666  19.522  0.3967 -0.2034 -0.0318
12028DPPC   C1A14551  26.009   4.735  19.205  0.0233 -0.3347 -0.0521
12028DPPC   C2A14552  26.070   4.779  18.790 -0.1388 -0.1379 -0.0488
12028DPPC   C3A14553  25.988   4.727  18.375 -0.0019  0.2406 -0.0817
12028DPPC   C4A14554  26.000   4.757  17.876  0.0321 -0.0529 -0.0018
12028DPPC   C1B14555  25.403   4.830  19.210  0.2915 -0.0543 -0.0559
12028DPPC   C2B14556  25.412   4.867  18.830 -0.1492 -0.1200 -0.1451
12028DPPC   C3B14557  25.492   4.859  18.399  0.2412  0.2926  0.0340
12028DPPC   C4B14558  25.543   4.893  17.898  0.3043  0.1974 -0.1342
12029DPPC   NC314559  22.623   3.296  20.208 -0.0515  0.1655 -0.0900
12029DPPC   PO414560  23.003   3.182  20.286  0.0718 -0.4293  0.0434
12029DPPC   GL114561  23.182   3.074  19.969 -0.0578 -0.2139  0.1890
12029DPPC   GL214562  23.291   2.817  20.029 -0.2289 -0.1092  0.1929
12029DPPC   C1A14563  23.219   3.187  19.591 -0.1683 -0.0105  0.1694
12029DPPC   C2A14564  23.277   3.074  19.174  0.1854  0.1373  0.1809
12029DPPC   C3A14565  23.352   3.046  18.735 -0.1098 -0.2970  0.0986
12029DPPC   C4A14566  23.276   3.116  18.210 -0.1306 -0.1401 -0.3259
12029DPPC   C1B14567  23.379   2.635  19.715  0.2294  0.0169  0.1160
12029DPPC   C2B14568  23.413   2.532  19.335  0.0025  0.1231  0.0424
12029DPPC   C3B14569  23.492   2.543  18.832  0.1736 -0.0294  0.2557
12029DPPC   C4B14570  23.496   2.679  18.297 -0.2384  0.0491 -0.0349
12030DPPC   NC314571  26.236   2.346  19.717 -0.1405 -0.1244  0.2240
12030DPPC   PO414572  25.921   2.272  19.956 -0.1357  0.3867  0.0472
12030DPPC   GL114573  25.695   2.375  19.715  0.2195  0.2500  0.5721
12030DPPC   GL214574  25.793   2.620  19.613 -0.2090  0.1531 -0.1586
12030DPPC   C1A14575  25.525   2.134  19.429 -0.0592  0.0476 -0.1695
12030DPPC   C2A14576  25.410   2.226  19.047 -0.1172  0.1975 -0.0888
12030DPPC   C3A14577  25.429   2.323  18.589 -0.2268 -0.1211 -0.0843
12030DPPC   C4A14578  25.497   2.295  18.035  0.0185  0.1251 -0.0690
12030DPPC   C1B14579  25.818   2.610  19.272  0.3375 -0.0216 -0.0603
12030DPPC   C2B14580  25.799   2.627  18.829  0.2685  0.0037 -0.0950
12030DPPC   C3B14581  25.744   2.595  18.335  0.0271 -0.1189 -0.0200
12030DPPC   C4B14582  25.846   2.661  17.867  0.0464 -0.1074 -0.0727
12031DPPC   NC314583  21.926   3.933  20.328  0.1324  0.1123 -0.2744
12031DPPC   PO414584  21.555   4.040  20.245  0.0253  0.0737  0.3257
12031DPPC   GL114585  21.438   3.740  20.043  0.0002 -0.5363  0.4021
12031DPPC   GL214586  21.747   3.713  19.990 -0.1497 -0.3701 -0.1193
12031DPPC   C1A14587  21.314   3.851  19.660  0.2596 -0.0399 -0.0310
12031DPPC   C2A14588  21.214   3.973  19.241 -0.0580 -0.2125  0.1905
12031DPPC   C3A14589  21.209   4.074  18.740 -0.1063  0.0509 -0.1776
12031DPPC   C4A14590  21.305   4.048  18.264 -0.1399 -0.2246  0.0648
12031DPPC   C1B14591  21.785   3.796  19.647 -0.1334  0.2851 -0.1513
12031DPPC   C2B14592  21.728   3.889  19.284 -0.0140 -0.2134 -0.0778
12031DPPC   C3B14593  21.774   3.937  18.882 -0.1564  0.0713  0.3864
12031DPPC   C4B14594  21.752   3.911  18.453  0.1199  0.1097  0.0909
12032DPPC   NC314595   1.282   2.491  19.430  0.0128 -0.0454 -0.0875
12032DPPC   PO414596   1.346   2.087  19.507 -0.1612 -0.0138  0.1453
12032DPPC   GL114597   1.361   1.795  19.140 -0.0993 -0.1348 -0.2597
12032DPPC   GL214598   1.124   1.720  19.162 -0.1225 -0.1617 -0.1678
12032DPPC   C1A14599   1.457   1.653  18.824  0.0866  0.3557  0.0102
12032DPPC   C2A14600   1.431   1.632  18.393  0.2646  0.2018 -0.1680
12032DPPC   C3A14601   1.512   1.682  17.892 -0.0433 -0.1054 -0.0982
12032DPPC   C4A14602   1.488   1.555  17.425  0.0336  0.1548  0.1546
12032DPPC   C1B14603   0.949   1.735  18.848  0.0886  0.0932  0.2040
12032DPPC   C2B14604   0.682   1.486  18.643  0.1561  0.2026  0.1599
12032DPPC   C3B14605   0.644   1.418  18.177 -0.1399 -0.1005 -0.0254
12032DPPC   C4B14606   0.752   1.309  17.728 -0.0787 -0.0041 -0.1370
12033DPPC   NC314607  24.836   5.230  20.387  0.0670  0.1181 -0.1070
12033DPPC   PO414608  24.992   5.070  20.068  0.0654  0.0063 -0.1771
12033DPPC   GL114609  24.953   4.936  19.633  0.2678  0.3088  0.1323
12033DPPC   GL214610  25.052   4.696  19.752  0.2578  0.2796  0.0728
12033DPPC   C1A14611  24.858   4.926  19.308  0.4211 -0.2127 -0.2753
12033DPPC   C2A14612  24.930   4.945  18.912 -0.1310  0.1117 -0.2477
12033DPPC   C3A14613  24.943   4.997  18.453  0.1644  0.2269 -0.0429
12033DPPC   C4A14614  24.949   5.013  17.956  0.1830 -0.0079 -0.2069
12033DPPC   C1B14615  25.204   4.536  19.466  0.4463 -0.1907  0.1486
12033DPPC   C2B14616  25.157   4.488  19.073  0.0697 -0.3431  0.0551
12033DPPC   C3B14617  25.138   4.518  18.622 -0.0875 -0.0220  0.0054
12033DPPC   C4B14618  25.176   4.615  18.120  0.1022  0.0557  0.2032
12034DPPC   NC314619  21.921   6.239  19.959  0.3423  0.3418  0.3963
12034DPPC   PO414620  22.219   6.384  20.163 -0.0984 -0.2421  0.0888
12034DPPC   GL114621  22.317   6.402  19.733  0.1175  0.0716 -0.1819
12034DPPC   GL214622  22.297   6.690  19.772  0.5068  0.0133 -0.0374
12034DPPC   C1A14623  22.333   6.423  19.351  0.2689 -0.2382  0.1336
12034DPPC   C2A14624  22.232   6.383  18.922  0.0830 -0.0839 -0.0781
12034DPPC   C3A14625  22.155   6.460  18.458  0.0648  0.2618  0.3389
12034DPPC   C4A14626  22.180   6.423  17.976 -0.4383  0.2623 -0.3451
12034DPPC   C1B14627  22.447   6.849  19.515  0.1596 -0.2467 -0.2260
12034DPPC   C2B14628  22.561   6.748  19.117 -0.1804 -0.1392  0.0382
12034DPPC   C3B14629  22.526   6.783  18.689  0.2540 -0.0527  0.0853
12034DPPC   C4B14630  22.581   6.755  18.214  0.0830 -0.1954  0.1013
12035DPPC   NC314631  21.349   2.996  20.433  0.1966  0.2812 -0.2948
12035DPPC   PO414632  21.158   2.744  20.212 -0.0162 -0.5225 -0.0852
12035DPPC   GL114633  21.121   2.779  19.811  0.1789 -0.2333  0.0375
12035DPPC   GL214634  20.806   2.818  19.820  0.1140  0.0233 -0.0107
12035DPPC   C1A14635  21.211   2.782  19.412  0.0265  0.1224  0.1182
12035DPPC   C2A14636  21.232   2.705  18.931  0.0627  0.1467 -0.3223
12035DPPC   C3A14637  21.241   2.641  18.437 -0.2684  0.1590 -0.0427
12035DPPC   C4A14638  21.172   2.769  17.977 -0.1369  0.0023 -0.3431
12035DPPC   C1B14639  20.713   2.807  19.458  0.1286 -0.2562 -0.6021
12035DPPC   C2B14640  20.736   2.849  19.004 -0.1224 -0.1662 -0.0779
12035DPPC   C3B14641  20.785   2.850  18.566  0.0826  0.0293 -0.0929
12035DPPC   C4B14642  20.710   2.820  18.118  0.1619 -0.0543 -0.0228
12036DPPC   NC314643  23.447   5.281  19.919  0.2997 -0.1580 -0.1373
12036DPPC   PO414644  23.658   5.589  19.753  0.0011  0.0354  0.1861
12036DPPC   GL114645  23.680   5.747  19.407  0.2865 -0.1736 -0.2512
12036DPPC   GL214646  23.807   5.510  19.271  0.5999 -0.4359  0.4509
12036DPPC   C1A14647  23.397   5.784  19.183 -0.1023  0.0599 -0.0734
12036DPPC   C2A14648  23.346   5.790  18.807 -0.0422 -0.1368  0.2926
12036DPPC   C3A14649  23.358   5.753  18.341  0.1906  0.0119 -0.4182
12036DPPC   C4A14650  23.403   5.737  17.882 -0.1273  0.1171  0.0208
12036DPPC   C1B14651  23.816   5.547  18.923 -0.0582 -0.4019 -0.0432
12036DPPC   C2B14652  23.900   5.614  18.517 -0.2944  0.1805  0.2117
12036DPPC   C3B14653  23.861   5.681  18.069  0.0970 -0.0756 -0.2922
12036DPPC   C4B14654  23.844   5.595  17.653 -0.0670  0.0767 -0.0500
12037DPPC   NC314655   0.252   3.969  20.038  0.0280 -0.1287  0.0070
12037DPPC   PO414656  -0.086   4.183  20.019  0.0093  0.0746  0.1829
12037DPPC   GL114657  -0.187   4.514  19.681 -0.1829  0.1055 -0.1734
12037DPPC   GL214658  -0.380   4.244  19.634 -0.0898  0.0006  0.1350
12037DPPC   C1A14659  -0.030   4.571  19.431 -0.0574  0.1667 -0.0984
12037DPPC   C2A14660   0.071   4.642  19.021  0.0906 -0.3352 -0.1659
12037DPPC   C3A14661   0.028   4.645  18.529 -0.0999  0.1068 -0.2136
12037DPPC   C4A14662  -0.019   4.606  18.067  0.0849 -0.0482 -0.1513
12037DPPC   C1B14663  -0.323   4.281  19.228 -0.2431  0.2539  0.3381
12037DPPC   C2B14664  -0.341   4.270  18.817  0.2132  0.3002  0.2329
12037DPPC   C3B14665  -0.326   4.200  18.338 -0.0750  0.2647  0.0747
12037DPPC   C4B14666  -0.215   4.225  17.878 -0.0860 -0.2197 -0.0590
12038DPPC   NC314667  23.728   2.531  20.137 -0.3094 -0.0480 -0.1599
12038DPPC   PO414668  23.762   2.910  20.245  0.2335  0.3489 -0.1468
12038DPPC   GL114669  23.880   3.023  19.866 -0.0336  0.3414  0.0983
12038DPPC   GL214670  23.586   3.098  19.799 -0.1190  0.0451 -0.1373
12038DPPC   C1A14671  23.993   3.220  19.563  0.3984  0.2639  0.1025
12038DPPC   C2A14672  24.106   3.275  19.186 -0.1115 -0.4881  0.0939
12038DPPC   C3A14673  24.121   3.456  18.724 -0.1052 -0.1572 -0.1828
12038DPPC   C4A14674  24.184   3.419  18.225 -0.1677  0.1556 -0.1110
12038DPPC   C1B14675  23.663   2.927  19.476  0.2691  0.1431  0.1309
12038DPPC   C2B14676  23.755   2.968  19.046 -0.2038 -0.2066 -0.1648
12038DPPC   C3B14677  23.818   2.963  18.603  0.0965 -0.2324  0.0212
12038DPPC   C4B14678  23.784   2.989  18.030 -0.2466 -0.2253 -0.2238
12039DPPC   NC314679  24.442   2.729  20.086  0.0832  0.1653  0.2954
12039DPPC   PO414680  24.288   3.104  20.095 -0.0411 -0.2618  0.1555
12039DPPC   GL114681  24.430   3.185  19.727  0.1082 -0.2262  0.1376
12039DPPC   GL214682  24.493   2.938  19.648 -0.0219 -0.1821  0.0534
12039DPPC   C1A14683  24.545   3.361  19.397 -0.0074 -0.0378 -0.2379
12039DPPC   C2A14684  24.611   3.352  19.017 -0.0401 -0.1690  0.1965
12039DPPC   C3A14685  24.675   3.354  18.543 -0.4501 -0.0091 -0.0843
12039DPPC   C4A14686  24.694   3.327  18.096 -0.2560 -0.1064  0.1470
12039DPPC   C1B14687  24.381   2.915  19.321  0.0146 -0.2785 -0.1101
12039DPPC   C2B14688  24.284   2.941  18.935 -0.1137 -0.2045  0.0442
12039DPPC   C3B14689  24.372   2.924  18.454  0.3303 -0.0181  0.0416
12039DPPC   C4B14690  24.333   2.883  17.968 -0.0614 -0.3304 -0.1313
12040DPPC   NC314691  26.316   3.179  19.990 -0.4430  0.1327  0.0281
12040DPPC   PO414692  26.378   3.573  20.111  0.0783  0.1970  0.0931
12040DPPC   GL114693  26.395   3.613  19.766 -0.3251 -0.1954 -0.1894
12040DPPC   GL214694  26.136   3.778  19.742 -0.1932  0.4028  0.3522
12040DPPC   C1A14695  26.471   3.410  19.475 -0.1512 -0.1742  0.0995
12040DPPC   C2A14696  26.470   3.281  19.082  0.1882  0.1622 -0.1359
12040DPPC   C3A14697  26.480   3.338  18.600 -0.0765  0.0516  0.1443
12040DPPC   C4A14698  26.516   3.363  18.090 -0.2222 -0.0356  0.0267
12040DPPC   C1B14699  26.240   3.884  19.413  0.0177 -0.0488  0.0641
12040DPPC   C2B14700  26.341   3.804  18.993 -0.0893 -0.2434 -0.3885
12040DPPC   C3B14701  26.382   3.820  18.561 -0.1014  0.3415 -0.1052
12040DPPC   C4B14702  26.395   3.785  18.063 -0.1120 -0.0203  0.1379
12041DPPC   NC314703  22.846   4.069  19.998  0.0384  0.2050 -0.0756
12041DPPC   PO414704  22.577   3.769  19.992 -0.0268  0.0644  0.2450
12041DPPC   GL114705  22.595   3.900  19.661 -0.0334  0.5168 -0.0233
12041DPPC   GL214706  22.500   4.176  19.593  0.4500  0.4635 -0.3964
12041DPPC   C1A14707  22.667   3.695  19.337  0.0974 -0.5606 -0.0977
12041DPPC   C2A14708  22.673   3.656  18.914  0.0887 -0.3212  0.1024
12041DPPC   C3A14709  22.684   3.673  18.405 -0.0505  0.1253 -0.2446
12041DPPC   C4A14710  22.638   3.777  17.931 -0.1138 -0.0044 -0.1770
12041DPPC   C1B14711  22.565   4.124  19.278 -0.0726 -0.0129  0.0756
12041DPPC   C2B14712  22.540   4.147  18.840 -0.1797  0.0767 -0.1526
12041DPPC   C3B14713  22.467   4.153  18.372  0.1665 -0.0108  0.1119
12041DPPC   C4B14714  22.514   4.234  17.875 -0.0293 -0.1854  0.1538
12042DPPC   NC314715  22.469   4.550  20.365  0.0325 -0.0284 -0.0730
12042DPPC   PO414716  22.331   4.164  20.270 -0.1494 -0.1162 -0.0309
12042DPPC   GL114717  22.191   3.947  19.887  0.4197 -0.0739  0.0742
12042DPPC   GL214718  21.894   4.168  19.887  0.0038 -0.2379  0.0224
12042DPPC   C1A14719  22.170   3.836  19.529  0.1006  0.0088  0.2356
12042DPPC   C2A14720  22.247   3.777  19.110  0.1836  0.0574  0.0361
12042DPPC   C3A14721  22.251   3.802  18.626 -0.1177  0.1568 -0.2806
12042DPPC   C4A14722  22.148   3.794  18.167  0.2396  0.2135 -0.4822
12042DPPC   C1B14723  21.967   4.315  19.545  0.5132  0.4012  0.0151
12042DPPC   C2B14724  22.091   4.303  19.162  0.0016 -0.0104 -0.1176
12042DPPC   C3B14725  22.063   4.340  18.660 -0.0432  0.0118 -0.0686
12042DPPC   C4B14726  22.019   4.305  18.218 -0.1549  0.1930  0.0014
12043DPPC   NC314727  23.960   5.127  20.032 -0.1521  0.2594  0.0235
12043DPPC   PO414728  24.155   4.813  19.932 -0.0558  0.1573  0.0486
12043DPPC   GL114729  23.974   4.895  19.532  0.0205 -0.1756 -0.0044
12043DPPC   GL214730  23.750   5.096  19.598  0.0926 -0.2277 -0.5351
12043DPPC   C1A14731  23.930   5.051  19.207 -0.2419  0.0953  0.0338
12043DPPC   C2A14732  23.996   5.146  18.795 -0.4004  0.1266  0.1242
12043DPPC   C3A14733  24.051   5.146  18.350  0.0828 -0.0444 -0.0952
12043DPPC   C4A14734  24.040   5.139  17.905  0.0490  0.0701  0.0589
12043DPPC   C1B14735  23.517   5.209  19.343  0.0961  0.0094  0.1145
12043DPPC   C2B14736  23.485   5.180  18.964  0.2262 -0.1768  0.0569
12043DPPC   C3B14737  23.541   5.281  18.494 -0.1767 -0.3359  0.0681
12043DPPC   C4B14738  23.553   5.236  17.998 -0.1087 -0.4074  0.0206
12044DPPC   NC314739  24.814   0.532  19.778 -0.2337 -0.0138 -0.0126
12044DPPC   PO414740  24.958   0.838  19.955  0.2424 -0.4538 -0.1855
12044DPPC   GL114741  25.139   1.019  19.581  0.1280  0.0598 -0.0792
12044DPPC   GL214742  24.824   1.123  19.583 -0.2904  0.1921 -0.1314
12044DPPC   C1A14743  25.152   0.981  19.197 -0.2114 -0.0672 -0.0323
12044DPPC   C2A14744  25.115   0.943  18.788  0.0071  0.0971  0.0579
12044DPPC   C3A14745  24.984   0.937  18.336 -0.1697 -0.0526  0.0005
12044DPPC   C4A14746  25.002   0.946  17.801 -0.1508 -0.2794  0.0015
12044DPPC   C1B14747  24.704   0.844  19.346 -0.1183 -0.0477  0.2133
12044DPPC   C2B14748  24.692   0.639  19.008 -0.0749 -0.0285 -0.1110
12044DPPC   C3B14749  24.629   0.575  18.556 -0.0946 -0.1096  0.0673
12044DPPC   C4B14750  24.691   0.639  18.064  0.2154  0.2025 -0.1874
12045DPPC   NC314751  20.824   5.274  20.208  0.0254 -0.0993  0.3348
12045DPPC   PO414752  21.230   5.185  20.134 -0.0624 -0.0748 -0.2621
12045DPPC   GL114753  21.437   5.140  19.762  0.1886  0.1091  0.1873
12045DPPC   GL214754  21.443   4.863  19.676 -0.0919 -0.0859 -0.0488
12045DPPC   C1A14755  21.276   5.248  19.420  0.6168 -0.0132 -0.0140
12045DPPC   C2A14756  21.178   5.315  19.027 -0.0061 -0.3462 -0.0202
12045DPPC   C3A14757  21.208   5.362  18.560 -0.0218 -0.1308  0.2746
12045DPPC   C4A14758  21.171   5.488  18.057 -0.1450  0.1724  0.0274
12045DPPC   C1B14759  21.454   4.870  19.314 -0.1553  0.1151  0.3667
12045DPPC   C2B14760  21.386   4.899  18.900  0.1419  0.2713  0.2599
12045DPPC   C3B14761  21.333   4.850  18.426  0.1096  0.2061  0.3731
12045DPPC   C4B14762  21.303   4.891  17.945 -0.0810 -0.0549  0.2403
12046DPPC   NC314763  22.549   1.199  20.224  0.2601  0.4660  0.0512
12046DPPC   PO414764  22.842   1.404  20.178 -0.0220  0.0501 -0.0788
12046DPPC   GL114765  22.980   1.477  19.743  0.1274 -0.2085  0.0125
12046DPPC   GL214766  22.936   1.789  19.814  0.0243  0.0892 -0.0896
12046DPPC   C1A14767  22.921   1.418  19.367  0.0914 -0.1129  0.1442
12046DPPC   C2A14768  22.988   1.451  18.971 -0.0793  0.1870 -0.1112
12046DPPC   C3A14769  23.070   1.377  18.511 -0.1790 -0.0806  0.2534
12046DPPC   C4A14770  23.077   1.441  18.029  0.0399  0.2832  0.1140
12046DPPC   C1B14771  22.733   1.897  19.571  0.1124  0.0358 -0.1431
12046DPPC   C2B14772  22.779   1.866  19.152  0.2303  0.0248  0.2457
12046DPPC   C3B14773  22.859   1.848  18.654  0.0294  0.0794 -0.0595
12046DPPC   C4B14774  22.898   1.913  18.146  0.1444  0.0268  0.1413
12047DPPC   NC314775   0.850   3.286  19.891  0.3634 -0.2494 -0.1332
12047DPPC   PO414776   0.695   2.908  19.867  0.1001 -0.0596 -0.2660
12047DPPC   GL114777   0.746   2.648  19.516 -0.4149  0.1184  0.0011
12047DPPC   GL214778   0.537   2.539  19.478 -0.0898 -0.0139  0.0156
12047DPPC   C1A14779   0.926   2.790  19.153 -0.3502  0.2851 -0.2116
12047DPPC   C2A14780   0.778   2.660  18.813  0.0698 -0.0260  0.0662
12047DPPC   C3A14781   0.785   2.646  18.314  0.0136  0.0886  0.2339
12047DPPC   C4A14782   0.679   2.760  17.842  0.2595  0.1287 -0.2512
12047DPPC   C1B14783   0.347   2.663  19.210  0.0401  0.0017  0.2893
12047DPPC   C2B14784   0.278   2.860  18.891  0.0872 -0.2917 -0.2927
12047DPPC   C3B14785   0.188   2.847  18.392  0.0174 -0.0467 -0.1048
12047DPPC   C4B14786   0.072   2.817  17.910  0.0646  0.0928 -0.0683
12048DPPC   NC314787  22.866   0.998  20.545  0.1168 -0.0952  0.1028
12048DPPC   PO414788  22.866   0.825  20.183  0.1672 -0.2786  0.0652
12048DPPC   GL114789  22.877   1.040  19.774 -0.2212  0.0778 -0.0300
12048DPPC   GL214790  23.100   0.866  19.674 -0.0892 -0.2207 -0.2428
12048DPPC   C1A14791  22.697   1.130  19.522  0.0333  0.2609 -0.0148
12048DPPC   C2A14792  22.658   1.090  19.149 -0.0785 -0.2796  0.1968
12048DPPC   C3A14793  22.705   1.051  18.656 -0.0471 -0.0855  0.2290
12048DPPC   C4A14794  22.743   1.036  18.141 -0.0521  0.1204  0.0552
12048DPPC   C1B14795  23.130   0.934  19.338  0.0904  0.3926  0.0498
12048DPPC   C2B14796  23.177   0.963  18.912  0.0031  0.1417  0.1337
12048DPPC   C3B14797  23.254   0.896  18.415 -0.1906 -0.3302  0.0026
12048DPPC   C4B14798  23.197   0.881  17.918  0.2065 -0.0729 -0.0395
12049DPPC   NC314799  25.389   2.167  19.966  0.0994  0.1291  0.0422
12049DPPC   PO414800  25.695   1.863  20.060  0.3984  0.1293 -0.4550
12049DPPC   GL114801  25.732   1.831  19.668  0.2890 -0.0477 -0.1161
12049DPPC   GL214802  25.891   1.997  19.593  0.0826 -0.0732 -0.1421
12049DPPC   C1A14803  25.668   1.648  19.384  0.2470  0.0523 -0.0740
12049DPPC   C2A14804  25.632   1.700  18.979 -0.1342 -0.1397  0.2340
12049DPPC   C3A14805  25.575   1.833  18.528 -0.1715  0.1153 -0.2428
12049DPPC   C4A14806  25.656   1.755  18.061 -0.0452  0.3302  0.0327
12049DPPC   C1B14807  25.895   2.083  19.176  0.4573  0.0544 -0.1600
12049DPPC   C2B14808  25.920   2.115  18.731  0.0846 -0.1150 -0.0913
12049DPPC   C3B14809  25.936   2.145  18.281  0.0488  0.1742  0.1302
12049DPPC   C4B14810  25.925   2.133  17.802 -0.0711  0.1137 -0.0559
12050DPPC   NC314811  24.196   3.594  19.763  0.1675  0.0400 -0.0195
12050DPPC   PO414812  24.128   3.920  19.952 -0.3475 -0.1223 -0.0700
12050DPPC   GL114813  23.763   4.127  19.746 -0.2955  0.0063  0.0256
12050DPPC   GL214814  24.015   4.313  19.608 -0.2645 -0.0349 -0.1161
12050DPPC   C1A14815  23.560   4.044  19.482  0.4616  0.0407 -0.3833
12050DPPC   C2A14816  23.466   3.982  19.093 -0.3841  0.0633  0.0758
12050DPPC   C3A14817  23.513   3.975  18.660 -0.1119  0.1048  0.0772
12050DPPC   C4A14818  23.535   3.992  18.213 -0.0763  0.0078  0.3035
12050DPPC   C1B14819  23.882   4.346  19.258  0.2015 -0.1358  0.0237
12050DPPC   C2B14820  23.810   4.323  18.873 -0.1350 -0.2187 -0.0957
12050DPPC   C3B14821  23.824   4.328  18.363 -0.0888  0.0471 -0.1817
12050DPPC   C4B14822  23.953   4.325  17.887 -0.0647  0.1452 -0.1449
12051DPPC   NC314823  22.946   2.650  20.245  0.1128 -0.0673 -0.0474
12051DPPC   PO414824  23.229   2.365  20.177 -0.1408  0.0835 -0.1491
12051DPPC   GL114825  23.164   2.146  19.836 -0.0150 -0.3238 -0.3174
12051DPPC   GL214826  23.060   2.361  19.714 -0.0404  0.1699 -0.0347
12051DPPC   C1A14827  23.237   1.947  19.567 -0.2036  0.2479 -0.0094
12051DPPC   C2A14828  23.338   1.804  19.175  0.0844 -0.1359 -0.1768
12051DPPC   C3A14829  23.386   1.826  18.731 -0.0948 -0.1456 -0.2937
12051DPPC   C4A14830  23.390   1.776  18.277  0.0325 -0.0352  0.0332
12051DPPC   C1B14831  23.065   2.289  19.388  0.1850  0.0772  0.0399
12051DPPC   C2B14832  23.085   2.230  18.916 -0.0065  0.1597 -0.0853
12051DPPC   C3B14833  23.131   2.276  18.448  0.1265  0.0914  0.0037
12051DPPC   C4B14834  23.238   2.224  17.991 -0.3348 -0.1816 -0.1054
12052DPPC   NC314835  24.772   3.089  19.974 -0.0632 -0.5091 -0.1690
12052DPPC   PO414836  24.994   3.375  19.867 -0.0482  0.1814 -0.3739
12052DPPC   GL114837  25.050   3.551  19.542 -0.0542  0.0760  0.1784
12052DPPC   GL214838  25.228   3.769  19.563  0.0120 -0.2062  0.4026
12052DPPC   C1A14839  25.001   3.603  19.168  0.4444  0.3227  0.0891
12052DPPC   C2A14840  24.981   3.712  18.755  0.1316  0.0481 -0.1425
12052DPPC   C3A14841  24.922   3.703  18.253  0.0845  0.1916  0.2888
12052DPPC   C4A14842  24.909   3.653  17.748 -0.1277 -0.2614  0.3611
12052DPPC   C1B14843  25.279   3.947  19.222  0.1240  0.1207  0.2155
12052DPPC   C2B14844  25.321   4.097  18.789  0.0770  0.1264 -0.3815
12052DPPC   C3B14845  25.333   4.078  18.308 -0.0527  0.2380 -0.2130
12052DPPC   C4B14846  25.279   4.199  17.850  0.0958  0.0864 -0.2078
12053DPPC   NC314847   0.866   1.088  19.593  0.0623 -0.4278  0.1009
12053DPPC   PO414848   1.204   1.137  19.788  0.2926 -0.0207 -0.2365
12053DPPC   GL114849   1.436   0.813  19.662  0.2721  0.6539 -0.1471
12053DPPC   GL214850   1.190   0.672  19.502  0.0335  0.0513  0.2263
12053DPPC   C1A14851   1.682   0.630  19.456 -0.3758  0.1359  0.1014
12053DPPC   C2A14852   1.803   0.669  19.068  0.2888  0.0120 -0.3325
12053DPPC   C3A14853   1.770   0.691  18.608  0.0032 -0.0129  0.1247
12053DPPC   C4A14854   1.833   0.690  18.115  0.1503 -0.0849 -0.1353
12053DPPC   C1B14855   1.335   0.744  19.140  0.1750  0.4214 -0.2944
12053DPPC   C2B14856   1.303   0.839  18.740  0.1421  0.0172  0.1455
12053DPPC   C3B14857   1.318   0.723  18.228  0.3132 -0.0172  0.1231
12053DPPC   C4B14858   1.321   0.704  17.764 -0.0961  0.1088  0.1218
12054DPPC   NC314859   1.466   3.359  19.775  0.2837  0.1366  0.2279
12054DPPC   PO414860   1.195   3.063  19.639  0.2292  0.1371  0.0387
12054DPPC   GL114861   1.127   3.215  19.217 -0.1098 -0.2605 -0.0586
12054DPPC   GL214862   1.380   3.422  19.295  0.2471  0.1797  0.1023
12054DPPC   C1A14863   1.085   3.141  18.856 -0.0888  0.3921 -0.0260
12054DPPC   C2A14864   1.058   3.002  18.457 -0.0433  0.0463  0.0326
12054DPPC   C3A14865   1.196   2.782  18.063  0.0908 -0.0643  0.0034
12054DPPC   C4A14866   1.216   2.514  17.645 -0.5422  0.1076  0.2935
12054DPPC   C1B14867   1.339   3.455  18.910 -0.0044  0.2380  0.3332
12054DPPC   C2B14868   1.367   3.487  18.506  0.0882 -0.0653 -0.1188
12054DPPC   C3B14869   1.347   3.395  18.036 -0.0000  0.3756  0.1687
12054DPPC   C4B14870   1.302   3.451  17.524 -0.2635 -0.2647  0.1212
12055DPPC   NC314871  25.408   0.546  20.075  0.1137 -0.0609  0.1223
12055DPPC   PO414872  25.457   0.930  20.019  0.0099  0.1454  0.1289
12055DPPC   GL114873  25.526   0.778  19.657 -0.1802  0.2048 -0.0420
12055DPPC   GL214874  25.279   0.623  19.594  0.1309 -0.1296 -0.1229
12055DPPC   C1A14875  25.591   0.881  19.342 -0.1053 -0.2614  0.6057
12055DPPC   C2A14876  25.526   0.898  18.998  0.1380 -0.1000 -0.3208
12055DPPC   C3A14877  25.543   0.927  18.477  0.0144  0.2412 -0.0288
12055DPPC   C4A14878  25.543   0.874  18.013 -0.0426  0.2479  0.0024
12055DPPC   C1B14879  25.180   0.502  19.245 -0.1965  0.1085 -0.1743
12055DPPC   C2B14880  25.214   0.438  18.858 -0.0415 -0.3308 -0.0187
12055DPPC   C3B14881  25.221   0.402  18.384 -0.0112 -0.1619 -0.0278
12055DPPC   C4B14882  25.270   0.473  17.862 -0.0644  0.2677  0.1321
12056DPPC   NC314883  22.116   1.630  20.605 -0.1769  0.4158  0.0307
12056DPPC   PO414884  21.798   1.614  20.333 -0.0223 -0.0008 -0.1129
12056DPPC   GL114885  21.640   1.636  19.945  0.1136  0.0024 -0.2360
12056DPPC   GL214886  21.887   1.501  19.775  0.1293 -0.2711 -0.2476
12056DPPC   C1A14887  21.432   1.712  19.674 -0.2532  0.1341 -0.0776
12056DPPC   C2A14888  21.518   1.736  19.250 -0.1042 -0.1218 -0.2465
12056DPPC   C3A14889  21.537   1.741  18.735  0.2384  0.0557 -0.1482
12056DPPC   C4A14890  21.558   1.675  18.274 -0.1042 -0.1888 -0.0532
12056DPPC   C1B14891  21.975   1.654  19.422 -0.0104  0.1745 -0.0161
12056DPPC   C2B14892  21.957   1.607  18.988  0.1775  0.3405  0.3862
12056DPPC   C3B14893  21.959   1.654  18.549  0.2202  0.1561  0.2067
12056DPPC   C4B14894  22.059   1.610  18.097 -0.2100 -0.0183  0.1223
12057DPPC   NC314895   0.323   0.248  19.932  0.2166  0.0805 -0.1282
12057DPPC   PO414896  -0.009  -0.000  19.964 -0.1847 -0.0754  0.1604
12057DPPC   GL114897  -0.045   0.138  19.525  0.0511  0.0655 -0.0993
12057DPPC   GL214898   0.154  -0.003  19.516 -0.1963 -0.1079  0.1419
12057DPPC   C1A14899  -0.271   0.177  19.239  0.0998 -0.0608  0.2201
12057DPPC   C2A14900  -0.324   0.262  18.847  0.0043  0.3905 -0.0550
12057DPPC   C3A14901  -0.275   0.294  18.405  0.1570 -0.0671  0.0238
12057DPPC   C4A14902  -0.292   0.382  17.956  0.0085  0.1166  0.1625
12057DPPC   C1B14903   0.250  -0.219  19.209 -0.0657  0.5403  0.1185
12057DPPC   C2B14904   0.326  -0.304  18.765 -0.1505  0.1679 -0.2128
12057DPPC   C3B14905   0.351  -0.326  18.295 -0.1271 -0.0872  0.2172
12057DPPC   C4B14906   0.414  -0.311  17.864  0.1492  0.4274  0.2182
12058DPPC   NC314907   1.761   5.584  20.291  0.1753  0.0704  0.1552
12058DPPC   PO414908   1.393   5.668  20.158 -0.3608 -0.0108  0.1592
12058DPPC   GL114909   1.351   5.821  19.721  0.2138  0.4939 -0.1747
12058DPPC   GL214910   1.400   5.591  19.622 -0.0620  0.0369  0.1264
12058DPPC   C1A14911   1.230   5.995  19.493  0.0031 -0.1764  0.4351
12058DPPC   C2A14912   1.248   5.987  19.092 -0.0878 -0.0843 -0.2629
12058DPPC   C3A14913   1.334   6.024  18.609 -0.0326  0.1581  0.0269
12058DPPC   C4A14914   1.326   6.063  18.105  0.1054  0.4123 -0.1412
12058DPPC   C1B14915   1.445   5.630  19.267 -0.2462  0.1463  0.0691
12058DPPC   C2B14916   1.503   5.619  18.859 -0.0272 -0.1236  0.0108
12058DPPC   C3B14917   1.490   5.580  18.354  0.1514 -0.3554  0.0070
12058DPPC   C4B14918   1.585   5.601  17.863  0.2204 -0.0848  0.0786
12059DPPC   NC314919  22.371   3.685  20.425 -0.1983  0.0871 -0.0811
12059DPPC   PO414920  22.141   3.561  20.142  0.1207 -0.1927 -0.1263
12059DPPC   GL114921  22.309   3.427  19.763  0.0022  0.2345  0.0969
12059DPPC   GL214922  22.293   3.166  19.867 -0.0562  0.0036 -0.2248
12059DPPC   C1A14923  22.327   3.446  19.399 -0.2683 -0.4592 -0.0138
12059DPPC   C2A14924  22.341   3.304  19.021 -0.1596  0.1372 -0.1912
12059DPPC   C3A14925  22.368   3.330  18.525 -0.0893 -0.3562 -0.0482
12059DPPC   C4A14926  22.354   3.278  18.018 -0.1383 -0.1398  0.0912
12059DPPC   C1B14927  22.405   2.966  19.521 -0.1362 -0.3345  0.1595
12059DPPC   C2B14928  22.575   2.854  19.137  0.2242  0.1402  0.0632
12059DPPC   C3B14929  22.494   2.851  18.655  0.2244 -0.0452  0.0490
12059DPPC   C4B14930  22.544   2.786  18.177 -0.2469  0.1927  0.1076
12060DPPC   NC314931  24.638   4.709  20.134 -0.2534 -0.0515 -0.0662
12060DPPC   PO414932  24.847   4.393  20.018  0.3476  0.1011  0.1299
12060DPPC   GL114933  24.739   4.453  19.588 -0.1812  0.0623 -0.2435
12060DPPC   GL214934  24.585   4.660  19.604 -0.0561 -0.2577  0.2091
12060DPPC   C1A14935  24.728   4.480  19.228  0.0059  0.2081 -0.0981
12060DPPC   C2A14936  24.662   4.551  18.823 -0.2158 -0.1434 -0.2312
12060DPPC   C3A14937  24.651   4.578  18.274  0.0844  0.1392  0.1152
12060DPPC   C4A14938  24.748   4.574  17.824 -0.1692  0.0913 -0.0798
12060DPPC   C1B14939  24.322   4.672  19.334  0.0085 -0.2297 -0.0927
12060DPPC   C2B14940  24.159   4.664  18.919 -0.1180  0.3082 -0.1744
12060DPPC   C3B14941  24.187   4.644  18.436 -0.1225 -0.0845 -0.2935
12060DPPC   C4B14942  24.256   4.688  17.984 -0.0072  0.1919 -0.0329
12061DPPC   NC314943  24.886   1.528  20.584  0.2923  0.1608 -0.0536
12061DPPC   PO414944  24.764   1.642  20.252  0.1205  0.2262 -0.3189
12061DPPC   GL114945  24.490   1.424  19.908  0.2809 -0.1354 -0.0442
12061DPPC   GL214946  24.739   1.564  19.722  0.2172 -0.3571 -0.1299
12061DPPC   C1A14947  24.429   1.306  19.537  0.4143 -0.0245  0.2089
12061DPPC   C2A14948  24.467   1.142  19.123  0.0590 -0.0507  0.0480
12061DPPC   C3A14949  24.592   1.038  18.668 -0.0069  0.3486  0.1432
12061DPPC   C4A14950  24.490   1.096  18.177 -0.0538 -0.0072 -0.1719
12061DPPC   C1B14951  24.775   1.507  19.333  0.0729 -0.2502  0.2422
12061DPPC   C2B14952  24.947   1.373  18.944 -0.1155 -0.0223  0.0650
12061DPPC   C3B14953  24.851   1.395  18.457  0.0243  0.0676 -0.0572
12061DPPC   C4B14954  24.838   1.384  17.988  0.1852  0.2181 -0.1564
12062DPPC   NC314955  25.985   2.605  20.358  0.1360 -0.1070  0.0216
12062DPPC   PO414956  26.149   2.723  20.019  0.0678  0.2151 -0.0992
12062DPPC   GL114957  26.262   2.812  19.681 -0.2472  0.2716 -0.0550
12062DPPC   GL214958  26.166   3.007  19.543  0.2829 -0.0043 -0.2210
12062DPPC   C1A14959  26.234   2.648  19.318  0.0385 -0.2205 -0.1366
12062DPPC   C2A14960  26.282   2.500  18.939 -0.1108  0.1348  0.1819
12062DPPC   C3A14961  26.222   2.468  18.506 -0.1674 -0.0684  0.0222
12062DPPC   C4A14962  26.252   2.436  18.029  0.4836 -0.1578 -0.1207
12062DPPC   C1B14963  26.106   3.020  19.184  0.2086 -0.2292 -0.0403
12062DPPC   C2B14964  26.205   2.948  18.812  0.2171  0.2049 -0.1692
12062DPPC   C3B14965  26.110   2.957  18.348 -0.0420 -0.0830 -0.0972
12062DPPC   C4B14966  26.095   3.157  17.894  0.1325 -0.0637 -0.1532
12063DPPC   NC314967  25.923   5.497  19.710  0.2013 -0.3733  0.1053
12063DPPC   PO414968  25.870   5.875  19.715  0.1248  0.0067  0.2720
12063DPPC   GL114969  25.962   5.971  19.321 -0.4885  0.0696  0.0060
12063DPPC   GL214970  25.766   6.201  19.374 -0.1113  0.1617  0.0051
12063DPPC   C1A14971  25.965   6.019  18.940 -0.1270  0.1739  0.1411
12063DPPC   C2A14972  25.973   6.070  18.525  0.2229 -0.0820  0.1049
12063DPPC   C3A14973  25.997   6.081  18.011  0.0827 -0.0818 -0.1594
12063DPPC   C4A14974  26.029   6.094  17.504 -0.0739  0.0451 -0.1112
12063DPPC   C1B14975  25.529   6.161  19.092 -0.1925 -0.1801 -0.0452
12063DPPC   C2B14976  25.518   6.111  18.705 -0.3593  0.1907 -0.1816
12063DPPC   C3B14977  25.472   6.090  18.236 -0.0304  0.1966  0.1792
12063DPPC   C4B14978  25.494   6.143  17.809 -0.2824  0.0829 -0.0449
12064DPPC   NC314979  25.114   1.299  19.961  0.1726  0.1583  0.3932
12064DPPC   PO414980  25.175   1.664  19.867 -0.0433  0.2453  0.0395
12064DPPC   GL114981  25.127   1.656  19.433  0.3053  0.0013 -0.2097
12064DPPC   GL214982  25.258   1.394  19.413  0.0788  0.1873  0.3616
12064DPPC   C1A14983  25.195   1.802  19.127 -0.1349  0.0535 -0.1712
12064DPPC   C2A14984  25.156   1.821  18.736 -0.1812 -0.1953 -0.1580
12064DPPC   C3A14985  25.166   1.832  18.271  0.3151 -0.4807  0.2745
12064DPPC   C4A14986  25.230   1.792  17.794  0.1135 -0.0170 -0.0544
12064DPPC   C1B14987  25.374   1.365  19.080  0.1059  0.0572 -0.0958
12064DPPC   C2B14988  25.341   1.391  18.662  0.0893  0.2396  0.1492
12064DPPC   C3B14989  25.304   1.309  18.199  0.0130 -0.2416 -0.0561
12064DPPC   C4B14990  25.340   1.378  17.657  0.1769 -0.0565  0.2015
12065DPPC   NC314991  22.651   6.088  20.169 -0.0449 -0.1844 -0.3051
12065DPPC   PO414992  22.791   5.732  20.145 -0.2036 -0.1099 -0.0828
12065DPPC   GL114993  22.829   5.463  19.951 -0.1405  0.0443  0.0842
12065DPPC   GL214994  22.981   5.219  19.980  0.0857  0.0538  0.2212
12065DPPC   C1A14995  22.716   5.509  19.601 -0.4849  0.0546  0.1053
12065DPPC   C2A14996  22.606   5.494  19.216 -0.0076  0.3791 -0.1281
12065DPPC   C3A14997  22.485   5.433  18.763  0.1572 -0.2764 -0.0854
12065DPPC   C4A14998  22.505   5.489  18.296  0.1436  0.0428  0.0580
12065DPPC   C1B14999  23.117   5.251  19.604 -0.1360 -0.6691  0.1172
12065DPPC   C2B15000  23.070   5.424  19.229 -0.1536 -0.1575  0.2507
12065DPPC   C3B15001  23.003   5.413  18.706  0.2534  0.1681 -0.1713
12065DPPC   C4B15002  23.038   5.322  18.265 -0.0718  0.0125  0.3849
12066DPPC   NC315003  21.091   6.248  20.019  0.0755  0.1033 -0.0138
12066DPPC   PO415004  21.444   6.053  20.174  0.1660 -0.0587  0.2141
12066DPPC   GL115005  21.589   6.007  19.791  0.1313 -0.1345 -0.0852
12066DPPC   GL215006  21.357   6.201  19.633 -0.2016  0.5027 -0.0268
12066DPPC   C1A15007  21.863   5.982  19.528  0.0024 -0.3627 -0.2635
12066DPPC   C2A15008  21.897   6.061  19.104 -0.2046 -0.0164 -0.0264
12066DPPC   C3A15009  21.874   6.043  18.653 -0.1636  0.3009  0.1363
12066DPPC   C4A15010  21.894   5.989  18.136  0.1164  0.2444 -0.1049
12066DPPC   C1B15011  21.445   6.141  19.344  0.1921  0.0132  0.1081
12066DPPC   C2B15012  21.439   6.156  18.946  0.0466 -0.2701  0.3014
12066DPPC   C3B15013  21.379   6.193  18.446 -0.1446  0.2946 -0.1830
12066DPPC   C4B15014  21.352   6.166  17.980  0.2454 -0.0488  0.2886
12067DPPC   NC315015  22.911   2.897  20.726 -0.0525  0.0094 -0.1027
12067DPPC   PO415016  22.611   2.919  20.494  0.1713  0.2267  0.0079
12067DPPC   GL115017  22.550   2.888  20.076 -0.0859  0.1003  0.0880
12067DPPC   GL215018  22.284   2.673  20.092  0.0338 -0.0140  0.3532
12067DPPC   C1A15019  22.746   2.725  19.821  0.2428  0.0803 -0.4374
12067DPPC   C2A15020  22.944   2.719  19.458 -0.1145 -0.3125 -0.0923
12067DPPC   C3A15021  23.008   2.748  18.930 -0.0065 -0.2285 -0.1086
12067DPPC   C4A15022  23.003   2.769  18.454 -0.0797  0.1421  0.0997
12067DPPC   C1B15023  22.073   2.753  19.814 -0.0373 -0.1696  0.2426
12067DPPC   C2B15024  21.978   2.955  19.434  0.0136 -0.1097  0.2235
12067DPPC   C3B15025  21.994   2.942  18.935  0.1407 -0.0501  0.1789
12067DPPC   C4B15026  21.967   2.915  18.422  0.1681 -0.3494 -0.0980
12068DPPC   NC315027  23.371   1.810  20.289 -0.1572 -0.0014 -0.2360
12068DPPC   PO415028  23.716   2.004  20.187  0.4765  0.1063  0.2010
12068DPPC   GL115029  23.608   1.949  19.827  0.0537 -0.1457  0.0800
12068DPPC   GL215030  23.525   2.240  19.708 -0.4628  0.1512  0.0972
12068DPPC   C1A15031  23.692   1.749  19.518 -0.3457 -0.2832  0.3095
12068DPPC   C2A15032  23.793   1.668  19.109 -0.0046 -0.2474 -0.1817
12068DPPC   C3A15033  23.833   1.640  18.634  0.1518 -0.0545 -0.1149
12068DPPC   C4A15034  23.867   1.641  18.096 -0.0092 -0.0175  0.2077
12068DPPC   C1B15035  23.690   2.166  19.354 -0.1452  0.1666  0.0777
12068DPPC   C2B15036  23.676   2.141  18.986  0.1235 -0.3975  0.4136
12068DPPC   C3B15037  23.766   2.158  18.500 -0.1239 -0.0184 -0.0379
12068DPPC   C4B15038  23.730   2.252  18.042 -0.1406  0.2744  0.0793
12069DPPC   NC315039   2.429   4.286  20.022 -0.1319 -0.2517 -0.1198
12069DPPC   PO415040   2.030   4.283  20.127 -0.1461 -0.2230  0.1192
12069DPPC   GL115041   1.881   4.121  19.747  0.1876  0.0852  0.0305
12069DPPC   GL215042   2.048   4.371  19.627 -0.0160  0.1798  0.0724
12069DPPC   C1A15043   1.997   3.920  19.428 -0.1149 -0.0915 -0.0302
12069DPPC   C2A15044   2.176   3.699  19.102 -0.1280 -0.0728  0.1424
12069DPPC   C3A15045   2.165   3.728  18.613  0.1223 -0.0146  0.0135
12069DPPC   C4A15046   2.271   3.744  18.127  0.2165 -0.0535 -0.0579
12069DPPC   C1B15047   2.054   4.339  19.307 -0.0937 -0.0886 -0.2954
12069DPPC   C2B15048   1.990   4.150  18.957 -0.1210  0.0725  0.0071
12069DPPC   C3B15049   2.056   4.192  18.445 -0.2542 -0.0994 -0.1133
12069DPPC   C4B15050   2.011   4.190  17.954 -0.0979 -0.0019 -0.0310
12070DPPC   NC315051  24.211   3.471  20.389 -0.0876 -0.1595  0.0048
12070DPPC   PO415052  24.566   3.532  20.145 -0.2585 -0.0421  0.0670
12070DPPC   GL115053  24.674   3.647  19.707  0.2826  0.3592  0.2521
12070DPPC   GL215054  24.642   3.927  19.788 -0.1448 -0.0888 -0.1929
12070DPPC   C1A15055  24.625   3.747  19.323 -0.0461 -0.0895 -0.0845
12070DPPC   C2A15056  24.521   3.797  18.919 -0.1550  0.0370  0.1180
12070DPPC   C3A15057  24.486   3.769  18.430 -0.2422 -0.1139  0.4463
12070DPPC   C4A15058  24.438   3.762  17.901 -0.1178 -0.2111 -0.2938
12070DPPC   C1B15059  24.458   4.140  19.491  0.1314  0.0357  0.3222
12070DPPC   C2B15060  24.320   4.233  19.129  0.0396  0.0654  0.1236
12070DPPC   C3B15061  24.347   4.178  18.646  0.0305 -0.0294 -0.1450
12070DPPC   C4B15062  24.314   4.166  18.213 -0.0673 -0.1677  0.1752
12071DPPC   NC315063  25.430   4.817  19.999  0.0078  0.1163 -0.4524
12071DPPC   PO415064  25.493   5.176  19.872 -0.0271 -0.1648  0.2308
12071DPPC   GL115065  25.313   5.263  19.469  0.0567  0.3647 -0.3689
12071DPPC   GL215066  25.667   5.083  19.432  0.1077  0.2200 -0.2462
12071DPPC   C1A15067  25.321   5.365  19.126 -0.0116 -0.0544  0.3335
12071DPPC   C2A15068  25.306   5.333  18.727 -0.0662 -0.0262 -0.0990
12071DPPC   C3A15069  25.324   5.325  18.183  0.2383 -0.0444  0.1625
12071DPPC   C4A15070  25.287   5.318  17.708 -0.1557  0.0438  0.3315
12071DPPC   C1B15071  25.742   5.079  19.070  0.2206 -0.1583  0.0324
12071DPPC   C2B15072  25.807   5.193  18.665 -0.0503  0.1326  0.1447
12071DPPC   C3B15073  25.789   5.219  18.126 -0.2448  0.0886  0.0929
12071DPPC   C4B15074  25.839   5.251  17.628  0.2235  0.0321  0.0158
12072DPPC   NC315075  26.226   1.882  19.879 -0.3833 -0.2618 -0.0380
12072DPPC   PO415076  26.601   2.086  19.957 -0.1917  0.1768  0.1814
12072DPPC   GL115077  26.783   2.170  19.529 -0.1211  0.0362  0.3098
12072DPPC   GL215078  26.895   1.940  19.581 -0.1107  0.1473 -0.3174
12072DPPC   C1A15079  26.726   2.222  19.190 -0.3157 -0.3208 -0.0587
12072DPPC   C2A15080  26.786   2.358  18.804  0.0145  0.1314  0.0954
12072DPPC   C3A15081  26.774   2.336  18.349 -0.0654 -0.2817 -0.1211
12072DPPC   C4A15082  26.747   2.361  17.867  0.1081  0.1287 -0.0101
12072DPPC   C1B15083  27.039   1.712  19.281  0.3917 -0.0007 -0.1823
12072DPPC   C2B15084  27.197   1.401  19.172 -0.0117  0.3132  0.2228
12072DPPC   C3B15085  27.325   0.984  18.965  0.0546  0.4773  0.3603
12072DPPC   C4B15086  27.338   0.901  18.449  0.0120  0.1643 -0.3842
12073DPPC   NC315087  25.600   4.058  20.448  0.1462 -0.3244 -0.2202
12073DPPC   PO415088  25.376   4.230  20.156  0.0557  0.0832 -0.3298
12073DPPC   GL115089  25.407   4.148  19.739  0.1235 -0.0945  0.0805
12073DPPC   GL215090  25.135   4.199  19.743 -0.1843  0.1740 -0.2508
12073DPPC   C1A15091  25.561   4.247  19.422 -0.4122  0.0457  0.1256
12073DPPC   C2A15092  25.675   4.503  19.073  0.0196  0.0055  0.1221
12073DPPC   C3A15093  25.653   4.445  18.598 -0.1000 -0.1229  0.1314
12073DPPC   C4A15094  25.653   4.439  18.088 -0.2516 -0.0492  0.0111
12073DPPC   C1B15095  24.976   4.132  19.455  0.2889  0.1021 -0.1835
12073DPPC   C2B15096  24.865   4.101  19.039 -0.0352  0.1681 -0.0067
12073DPPC   C3B15097  24.832   4.133  18.538 -0.1773 -0.0969 -0.2986
12073DPPC   C4B15098  24.765   4.128  18.014 -0.0757  0.2414  0.1118
12074DPPC   NC315099   0.332   0.992  20.112 -0.0946  0.3636 -0.0223
12074DPPC   PO415100  -0.072   0.897  20.151  0.0614 -0.1956 -0.2550
12074DPPC   GL115101  -0.130   0.856  19.709 -0.2710 -0.0104  0.1062
12074DPPC   GL215102   0.076   0.721  19.808 -0.1401 -0.2955  0.1838
12074DPPC   C1A15103  -0.274   0.799  19.408 -0.0560  0.0464  0.0909
12074DPPC   C2A15104  -0.365   0.715  19.054 -0.0509 -0.1243 -0.1271
12074DPPC   C3A15105  -0.440   0.852  18.610  0.0727 -0.0577  0.0584
12074DPPC   C4A15106  -0.426   0.841  18.099  0.0770  0.0091  0.0566
12074DPPC   C1B15107   0.162   0.678  19.428 -0.1841  0.0757  0.0819
12074DPPC   C2B15108   0.138   0.679  19.022  0.0010  0.1593 -0.1114
12074DPPC   C3B15109   0.036   0.630  18.594  0.1138  0.0344  0.1703
12074DPPC   C4B15110   0.040   0.733  18.090  0.0063  0.1016  0.0251
12075DPPC   NC315111  21.676   4.926  20.058 -0.2182 -0.1385  0.3185
12075DPPC   PO415112  21.578   4.543  20.109 -0.0698 -0.2482  0.0605
12075DPPC   GL115113  21.667   4.526  19.748  0.2912  0.0423  0.1748
12075DPPC   GL215114  21.878   4.707  19.656  0.1951  0.1333 -0.0503
12075DPPC   C1A15115  21.474   4.428  19.448  0.2850 -0.1042  0.1281
12075DPPC   C2A15116  21.506   4.402  18.999  0.2913  0.0159  0.1733
12075DPPC   C3A15117  21.549   4.387  18.534 -0.0279  0.1968  0.2111
12075DPPC   C4A15118  21.586   4.434  18.021 -0.1597  0.3897  0.2365
12075DPPC   C1B15119  21.859   4.813  19.273  0.0411 -0.0655  0.2079
12075DPPC   C2B15120  21.868   4.791  18.865  0.1278  0.2509  0.0377
12075DPPC   C3B15121  21.835   4.732  18.344 -0.0516 -0.2210  0.1206
12075DPPC   C4B15122  21.858   4.782  17.869 -0.0679 -0.2491 -0.0907
12076DPPC   NC315123   0.603   2.305  19.859  0.1479  0.0903  0.5491
12076DPPC   PO415124   0.902   2.162  19.664 -0.1654  0.0414 -0.1499
12076DPPC   GL115125   0.913   2.254  19.206 -0.1528  0.0760 -0.1313
12076DPPC   GL215126   1.215   2.193  19.091 -0.2011 -0.0805  0.2093
12076DPPC   C1A15127   0.662   2.074  19.043 -0.2761  0.1678  0.0592
12076DPPC   C2A15128   0.538   1.932  18.661 -0.2939 -0.0220  0.0648
12076DPPC   C3A15129   0.625   1.910  18.246  0.1664  0.0876  0.1720
12076DPPC   C4A15130   0.990   1.736  17.988  0.0316 -0.2409 -0.0520
12076DPPC   C1B15131   1.229   2.097  18.744  0.2565 -0.0378  0.2181
12076DPPC   C2B15132   1.014   2.209  18.380  0.1370  0.2954  0.1399
12076DPPC   C3B15133   0.830   2.268  17.977  0.2168 -0.0764  0.1006
12076DPPC   C4B15134   0.730   2.380  17.524 -0.0796  0.1201  0.0031
12077DPPC   NC315135  23.751   6.134  20.432  0.0807  0.4117  0.0237
12077DPPC   PO415136  23.877   6.026  20.060 -0.1526 -0.1988 -0.2051
12077DPPC   GL115137  23.706   6.325  19.718  0.2750  0.2407 -0.0984
12077DPPC   GL215138  23.479   6.117  19.716 -0.3231 -0.0613 -0.0372
12077DPPC   C1A15139  23.792   6.235  19.367  0.1988 -0.0741 -0.0123
12077DPPC   C2A15140  23.759   6.120  18.968  0.1137 -0.3703 -0.1348
12077DPPC   C3A15141  23.708   6.089  18.504 -0.3796 -0.0468  0.0917
12077DPPC   C4A15142  23.683   6.154  17.982  0.1122  0.3884 -0.3427
12077DPPC   C1B15143  23.302   6.140  19.466 -0.0125  0.2817  0.1142
12077DPPC   C2B15144  23.235   6.250  19.034  0.0035  0.2570 -0.0932
12077DPPC   C3B15145  23.245   6.239  18.604  0.1945  0.1664 -0.0430
12077DPPC   C4B15146  23.206   6.255  18.148 -0.0280  0.0819 -0.1411
12078DPPC   NC315147  22.362   5.340  20.137 -0.1886  0.0521 -0.2551
12078DPPC   PO415148  22.556   5.019  20.106 -0.1654  0.2636  0.1799
12078DPPC   GL115149  22.469   4.960  19.703  0.0131 -0.5244  0.0460
12078DPPC   GL215150  22.790   4.974  19.670 -0.0346 -0.0250  0.1308
12078DPPC   C1A15151  22.321   5.082  19.410 -0.1539 -0.1532  0.0556
12078DPPC   C2A15152  22.180   5.143  19.015 -0.2068 -0.1654  0.2004
12078DPPC   C3A15153  22.139   5.112  18.556 -0.1285  0.3638  0.2721
12078DPPC   C4A15154  22.173   5.156  18.085 -0.3714 -0.2999 -0.0078
12078DPPC   C1B15155  22.797   5.009  19.338 -0.3461  0.1559  0.2229
12078DPPC   C2B15156  22.698   5.024  18.934  0.0897 -0.0929  0.1160
12078DPPC   C3B15157  22.662   5.065  18.499  0.0730 -0.3170  0.0504
12078DPPC   C4B15158  22.687   5.036  17.984  0.0568 -0.2173 -0.0922
12079DPPC   NC315159  26.224   0.421  19.859  0.0426  0.0128  0.1111
12079DPPC   PO415160  25.830   0.477  19.859 -0.1013  0.0824 -0.1435
12079DPPC   GL115161  25.674   0.456  19.402 -0.2096  0.6057 -0.1302
12079DPPC   GL215162  25.697   0.171  19.438  0.1328 -0.1405 -0.0239
12079DPPC   C1A15163  25.702   0.472  19.044  0.1970 -0.2407 -0.0795
12079DPPC   C2A15164  25.671   0.475  18.662  0.1815  0.0459  0.0544
12079DPPC   C3A15165  25.680   0.402  18.157 -0.2564  0.1520 -0.0099
12079DPPC   C4A15166  25.743   0.382  17.638  0.3045 -0.0046 -0.0991
12079DPPC   C1B15167  25.791  -0.000  19.128 -0.2421 -0.0724  0.0364
12079DPPC   C2B15168  25.917  -0.150  18.742  0.0548 -0.1361 -0.0199
12079DPPC   C3B15169  25.905  -0.099  18.265 -0.1849  0.0312 -0.0629
12079DPPC   C4B15170  25.884  -0.077  17.836  0.0084 -0.1145  0.1024
12080DPPC   NC315171   0.043   4.951  19.616 -0.1335 -0.2897 -0.3147
12080DPPC   PO415172  -0.114   5.254  19.791 -0.0297  0.2387  0.1437
12080DPPC   GL115173  -0.197   5.330  19.459 -0.0935  0.0960 -0.0412
12080DPPC   GL215174  -0.318   5.241  19.297 -0.3022 -0.1291  0.0490
12080DPPC   C1A15175   0.009   5.530  19.184  0.0298  0.1636 -0.2522
12080DPPC   C2A15176   0.213   5.511  18.824  0.2536 -0.1147 -0.2987
12080DPPC   C3A15177   0.237   5.510  18.297 -0.0556  0.1353 -0.1386
12080DPPC   C4A15178   0.279   5.443  17.796 -0.1381 -0.0593  0.0253
12080DPPC   C1B15179  -0.178   5.199  18.971  0.2170  0.0536 -0.0713
12080DPPC   C2B15180  -0.092   5.186  18.568  0.1189 -0.1868 -0.0238
12080DPPC   C3B15181  -0.099   5.165  18.076 -0.2928  0.0490  0.1750
12080DPPC   C4B15182  -0.081   5.221  17.557 -0.0848  0.0131 -0.3114
12081DPPC   NC315183  26.215   1.588  20.287 -0.0304  0.1122  0.3227
12081DPPC   PO415184  26.541   1.446  20.123 -0.2136  0.1542 -0.1126
12081DPPC   GL115185  26.578   1.622  19.718 -0.4072  0.1035  0.3714
12081DPPC   GL215186  26.425   1.306  19.714 -0.1230  0.1959  0.1378
12081DPPC   C1A15187  26.479   1.864  19.428 -0.0829  0.0999 -0.0269
12081DPPC   C2A15188  26.394   2.021  19.021 -0.1809 -0.2501  0.2531
12081DPPC   C3A15189  26.511   1.975  18.531  0.0113  0.0612 -0.0751
12081DPPC   C4A15190  26.546   1.969  18.099 -0.0326 -0.1227  0.2873
12081DPPC   C1B15191  26.380   1.139  19.406  0.0875 -0.0434 -0.2545
12081DPPC   C2B15192  26.243   1.192  19.070  0.2962  0.1882 -0.0587
12081DPPC   C3B15193  26.348   1.236  18.623 -0.0101  0.0178 -0.3077
12081DPPC   C4B15194  26.356   1.269  18.162  0.0361  0.0646  0.2797
12082DPPC   NC315195  21.453   2.320  20.346 -0.0025  0.0304  0.0745
12082DPPC   PO415196  21.588   2.039  20.155  0.0168 -0.0212  0.1624
12082DPPC   GL115197  21.526   2.088  19.753 -0.1254 -0.0974  0.0998
12082DPPC   GL215198  21.807   2.001  19.696 -0.0439 -0.3174  0.0871
12082DPPC   C1A15199  21.435   2.174  19.383 -0.0744  0.0003  0.1596
12082DPPC   C2A15200  21.315   2.193  18.986  0.2890  0.1715  0.2999
12082DPPC   C3A15201  21.371   2.140  18.501 -0.0718  0.1508  0.1770
12082DPPC   C4A15202  21.349   2.168  17.992 -0.0317  0.3887  0.0379
12082DPPC   C1B15203  21.874   2.092  19.374 -0.1513  0.0811 -0.0431
12082DPPC   C2B15204  21.817   2.078  18.953 -0.2232 -0.1269  0.0678
12082DPPC   C3B15205  21.855   2.111  18.466  0.3124 -0.0282  0.0585
12082DPPC   C4B15206  21.919   2.112  17.976 -0.2476  0.0654  0.2527
12083DPPC   NC315207  26.347   4.676  20.103  0.5238 -0.1778  0.0780
12083DPPC   PO415208  26.664   4.588  19.853  0.1003 -0.0162  0.1383
12083DPPC   GL115209  26.802   4.217  19.662 -0.2867  0.0347 -0.1958
12083DPPC   GL215210  26.571   4.149  19.559 -0.0524  0.0744  0.1121
12083DPPC   C1A15211  27.015   4.024  19.423  0.1139 -0.0403  0.3046
12083DPPC   C2A15212  27.124   4.000  19.011 -0.2397 -0.0176  0.2896
12083DPPC   C3A15213  27.088   4.028  18.545 -0.2749 -0.0110 -0.3745
12083DPPC   C4A15214  27.128   4.033  18.059  0.3761  0.0738  0.1028
12083DPPC   C1B15215  26.607   4.169  19.214 -0.0819 -0.2767 -0.2883
12083DPPC   C2B15216  26.678   4.146  18.827 -0.1869 -0.0064 -0.0624
12083DPPC   C3B15217  26.603   4.161  18.336 -0.1222  0.0661 -0.1781
12083DPPC   C4B15218  26.687   4.149  17.835  0.2259 -0.3094 -0.0052
12084DPPC   NC315219  22.191   0.354  20.195  0.1206 -0.0336  0.0675
12084DPPC   PO415220  22.552   0.402  20.065  0.0976  0.0033  0.0274
12084DPPC   GL115221  22.717   0.611  19.829  0.1847  0.2530  0.0828
12084DPPC   GL215222  22.859   0.295  19.653  0.1399  0.0237 -0.1189
12084DPPC   C1A15223  22.710   0.686  19.445 -0.0096  0.2455  0.2075
12084DPPC   C2A15224  22.816   0.562  19.087  0.1677  0.1804 -0.0092
12084DPPC   C3A15225  22.865   0.582  18.599 -0.0387  0.0060 -0.3619
12084DPPC   C4A15226  22.880   0.563  18.158 -0.1429 -0.0788 -0.3075
12084DPPC   C1B15227  23.114   0.452  19.427  0.2261 -0.2792 -0.1953
12084DPPC   C2B15228  23.298   0.501  19.087  0.1360 -0.2040  0.0220
12084DPPC   C3B15229  23.347   0.437  18.634 -0.0515 -0.0838 -0.0931
12084DPPC   C4B15230  23.385   0.465  18.082  0.0009  0.4065 -0.2285
12085DPPC   NC315231  20.242   1.063  20.610 -0.1713  0.1800 -0.0050
12085DPPC   PO415232  20.428   0.780  20.368 -0.0476 -0.2277 -0.1379
12085DPPC   GL115233  20.257   0.797  19.965 -0.0379  0.1493  0.3488
12085DPPC   GL215234  20.449   0.592  19.889 -0.4864 -0.3350 -0.0475
12085DPPC   C1A15235  19.978   0.770  19.670 -0.1529 -0.1823  0.3145
12085DPPC   C2A15236  20.076   0.775  19.232 -0.0032 -0.2075 -0.2661
12085DPPC   C3A15237  20.001   0.735  18.730  0.0660  0.0762 -0.2678
12085DPPC   C4A15238  20.061   0.716  18.228  0.1945  0.0161 -0.2551
12085DPPC   C1B15239  20.523   0.600  19.559  0.3258 -0.1565  0.0037
12085DPPC   C2B15240  20.643   0.669  19.153  0.1158  0.1293  0.0739
12085DPPC   C3B15241  20.597   0.691  18.705 -0.1140  0.1023 -0.0764
12085DPPC   C4B15242  20.522   0.565  18.228 -0.1650 -0.2042 -0.0830
12086DPPC   NC315243  24.863   2.013  19.988  0.1557 -0.1107 -0.0598
12086DPPC   PO415244  24.889   2.461  19.938  0.1061 -0.0703 -0.0987
12086DPPC   GL115245  25.201   2.436  19.667  0.0571  0.4517  0.3031
12086DPPC   GL215246  25.036   2.625  19.494  0.0154  0.3964 -0.3980
12086DPPC   C1A15247  25.409   2.565  19.392  0.3755 -0.0420  0.2271
12086DPPC   C2A15248  25.343   2.705  19.020  0.0894  0.2351  0.2619
12086DPPC   C3A15249  25.211   2.761  18.575  0.2668  0.1940  0.0059
12086DPPC   C4A15250  25.239   2.733  18.060  0.0898 -0.1083 -0.0880
12086DPPC   C1B15251  24.951   2.527  19.179 -0.1418  0.2156  0.0170
12086DPPC   C2B15252  24.967   2.383  18.814  0.2440 -0.2580  0.0768
12086DPPC   C3B15253  24.950   2.324  18.340 -0.1802  0.0776 -0.0357
12086DPPC   C4B15254  25.041   2.282  17.831  0.2617 -0.0800 -0.2145
12087DPPC   NC315255  21.545   6.503  20.325  0.0580 -0.1291 -0.0643
12087DPPC   PO415256  21.779   6.708  20.062  0.0003 -0.0268  0.1094
12087DPPC   GL115257  21.714   6.787  19.709  0.1412 -0.1579  0.0897
12087DPPC   GL215258  21.671   6.493  19.621 -0.0717 -0.1709 -0.0789
12087DPPC   C1A15259  22.032   6.810  19.492  0.3049  0.2908 -0.0615
12087DPPC   C2A15260  22.060   6.847  19.128 -0.0840 -0.2343 -0.0993
12087DPPC   C3A15261  22.049   6.897  18.670  0.2990 -0.4102 -0.1002
12087DPPC   C4A15262  22.032   6.957  18.195  0.0199  0.1285 -0.2637
12087DPPC   C1B15263  21.732   6.479  19.264 -0.0665  0.1631  0.0850
12087DPPC   C2B15264  21.749   6.516  18.820 -0.1094 -0.0325 -0.0559
12087DPPC   C3B15265  21.674   6.562  18.336 -0.0092 -0.2413 -0.1065
12087DPPC   C4B15266  21.633   6.592  17.886  0.1850  0.4728 -0.0396
12088DPPC   NC315267   0.896   5.913  20.001 -0.0856  0.2049 -0.0579
12088DPPC   PO415268   0.784   5.542  20.084  0.0481  0.2836  0.1608
12088DPPC   GL115269   1.060   5.413  19.829 -0.2034 -0.2370 -0.1168
12088DPPC   GL215270   0.941   5.658  19.602 -0.1178  0.1614 -0.0848
12088DPPC   C1A15271   1.160   5.283  19.497  0.0731 -0.0192  0.1890
12088DPPC   C2A15272   1.158   5.293  19.120 -0.2813 -0.3973 -0.0935
12088DPPC   C3A15273   1.186   5.254  18.612 -0.0889  0.3435  0.2830
12088DPPC   C4A15274   1.192   5.213  18.132  0.0549  0.0876  0.1552
12088DPPC   C1B15275   0.943   5.669  19.238 -0.0314  0.1069 -0.0198
12088DPPC   C2B15276   0.992   5.689  18.788  0.0213 -0.1340  0.0526
12088DPPC   C3B15277   0.995   5.660  18.326  0.0785 -0.1442  0.2143
12088DPPC   C4B15278   1.080   5.713  17.843 -0.0002  0.1773 -0.0112
12089DPPC   NC315279  22.693   6.529  19.975  0.0262 -0.0207 -0.1013
12089DPPC   PO415280  23.016   6.704  20.091  0.0887  0.0387  0.1931
12089DPPC   GL115281  23.213   6.524  19.664  0.1817 -0.3285  0.3841
12089DPPC   GL215282  23.423   6.703  19.685  0.1574  0.0861 -0.1974
12089DPPC   C1A15283  23.074   6.571  19.367 -0.4029  0.1563  0.1291
12089DPPC   C2A15284  23.050   6.677  18.945  0.2857  0.0045  0.0386
12089DPPC   C3A15285  23.024   6.693  18.441 -0.1412  0.2584 -0.0438
12089DPPC   C4A15286  23.028   6.729  17.913  0.1847  0.0603 -0.2253
12089DPPC   C1B15287  23.521   6.627  19.302 -0.0188  0.1141  0.0875
12089DPPC   C2B15288  23.528   6.631  18.897 -0.0642  0.0396  0.2576
12089DPPC   C3B15289  23.560   6.615  18.455 -0.3477  0.0509  0.2035
12089DPPC   C4B15290  23.503   6.603  17.947 -0.0503 -0.0502 -0.1202
12090DPPC   NC315291  26.374   5.753  19.637 -0.0561  0.5775  0.0101
12090DPPC   PO415292  26.544   6.130  19.623 -0.0269  0.2467  0.0847
12090DPPC   GL115293  26.281   6.325  19.296  0.1127 -0.0129  0.1211
12090DPPC   GL215294  26.362   6.057  19.227 -0.2177  0.3502  0.0111
12090DPPC   C1A15295  26.338   6.489  18.960  0.4242 -0.2403 -0.1765
12090DPPC   C2A15296  26.356   6.430  18.527 -0.0880 -0.1157  0.2152
12090DPPC   C3A15297  26.413   6.533  18.049 -0.3325  0.3860 -0.3265
12090DPPC   C4A15298  26.356   6.581  17.600 -0.1378 -0.0630 -0.0231
12090DPPC   C1B15299  26.413   5.936  18.882  0.1179  0.1508 -0.1542
12090DPPC   C2B15300  26.476   5.970  18.482  0.0797  0.1418  0.2389
12090DPPC   C3B15301  26.535   5.953  17.968 -0.0180  0.1194  0.0740
12090DPPC   C4B15302  26.567   5.845  17.506  0.0684 -0.3518  0.0540
12091DPPC   NC315303  22.026   1.918  20.074 -0.3487  0.2292 -0.1910
12091DPPC   PO415304  22.297   1.612  20.127  0.0569 -0.1876 -0.2073
12091DPPC   GL115305  22.371   1.342  19.756 -0.2917 -0.1081 -0.0982
12091DPPC   GL215306  22.554   1.514  19.670 -0.1058  0.2782  0.0420
12091DPPC   C1A15307  22.191   1.181  19.487 -0.1893 -0.0475  0.0232
12091DPPC   C2A15308  22.145   1.173  19.079  0.0944 -0.1140 -0.0613
12091DPPC   C3A15309  22.146   1.179  18.624 -0.1360 -0.0101 -0.1011
12091DPPC   C4A15310  22.250   1.054  18.149 -0.3564  0.0135  0.2435
12091DPPC   C1B15311  22.502   1.517  19.274  0.0836 -0.2996  0.1538
12091DPPC   C2B15312  22.485   1.499  18.865  0.2717 -0.2605 -0.1096
12091DPPC   C3B15313  22.581   1.468  18.402  0.0643 -0.3381  0.0194
12091DPPC   C4B15314  22.541   1.489  17.889 -0.2097  0.2312  0.1412
12092DPPC   NC315315  21.360   0.446  19.851  0.2187  0.1268  0.0805
12092DPPC   PO415316  21.320   0.050  19.903  0.1850  0.1394 -0.0168
12092DPPC   GL115317  21.059  -0.080  19.608  0.5126 -0.0506 -0.0676
12092DPPC   GL215318  21.197   0.179  19.504 -0.2256 -0.1735  0.1433
12092DPPC   C1A15319  20.985  -0.343  19.401  0.1456  0.4186  0.1429
12092DPPC   C2A15320  20.894  -0.348  18.956  0.0194 -0.1156  0.0377
12092DPPC   C3A15321  20.819  -0.193  18.504 -0.2110 -0.0970  0.3787
12092DPPC   C4A15322  20.887  -0.295  18.003 -0.1313 -0.3198 -0.2169
12092DPPC   C1B15323  21.205   0.119  19.142  0.1962 -0.0064  0.0510
12092DPPC   C2B15324  21.258  -0.011  18.719  0.2689 -0.3486 -0.0905
12092DPPC   C3B15325  21.193   0.025  18.217 -0.1782  0.1177  0.1452
12092DPPC   C4B15326  21.161   0.034  17.728  0.2062  0.0065  0.2142
12093DPPC   NC315327  23.375   4.694  20.449 -0.1658 -0.2010  0.2342
12093DPPC   PO415328  23.561   5.022  20.304 -0.0424 -0.0591 -0.0481
12093DPPC   GL115329  23.592   4.846  19.890 -0.0363  0.0221 -0.2722
12093DPPC   GL215330  23.296   4.803  19.911  0.0017 -0.0843  0.1763
12093DPPC   C1A15331  23.633   4.639  19.531 -0.0062  0.1112 -0.3292
12093DPPC   C2A15332  23.592   4.739  19.134 -0.0522  0.0057 -0.2662
12093DPPC   C3A15333  23.663   4.806  18.619  0.2118  0.1840  0.1714
12093DPPC   C4A15334  23.778   4.786  18.145  0.1912  0.0838  0.1586
12093DPPC   C1B15335  23.251   4.864  19.538  0.0583  0.4548  0.2505
12093DPPC   C2B15336  23.120   4.776  19.159 -0.1243 -0.0161  0.0751
12093DPPC   C3B15337  23.152   4.876  18.706  0.0532 -0.0336 -0.0244
12093DPPC   C4B15338  23.248   4.867  18.283  0.0903  0.0802  0.0038
12094DPPC   NC315339  20.533   1.233  20.192  0.1225  0.1675 -0.1013
12094DPPC   PO415340  20.743   0.979  19.981 -0.0395 -0.1013  0.2958
12094DPPC   GL115341  20.960   1.128  19.683  0.1172 -0.1991 -0.2842
12094DPPC   GL215342  21.256   1.053  19.845  0.3253  0.0520  0.0773
12094DPPC   C1A15343  20.929   1.121  19.301 -0.3845  0.1285 -0.3794
12094DPPC   C2A15344  20.887   1.044  18.874  0.0391 -0.0893  0.1863
12094DPPC   C3A15345  20.906   1.009  18.395  0.0245 -0.1048  0.1583
12094DPPC   C4A15346  20.972   0.988  17.914 -0.0525  0.0495 -0.0531
12094DPPC   C1B15347  21.487   1.256  19.653 -0.1219  0.1395 -0.1914
12094DPPC   C2B15348  21.716   1.272  19.287 -0.3661 -0.0003  0.0942
12094DPPC   C3B15349  21.700   1.255  18.775 -0.0284  0.0184  0.1342
12094DPPC   C4B15350  21.782   1.266  18.309  0.1158 -0.0775  0.0772
12095DPPC   NC315351  23.937   2.084  20.598 -0.4670 -0.1221  0.0015
12095DPPC   PO415352  24.110   2.308  20.333 -0.0541 -0.0318 -0.3723
12095DPPC   GL115353  24.144   2.420  19.976 -0.3783 -0.1464  0.0032
12095DPPC   GL215354  24.047   2.115  19.912 -0.4033 -0.1574  0.1150
12095DPPC   C1A15355  23.995   2.550  19.658  0.2605 -0.1479 -0.0734
12095DPPC   C2A15356  23.933   2.548  19.256  0.1639  0.2237 -0.2027
12095DPPC   C3A15357  23.961   2.562  18.786 -0.1996  0.0877 -0.0315
12095DPPC   C4A15358  24.003   2.557  18.270 -0.0674 -0.0276  0.0561
12095DPPC   C1B15359  24.021   2.071  19.573 -0.0470  0.0841  0.1094
12095DPPC   C2B15360  24.150   2.107  19.198  0.1595 -0.1788 -0.0470
12095DPPC   C3B15361  24.177   2.049  18.770 -0.2254 -0.2111  0.1478
12095DPPC   C4B15362  24.150   1.979  18.284 -0.1867 -0.4014  0.2709
12096DPPC   NC315363  25.827   3.069  20.715 -0.0751 -0.2049 -0.0293
12096DPPC   PO415364  25.813   3.093  20.327  0.2198 -0.0725  0.1530
12096DPPC   GL115365  25.880   3.134  19.972  0.1034  0.1403  0.0797
12096DPPC   GL215366  25.672   3.052  19.810 -0.2376 -0.0720  0.0602
12096DPPC   C1A15367  26.023   3.331  19.703  0.0429  0.3918  0.3715
12096DPPC   C2A15368  26.001   3.470  19.311  0.1961  0.5272 -0.2726
12096DPPC   C3A15369  25.986   3.499  18.820 -0.0387 -0.0427 -0.0169
12096DPPC   C4A15370  26.045   3.494  18.306 -0.2898 -0.0633 -0.4146
12096DPPC   C1B15371  25.731   3.038  19.471  0.1308  0.0363  0.1004
12096DPPC   C2B15372  25.693   3.132  19.064 -0.2103  0.0221 -0.0679
12096DPPC   C3B15373  25.640   3.070  18.600 -0.0590 -0.1893 -0.0693
12096DPPC   C4B15374  25.611   3.073  18.109  0.2034 -0.0175 -0.2474
12097DPPC   NC315375  23.663   3.958  20.121 -0.2801 -0.2510  0.0119
12097DPPC   PO415376  23.379   3.725  20.000  0.3572 -0.2203 -0.3041
12097DPPC   GL115377  23.084   3.574  19.748  0.4951 -0.2499 -0.0588
12097DPPC   GL215378  22.968   3.446  19.897  0.1782  0.0309 -0.1048
12097DPPC   C1A15379  23.159   3.617  19.385 -0.2067  0.3766 -0.1968
12097DPPC   C2A15380  23.163   3.616  18.989 -0.0853 -0.1509  0.1087
12097DPPC   C3A15381  23.229   3.598  18.490  0.1069 -0.1387  0.1890
12097DPPC   C4A15382  23.192   3.668  18.018 -0.0279  0.3926 -0.1919
12097DPPC   C1B15383  22.774   3.192  19.683 -0.3630  0.3500  0.0759
12097DPPC   C2B15384  22.842   3.260  19.299  0.1776 -0.2951  0.0086
12097DPPC   C3B15385  22.862   3.199  18.777  0.1366  0.3013 -0.0693
12097DPPC   C4B15386  22.793   3.185  18.341  0.2514 -0.1199  0.2630
12098DPPC   NC315387  25.203   6.338  19.942  0.0871  0.0944 -0.1760
12098DPPC   PO415388  24.919   6.633  19.913 -0.1069 -0.0139 -0.0289
12098DPPC   GL115389  24.963   6.726  19.437  0.1294  0.0983  0.1386
12098DPPC   GL215390  24.689   6.736  19.532  0.2818  0.0158 -0.2619
12098DPPC   C1A15391  25.023   6.652  19.055  0.0234 -0.2314 -0.0677
12098DPPC   C2A15392  24.850   6.686  18.685 -0.0183 -0.0123  0.0476
12098DPPC   C3A15393  24.817   6.762  18.220 -0.3555  0.0441 -0.0440
12098DPPC   C4A15394  24.876   6.723  17.746  0.0400 -0.2346  0.0735
12098DPPC   C1B15395  24.445   6.540  19.341  0.0663 -0.1621 -0.2995
12098DPPC   C2B15396  24.495   6.383  18.954 -0.0748  0.0111 -0.2730
12098DPPC   C3B15397  24.511   6.351  18.487 -0.0606 -0.0148  0.0160
12098DPPC   C4B15398  24.552   6.369  18.033  0.1673  0.2890 -0.1718
12099DPPC   NC315399  25.217   2.246  14.938 -0.0089 -0.0738 -0.2205
12099DPPC   PO415400  25.347   1.937  15.160  0.1508  0.0884  0.0160
12099DPPC   GL115401  25.425   1.724  15.542 -0.0548  0.0273  0.0450
12099DPPC   GL215402  25.288   1.996  15.611 -0.2446  0.0240  0.0986
12099DPPC   C1A15403  25.574   1.492  15.774  0.3828  0.2885  0.0925
12099DPPC   C2A15404  25.393   1.386  16.139  0.0826 -0.1747  0.3937
12099DPPC   C3A15405  25.264   1.331  16.573 -0.3287  0.0844  0.2299
12099DPPC   C4A15406  25.361   1.303  17.069 -0.0961 -0.2250 -0.2563
12099DPPC   C1B15407  25.291   1.868  15.966 -0.0762 -0.0022 -0.1779
12099DPPC   C2B15408  25.198   1.770  16.351 -0.0871 -0.0816 -0.2621
12099DPPC   C3B15409  25.170   1.777  16.833  0.0821 -0.0531  0.1597
12099DPPC   C4B15410  25.201   1.738  17.249 -0.0729  0.1040 -0.1100
12100DPPC   NC315411  19.957   4.574  15.804 -0.2379 -0.0400  0.1374
12100DPPC   PO415412  20.298   4.808  15.759  0.3799 -0.1125 -0.0013
12100DPPC   GL115413  20.459   4.930  16.158  0.2268  0.0890  0.1182
12100DPPC   GL215414  20.335   5.168  16.137  0.3462 -0.0709 -0.1247
12100DPPC   C1A15415  20.533   4.978  16.505 -0.4026 -0.0377  0.1060
12100DPPC   C2A15416  20.441   5.049  16.921  0.0117  0.0866 -0.0777
12100DPPC   C3A15417  20.431   5.118  17.403 -0.1016  0.1357  0.0168
12100DPPC   C4A15418  20.374   5.093  17.859 -0.2157  0.0283 -0.2073
12100DPPC   C1B15419  20.102   5.128  16.428  0.3466 -0.0821  0.3323
12100DPPC   C2B15420  19.957   5.123  16.806 -0.1004 -0.1010 -0.0367
12100DPPC   C3B15421  19.873   5.193  17.246 -0.0040 -0.0769 -0.0888
12100DPPC   C4B15422  19.879   5.260  17.746  0.1187  0.3180 -0.0228
12101DPPC   NC315423  23.188   0.741  15.221 -0.2635 -0.1084  0.1515
12101DPPC   PO415424  23.182   0.326  15.245  0.0647 -0.1188 -0.0578
12101DPPC   GL115425  23.181   0.135  15.653 -0.1925  0.0865 -0.0442
12101DPPC   GL215426  23.435   0.210  15.717 -0.0030  0.2975 -0.0774
12101DPPC   C1A15427  23.078   0.133  16.017  0.1493  0.1352  0.0977
12101DPPC   C2A15428  23.075   0.038  16.410  0.1643 -0.0073  0.1547
12101DPPC   C3A15429  23.117   0.046  16.857 -0.2105  0.1207  0.1154
12101DPPC   C4A15430  23.073   0.071  17.376  0.0098 -0.0654 -0.3488
12101DPPC   C1B15431  23.529   0.007  15.994  0.1428  0.1792 -0.0775
12101DPPC   C2B15432  23.608  -0.044  16.420 -0.3732 -0.0441  0.0126
12101DPPC   C3B15433  23.638  -0.091  16.916  0.3183  0.0059  0.2250
12101DPPC   C4B15434  23.587  -0.011  17.439  0.2656 -0.1040 -0.1777
12102DPPC   NC315435  22.031   3.842  15.561  0.1113  0.0388  0.2588
12102DPPC   PO415436  22.240   3.539  15.567  0.4235  0.0595  0.0798
12102DPPC   GL115437  22.209   3.428  15.862  0.2110 -0.6022  0.1677
12102DPPC   GL215438  22.150   3.671  15.982  0.0366 -0.1730 -0.0884
12102DPPC   C1A15439  22.436   3.420  16.211 -0.3455  0.0098 -0.1691
12102DPPC   C2A15440  22.473   3.280  16.543  0.0813  0.1808  0.1661
12102DPPC   C3A15441  22.447   3.278  17.021  0.1420  0.1199  0.1013
12102DPPC   C4A15442  22.378   3.344  17.495 -0.0186 -0.1813  0.1090
12102DPPC   C1B15443  22.206   3.737  16.307  0.1601  0.1183 -0.0474
12102DPPC   C2B15444  22.238   3.758  16.692  0.1468  0.0002  0.1176
12102DPPC   C3B15445  22.238   3.719  17.179 -0.0641 -0.1084  0.0413
12102DPPC   C4B15446  22.246   3.776  17.651  0.1513  0.0523 -0.0247
12103DPPC   NC315447  21.681   4.155  15.502  0.2304  0.1521 -0.1196
12103DPPC   PO415448  21.284   4.125  15.537 -0.1455 -0.2725  0.3120
12103DPPC   GL115449  21.304   4.284  15.964 -0.3122 -0.0506  0.0894
12103DPPC   GL215450  21.391   4.112  16.073  0.1390  0.2323  0.0128
12103DPPC   C1A15451  21.127   4.469  16.269 -0.3660 -0.2224  0.0885
12103DPPC   C2A15452  21.113   4.503  16.669  0.0855  0.2327  0.0597
12103DPPC   C3A15453  21.070   4.517  17.126 -0.0948  0.0876  0.4279
12103DPPC   C4A15454  21.154   4.507  17.623  0.0633  0.1530  0.6245
12103DPPC   C1B15455  21.329   3.983  16.399 -0.4893 -0.0609  0.1358
12103DPPC   C2B15456  21.317   3.953  16.800  0.2161 -0.0394 -0.3417
12103DPPC   C3B15457  21.336   3.992  17.262  0.3296 -0.3530 -0.1430
12103DPPC   C4B15458  21.252   4.064  17.745 -0.1689  0.1665 -0.1949
12104DPPC   NC315459  25.447   6.056  14.994  0.1687 -0.0613  0.0754
12104DPPC   PO415460  25.523   6.400  15.208 -0.2451 -0.1651  0.1095
12104DPPC   GL115461  25.554   6.403  15.572  0.0658  0.1155  0.1266
12104DPPC   GL215462  25.687   6.594  15.623  0.1292 -0.0655  0.2485
12104DPPC   C1A15463  25.502   6.218  15.916 -0.3661 -0.1520 -0.1998
12104DPPC   C2A15464  25.507   6.210  16.341 -0.2678  0.0874  0.0433
12104DPPC   C3A15465  25.506   6.141  16.819  0.3948  0.0904 -0.0018
12104DPPC   C4A15466  25.536   6.102  17.266 -0.2468  0.2388 -0.0652
12104DPPC   C1B15467  25.820   6.621  15.955 -0.4376  0.0402 -0.2486
12104DPPC   C2B15468  25.814   6.616  16.342 -0.1661  0.1680 -0.0202
12104DPPC   C3B15469  25.848   6.585  16.847 -0.0625  0.1142  0.0956
12104DPPC   C4B15470  25.796   6.535  17.300 -0.0128 -0.1439  0.0055
12105DPPC   NC315471  25.222   1.389  15.309 -0.0628  0.1607  0.1519
12105DPPC   PO415472  24.884   1.612  15.357  0.1161 -0.2159  0.0276
12105DPPC   GL115473  24.749   1.595  15.771 -0.1525 -0.1802 -0.3007
12105DPPC   GL215474  24.923   1.819  15.810 -0.0494 -0.1895 -0.0887
12105DPPC   C1A15475  24.742   1.475  16.087 -0.1883 -0.0089  0.2360
12105DPPC   C2A15476  24.830   1.470  16.478  0.0923 -0.0362 -0.2029
12105DPPC   C3A15477  24.873   1.397  16.988  0.0588  0.0710 -0.1007
12105DPPC   C4A15478  24.857   1.447  17.491 -0.3271 -0.3464 -0.0614
12105DPPC   C1B15479  24.774   1.900  16.174  0.2754 -0.2024  0.0646
12105DPPC   C2B15480  24.751   1.960  16.571 -0.1782 -0.1694 -0.1678
12105DPPC   C3B15481  24.735   1.964  17.057 -0.0236 -0.3770 -0.1156
12105DPPC   C4B15482  24.635   2.049  17.523 -0.0979 -0.1017 -0.0565
12106DPPC   NC315483  24.210   2.563  15.018  0.0608  0.1065 -0.0064
12106DPPC   PO415484  24.061   2.759  15.318  0.1302  0.0576  0.0840
12106DPPC   GL115485  24.333   2.765  15.743 -0.5195  0.1602  0.4381
12106DPPC   GL215486  24.084   2.705  15.817  0.0646  0.0629 -0.2211
12106DPPC   C1A15487  24.417   2.795  16.089  0.0185 -0.3355  0.2405
12106DPPC   C2A15488  24.378   2.849  16.510 -0.0411  0.0761 -0.2468
12106DPPC   C3A15489  24.393   2.896  16.955  0.0833 -0.2141 -0.0987
12106DPPC   C4A15490  24.309   2.944  17.448  0.1081  0.2252  0.0149
12106DPPC   C1B15491  23.998   2.879  16.095 -0.0357 -0.2334  0.0960
12106DPPC   C2B15492  23.881   2.921  16.458 -0.2035 -0.1886 -0.0081
12106DPPC   C3B15493  23.858   3.009  16.974 -0.3821 -0.1881  0.0841
12106DPPC   C4B15494  23.823   3.006  17.500  0.1500 -0.0475 -0.0647
12107DPPC   NC315495  24.458   6.071  15.504 -0.0685  0.0556 -0.2630
12107DPPC   PO415496  24.129   6.228  15.523  0.2275 -0.0057 -0.1508
12107DPPC   GL115497  24.145   6.211  15.935  0.3181 -0.1053  0.2680
12107DPPC   GL215498  24.330   6.033  15.965 -0.0559 -0.2273 -0.1801
12107DPPC   C1A15499  24.064   6.444  16.224  0.0188  0.4599 -0.2481
12107DPPC   C2A15500  24.096   6.532  16.637 -0.1105  0.0106 -0.1327
12107DPPC   C3A15501  24.078   6.501  17.163 -0.1222  0.1146  0.1734
12107DPPC   C4A15502  24.100   6.486  17.624  0.3857  0.1177 -0.0339
12107DPPC   C1B15503  24.249   5.987  16.330 -0.2716 -0.0491  0.0453
12107DPPC   C2B15504  24.234   6.005  16.729  0.0680 -0.1309  0.0796
12107DPPC   C3B15505  24.214   5.944  17.250 -0.2262 -0.1592  0.3635
12107DPPC   C4B15506  24.158   6.016  17.762 -0.0701  0.3934  0.0068
12108DPPC   NC315507  22.854   3.977  15.304  0.1545 -0.1386  0.0067
12108DPPC   PO415508  23.122   3.756  15.438  0.0558  0.0311 -0.2897
12108DPPC   GL115509  23.129   3.731  15.857  0.0312  0.2804  0.1184
12108DPPC   GL215510  23.071   3.992  15.838  0.3694 -0.0441 -0.5123
12108DPPC   C1A15511  23.300   3.598  16.196 -0.3026  0.1449  0.1965
12108DPPC   C2A15512  23.263   3.632  16.580  0.0954 -0.0103 -0.0069
12108DPPC   C3A15513  23.210   3.597  17.046 -0.1443  0.1632 -0.2019
12108DPPC   C4A15514  23.202   3.581  17.501  0.1474  0.2166  0.0212
12108DPPC   C1B15515  23.049   3.975  16.242  0.1922  0.0051 -0.2124
12108DPPC   C2B15516  23.051   4.092  16.659 -0.0042  0.2010 -0.0564
12108DPPC   C3B15517  23.016   4.136  17.152  0.2084  0.3571  0.0907
12108DPPC   C4B15518  22.970   4.142  17.635 -0.1589  0.2080  0.0021
12109DPPC   NC315519  20.373   3.855  15.355 -0.2098 -0.1363  0.1631
12109DPPC   PO415520  20.472   3.499  15.571 -0.0348 -0.0756 -0.0744
12109DPPC   GL115521  20.550   3.519  15.978  0.2086 -0.0425 -0.0099
12109DPPC   GL215522  20.856   3.605  16.005  0.1187 -0.4734  0.2477
12109DPPC   C1A15523  20.317   3.398  16.243  0.0223 -0.2827  0.1136
12109DPPC   C2A15524  20.159   3.400  16.603  0.2315 -0.0762  0.3371
12109DPPC   C3A15525  20.146   3.353  17.099  0.1340 -0.3051  0.0529
12109DPPC   C4A15526  20.122   3.351  17.598  0.1625  0.0111  0.0659
12109DPPC   C1B15527  21.023   3.712  16.318  0.4169 -0.0088 -0.1515
12109DPPC   C2B15528  20.904   3.662  16.697 -0.1493  0.0962 -0.0110
12109DPPC   C3B15529  20.909   3.652  17.172  0.2785 -0.1323  0.3491
12109DPPC   C4B15530  20.839   3.671  17.650 -0.0697 -0.2640 -0.1202
12110DPPC   NC315531  21.585   5.363  15.342  0.1398  0.0982 -0.2099
12110DPPC   PO415532  21.706   5.098  15.554 -0.0354  0.1900  0.2396
12110DPPC   GL115533  21.772   5.139  15.978 -0.2277  0.1626 -0.2122
12110DPPC   GL215534  21.582   5.373  15.957 -0.1301 -0.2858  0.2613
12110DPPC   C1A15535  21.734   5.121  16.356 -0.1530  0.1930  0.0963
12110DPPC   C2A15536  21.700   5.165  16.751 -0.1131  0.0821 -0.1619
12110DPPC   C3A15537  21.661   5.268  17.205 -0.1403  0.1168 -0.1809
12110DPPC   C4A15538  21.777   5.255  17.699 -0.2294 -0.1899  0.3449
12110DPPC   C1B15539  21.593   5.499  16.317  0.2491 -0.2192 -0.0101
12110DPPC   C2B15540  21.602   5.706  16.652  0.1402 -0.1050 -0.1371
12110DPPC   C3B15541  21.560   5.721  17.119 -0.1027  0.0452 -0.1140
12110DPPC   C4B15542  21.659   5.709  17.615  0.1088 -0.1404 -0.2953
12111DPPC   NC315543  23.136   1.505  15.326 -0.3958 -0.3531  0.2183
12111DPPC   PO415544  23.040   1.884  15.455  0.1835  0.0044 -0.2096
12111DPPC   GL115545  23.206   1.972  15.790  0.3906  0.1890 -0.0989
12111DPPC   GL215546  22.990   1.821  15.892 -0.2266 -0.2338  0.3015
12111DPPC   C1A15547  23.287   2.169  16.096 -0.3357  0.0013 -0.0797
12111DPPC   C2A15548  23.175   2.241  16.492  0.3347 -0.1508 -0.0635
12111DPPC   C3A15549  23.220   2.165  16.982  0.1281 -0.2955 -0.3558
12111DPPC   C4A15550  23.218   2.272  17.458 -0.1235  0.2418 -0.3281
12111DPPC   C1B15551  22.880   1.917  16.235  0.1072  0.0276  0.0191
12111DPPC   C2B15552  22.885   1.850  16.662 -0.0135  0.3642  0.1273
12111DPPC   C3B15553  22.924   1.797  17.133 -0.0298  0.1251 -0.1360
12111DPPC   C4B15554  22.859   1.840  17.641  0.0950  0.1195  0.1016
12112DPPC   NC315555  23.939   4.399  15.339 -0.1339  0.1555 -0.0470
12112DPPC   PO415556  23.900   4.805  15.351  0.0058  0.0841  0.1636
12112DPPC   GL115557  23.929   5.105  15.677  0.2194 -0.0139 -0.2120
12112DPPC   GL215558  23.755   4.914  15.872  0.0770 -0.3037 -0.2950
12112DPPC   C1A15559  24.110   5.350  15.934 -0.1198 -0.2717 -0.1200
12112DPPC   C2A15560  24.039   5.246  16.329 -0.3034 -0.0743 -0.0912
12112DPPC   C3A15561  24.062   5.162  16.849  0.0384  0.2613 -0.2811
12112DPPC   C4A15562  24.032   5.151  17.373 -0.3120 -0.3649  0.0916
12112DPPC   C1B15563  23.766   4.823  16.248 -0.1483  0.1026 -0.1180
12112DPPC   C2B15564  23.656   4.824  16.650 -0.0703  0.2298  0.2207
12112DPPC   C3B15565  23.684   4.843  17.141 -0.0233 -0.0456  0.4486
12112DPPC   C4B15566  23.706   4.767  17.639 -0.0693 -0.3559 -0.4770
12113DPPC   NC315567  24.707   4.634  15.313 -0.4129 -0.0162  0.0107
12113DPPC   PO415568  24.704   5.031  15.241 -0.2131 -0.0107 -0.0033
12113DPPC   GL115569  24.781   5.185  15.544 -0.2077 -0.0729  0.1274
12113DPPC   GL215570  24.894   4.897  15.682  0.3366 -0.1507 -0.0664
12113DPPC   C1A15571  24.633   5.276  15.866 -0.0801  0.1488  0.1592
12113DPPC   C2A15572  24.486   5.116  16.148  0.2852 -0.0076 -0.1352
12113DPPC   C3A15573  24.485   5.118  16.621 -0.1327  0.0226  0.0663
12113DPPC   C4A15574  24.508   5.097  17.112  0.1710  0.0913  0.0192
12113DPPC   C1B15575  24.967   4.912  16.053 -0.1340 -0.2666 -0.2029
12113DPPC   C2B15576  25.030   4.956  16.460 -0.0299 -0.3588 -0.0922
12113DPPC   C3B15577  25.015   5.017  16.939  0.1557  0.3449 -0.0558
12113DPPC   C4B15578  24.906   5.012  17.467 -0.0600  0.1359 -0.1107
12114DPPC   NC315579  23.208   2.453  15.776  0.0318 -0.1387 -0.2502
12114DPPC   PO415580  22.893   2.694  15.756  0.4897 -0.2662 -0.1120
12114DPPC   GL115581  22.933   2.632  16.147 -0.2599  0.0654  0.1905
12114DPPC   GL215582  23.133   2.695  16.235 -0.2586  0.0676 -0.2000
12114DPPC   C1A15583  22.792   2.375  16.297 -0.1805 -0.1665 -0.2546
12114DPPC   C2A15584  22.764   2.335  16.689 -0.1315 -0.1141 -0.0656
12114DPPC   C3A15585  22.769   2.378  17.166 -0.0566  0.1400 -0.2114
12114DPPC   C4A15586  22.780   2.323  17.676 -0.0928 -0.1495 -0.3482
12114DPPC   C1B15587  23.131   2.739  16.592  0.0557 -0.2039 -0.0970
12114DPPC   C2B15588  23.134   2.729  16.990  0.3406 -0.0696 -0.0075
12114DPPC   C3B15589  23.038   2.756  17.440  0.1186 -0.2350 -0.1610
12114DPPC   C4B15590  23.075   2.719  17.948 -0.1938 -0.0449 -0.1165
12115DPPC   NC315591  26.093   6.229  14.472  0.0641  0.1863 -0.0178
12115DPPC   PO415592  25.955   6.069  14.815 -0.1334  0.0650 -0.1437
12115DPPC   GL115593  25.849   6.117  15.285  0.0435  0.0630 -0.2158
12115DPPC   GL215594  26.142   6.159  15.356 -0.2617 -0.2650 -0.1106
12115DPPC   C1A15595  25.816   5.954  15.585 -0.0150  0.0402 -0.2643
12115DPPC   C2A15596  25.767   5.819  15.964 -0.0714 -0.0230  0.1485
12115DPPC   C3A15597  25.658   5.750  16.480 -0.0929  0.0669 -0.1219
12115DPPC   C4A15598  25.662   5.686  16.977 -0.1887  0.1002 -0.3694
12115DPPC   C1B15599  26.158   6.193  15.757 -0.1508 -0.0475  0.0155
12115DPPC   C2B15600  25.952   6.224  16.122  0.1252  0.3538  0.0348
12115DPPC   C3B15601  25.957   6.175  16.532 -0.1008 -0.3189 -0.0636
12115DPPC   C4B15602  26.000   6.127  17.021  0.2396  0.0514 -0.2231
12116DPPC   NC315603  21.107   4.614  15.140 -0.2507  0.1609 -0.1172
12116DPPC   PO415604  21.470   4.591  15.268  0.1316 -0.2282  0.4080
12116DPPC   GL115605  21.684   4.530  15.690 -0.1025  0.1713 -0.0820
12116DPPC   GL215606  21.552   4.730  15.787 -0.1515  0.0281  0.0082
12116DPPC   C1A15607  21.753   4.351  15.970 -0.0430  0.0494 -0.1903
12116DPPC   C2A15608  21.627   4.338  16.360  0.0263  0.2407 -0.1353
12116DPPC   C3A15609  21.548   4.366  16.799 -0.1597 -0.4301 -0.1289
12116DPPC   C4A15610  21.591   4.453  17.251  0.0098 -0.3780  0.1657
12116DPPC   C1B15611  21.552   4.768  16.116 -0.1053  0.0335 -0.0861
12116DPPC   C2B15612  21.447   4.800  16.495  0.0718  0.0780  0.0465
12116DPPC   C3B15613  21.372   4.866  16.989 -0.1059  0.0571  0.3309
12116DPPC   C4B15614  21.371   4.899  17.440 -0.0384  0.0543  0.1826
12117DPPC   NC315615  22.373   0.733  15.727  0.1338  0.0588 -0.2322
12117DPPC   PO415616  22.664   0.587  15.528 -0.0171 -0.0930  0.4730
12117DPPC   GL115617  22.926   0.444  15.760  0.0503 -0.0940  0.2759
12117DPPC   GL215618  23.117   0.653  15.654 -0.0887 -0.2541 -0.1197
12117DPPC   C1A15619  22.842   0.501  16.080  0.1601 -0.2500 -0.2213
12117DPPC   C2A15620  22.973   0.522  16.493 -0.2589  0.0664 -0.0526
12117DPPC   C3A15621  22.946   0.539  16.966  0.3487 -0.2098  0.2723
12117DPPC   C4A15622  22.944   0.516  17.493  0.1308 -0.1595 -0.1612
12117DPPC   C1B15623  23.151   0.840  15.974  0.0022 -0.0001  0.0417
12117DPPC   C2B15624  23.298   0.901  16.349  0.3131  0.0091 -0.0832
12117DPPC   C3B15625  23.268   0.893  16.826 -0.3064 -0.0608 -0.0823
12117DPPC   C4B15626  23.294   0.826  17.302  0.1773  0.3068 -0.1866
12118DPPC   NC315627  21.759   1.314  15.556 -0.3594 -0.1638 -0.2338
12118DPPC   PO415628  21.930   1.038  15.751 -0.0127  0.1977  0.0399
12118DPPC   GL115629  21.792   0.921  16.140 -0.3994  0.1734  0.2274
12118DPPC   GL215630  21.795   0.618  15.991  0.0422  0.0313  0.2486
12118DPPC   C1A15631  21.774   1.167  16.458 -0.0097  0.3602  0.1698
12118DPPC   C2A15632  21.781   1.202  16.848  0.0746  0.0493 -0.0965
12118DPPC   C3A15633  21.792   1.298  17.324  0.0759 -0.1441  0.0990
12118DPPC   C4A15634  21.743   1.273  17.821  0.0648  0.1920 -0.1025
12118DPPC   C1B15635  21.566   0.471  16.260 -0.3138  0.3794 -0.0280
12118DPPC   C2B15636  21.522   0.417  16.641  0.4118  0.0059  0.0116
12118DPPC   C3B15637  21.538   0.375  17.145 -0.1044 -0.0737  0.1433
12118DPPC   C4B15638  21.579   0.453  17.646 -0.0380 -0.0797 -0.2053
12119DPPC   NC315639  22.566   5.184  15.487 -0.0287  0.1424 -0.0583
12119DPPC   PO415640  22.398   5.499  15.658 -0.1089  0.1557  0.1627
12119DPPC   GL115641  22.316   5.486  16.057 -0.0497 -0.1600 -0.3497
12119DPPC   GL215642  22.029   5.517  16.127 -0.0856 -0.0456  0.0672
12119DPPC   C1A15643  22.483   5.499  16.379 -0.1321 -0.1488 -0.4123
12119DPPC   C2A15644  22.560   5.565  16.787  0.0781  0.3242 -0.0286
12119DPPC   C3A15645  22.573   5.588  17.291  0.0413  0.1053  0.2267
12119DPPC   C4A15646  22.637   5.532  17.800 -0.1545 -0.3872  0.0714
12119DPPC   C1B15647  22.035   5.663  16.439  0.0880 -0.1302 -0.1473
12119DPPC   C2B15648  22.046   5.591  16.856  0.2821 -0.0444  0.1014
12119DPPC   C3B15649  22.062   5.613  17.323 -0.2629  0.2291 -0.1347
12119DPPC   C4B15650  22.117   5.640  17.836 -0.0261 -0.0948  0.0390
12120DPPC   NC315651   0.253   1.722  15.394  0.0007 -0.1123  0.0708
12120DPPC   PO415652   0.157   2.065  15.189 -0.1870 -0.4297 -0.2116
12120DPPC   GL115653   0.197   2.182  15.630 -0.2663  0.1142  0.2164
12120DPPC   GL215654  -0.028   2.000  15.674  0.0950  0.1233 -0.5448
12120DPPC   C1A15655   0.266   2.296  15.962 -0.0019  0.2467  0.0484
12120DPPC   C2A15656   0.356   2.337  16.403  0.1408 -0.0859  0.4883
12120DPPC   C3A15657   0.342   2.369  16.813 -0.0699 -0.1654  0.0758
12120DPPC   C4A15658   0.288   2.355  17.288 -0.0928  0.1770 -0.2262
12120DPPC   C1B15659  -0.261   2.009  16.030 -0.1499  0.1471  0.3998
12120DPPC   C2B15660  -0.458   2.125  16.343 -0.2191 -0.1015 -0.4510
12120DPPC   C3B15661  -0.459   2.105  16.804 -0.4890  0.2029 -0.2578
12120DPPC   C4B15662  -0.432   2.194  17.340  0.0508 -0.2540 -0.2148
12121DPPC   NC315663  23.414   5.129  15.470  0.1763 -0.1647 -0.0739
12121DPPC   PO415664  23.059   5.286  15.624  0.0519 -0.2244 -0.2080
12121DPPC   GL115665  23.229   5.345  16.012  0.5666 -0.1621 -0.0153
12121DPPC   GL215666  23.258   5.046  16.043  0.2364 -0.0438  0.3843
12121DPPC   C1A15667  23.076   5.396  16.359  0.1909  0.2304  0.0213
12121DPPC   C2A15668  23.105   5.462  16.732 -0.1992  0.3067  0.0588
12121DPPC   C3A15669  23.089   5.456  17.234  0.2529 -0.2915 -0.2486
12121DPPC   C4A15670  23.081   5.383  17.759  0.1181  0.1128  0.1751
12121DPPC   C1B15671  23.247   4.929  16.399 -0.0623 -0.5160 -0.0884
12121DPPC   C2B15672  23.182   4.931  16.817 -0.2362  0.0822 -0.1926
12121DPPC   C3B15673  23.177   4.974  17.272  0.1083  0.0503  0.0225
12121DPPC   C4B15674  23.240   4.912  17.735 -0.0618 -0.1397 -0.0404
12122DPPC   NC315675  21.806   2.184  15.566 -0.2285 -0.0802  0.0001
12122DPPC   PO415676  21.770   1.813  15.720  0.0081  0.0569  0.0080
12122DPPC   GL115677  21.780   1.629  16.112 -0.0014  0.1953 -0.1620
12122DPPC   GL215678  21.837   1.353  16.091 -0.5053 -0.0224 -0.0206
12122DPPC   C1A15679  21.627   1.671  16.453 -0.2235  0.1221  0.2224
12122DPPC   C2A15680  21.599   1.706  16.835 -0.0044 -0.0888  0.0138
12122DPPC   C3A15681  21.588   1.762  17.331 -0.0076 -0.0509 -0.0264
12122DPPC   C4A15682  21.574   1.767  17.784  0.0559 -0.0554 -0.1985
12122DPPC   C1B15683  22.171   1.295  16.301  0.1411 -0.3628 -0.2492
12122DPPC   C2B15684  22.323   1.036  16.645  0.1500 -0.1148 -0.1994
12122DPPC   C3B15685  22.187   1.057  17.125 -0.0191 -0.0264 -0.1413
12122DPPC   C4B15686  22.214   1.074  17.610 -0.0591 -0.1894 -0.0349
12123DPPC   NC315687  25.817   1.738  14.969 -0.2996  0.2184  0.2198
12123DPPC   PO415688  26.158   1.687  15.207  0.0852  0.6070  0.1973
12123DPPC   GL115689  26.019   1.530  15.601 -0.3354 -0.1311 -0.0450
12123DPPC   GL215690  26.307   1.541  15.657 -0.1870  0.3601  0.3230
12123DPPC   C1A15691  25.950   1.347  15.930 -0.3370 -0.3737  0.0328
12123DPPC   C2A15692  25.874   1.246  16.303  0.1062 -0.2013 -0.0880
12123DPPC   C3A15693  25.817   1.225  16.787 -0.3394 -0.1601  0.3248
12123DPPC   C4A15694  25.841   1.272  17.301 -0.0649  0.1691 -0.0911
12123DPPC   C1B15695  26.370   1.616  15.970 -0.0573  0.1045  0.2020
12123DPPC   C2B15696  26.194   1.646  16.315 -0.0427 -0.1616  0.3322
12123DPPC   C3B15697  26.186   1.602  16.790 -0.2309 -0.2355  0.2194
12123DPPC   C4B15698  26.178   1.712  17.290  0.0570  0.1370 -0.0409
12124DPPC   NC315699  25.993   1.023  15.532 -0.2499  0.0436  0.0376
12124DPPC   PO415700  26.271   0.732  15.498  0.0748  0.0129 -0.0811
12124DPPC   GL115701  26.443   0.834  15.872 -0.1038 -0.0884  0.0913
12124DPPC   GL215702  26.390   1.138  15.819  0.0199  0.3071  0.0214
12124DPPC   C1A15703  26.470   0.726  16.206 -0.3369 -0.0679  0.5789
12124DPPC   C2A15704  26.515   0.713  16.636  0.0320 -0.1817  0.1151
12124DPPC   C3A15705  26.563   0.698  17.105 -0.0076  0.1292  0.1413
12124DPPC   C4A15706  26.547   0.670  17.579 -0.0338 -0.2519  0.1704
12124DPPC   C1B15707  26.381   1.221  16.160 -0.0190  0.0890 -0.1082
12124DPPC   C2B15708  26.358   1.161  16.573  0.6303  0.1514  0.0284
12124DPPC   C3B15709  26.329   1.183  17.077  0.1290  0.0787  0.2705
12124DPPC   C4B15710  26.338   1.220  17.593  0.0169 -0.1630 -0.1392
12125DPPC   NC315711  24.370   1.038  15.154 -0.0742  0.3652 -0.1871
12125DPPC   PO415712  24.506   0.724  15.431  0.5227  0.0500  0.1246
12125DPPC   GL115713  24.543   0.788  15.795 -0.0316 -0.2157 -0.2643
12125DPPC   GL215714  24.571   1.041  15.909 -0.2406  0.0544  0.0765
12125DPPC   C1A15715  24.665   0.611  16.106 -0.1102 -0.3898 -0.2567
12125DPPC   C2A15716  24.710   0.632  16.531 -0.1798 -0.4995  0.0068
12125DPPC   C3A15717  24.671   0.620  17.002  0.0104  0.0763 -0.2086
12125DPPC   C4A15718  24.746   0.632  17.497  0.0493  0.0922 -0.2083
12125DPPC   C1B15719  24.464   1.148  16.258  0.3484 -0.0350 -0.0624
12125DPPC   C2B15720  24.536   1.161  16.646  0.0569  0.0295  0.0423
12125DPPC   C3B15721  24.546   1.095  17.113 -0.0824 -0.0433  0.1441
12125DPPC   C4B15722  24.559   1.116  17.593 -0.0225 -0.0502 -0.0954
12126DPPC   NC315723  26.177   4.370  14.816  0.1495 -0.2410  0.1548
12126DPPC   PO415724  26.061   4.564  15.166  0.0645  0.0728  0.0456
12126DPPC   GL115725  26.020   4.817  15.420  0.0873  0.1155  0.2193
12126DPPC   GL215726  25.827   4.885  15.644  0.0886  0.0584 -0.1103
12126DPPC   C1A15727  26.262   4.828  15.727  0.1203 -0.3158 -0.3350
12126DPPC   C2A15728  26.383   4.696  16.083 -0.1631 -0.1834 -0.2986
12126DPPC   C3A15729  26.478   4.595  16.576  0.3749 -0.1742  0.0107
12126DPPC   C4A15730  26.436   4.665  17.071  0.1613  0.0251  0.1503
12126DPPC   C1B15731  25.902   4.871  16.002  0.1248  0.2836 -0.3885
12126DPPC   C2B15732  26.011   4.787  16.407 -0.0920  0.1404  0.0563
12126DPPC   C3B15733  25.979   4.755  16.872  0.2624 -0.1078 -0.0635
12126DPPC   C4B15734  26.074   4.852  17.360 -0.1176 -0.0718 -0.2729
12127DPPC   NC315735  21.995   6.566  15.248 -0.2865 -0.0230  0.2249
12127DPPC   PO415736  22.274   6.576  15.535  0.0076  0.2153 -0.2463
12127DPPC   GL115737  22.463   6.864  15.781  0.1705 -0.2050  0.1875
12127DPPC   GL215738  22.678   6.629  15.866  0.1479  0.0050 -0.0285
12127DPPC   C1A15739  22.423   7.017  16.057  0.1974 -0.1659 -0.0129
12127DPPC   C2A15740  22.506   7.230  16.472 -0.1543 -0.0883  0.0594
12127DPPC   C3A15741  22.414   7.251  16.930  0.1421  0.1052 -0.0545
12127DPPC   C4A15742  22.352   7.245  17.436  0.1725 -0.0248  0.1479
12127DPPC   C1B15743  22.647   6.741  16.220  0.1090 -0.0676 -0.3241
12127DPPC   C2B15744  22.678   6.804  16.645 -0.1620  0.0724 -0.1507
12127DPPC   C3B15745  22.638   6.772  17.161  0.4372 -0.0528  0.0655
12127DPPC   C4B15746  22.578   6.765  17.655  0.1869 -0.3561 -0.0097
12128DPPC   NC315747   0.358   2.516  15.374 -0.1331 -0.0770 -0.0401
12128DPPC   PO415748  -0.053   2.530  15.483 -0.3450 -0.4327  0.1982
12128DPPC   GL115749  -0.233   2.391  15.838  0.0881 -0.2804 -0.1337
12128DPPC   GL215750  -0.497   2.538  15.723  0.1142 -0.1087  0.0821
12128DPPC   C1A15751  -0.084   2.473  16.199 -0.1409  0.0145  0.3365
12128DPPC   C2A15752  -0.160   2.477  16.597  0.1421  0.1291  0.1922
12128DPPC   C3A15753  -0.124   2.514  17.039  0.2829 -0.0252 -0.1744
12128DPPC   C4A15754  -0.071   2.515  17.546  0.0225  0.1801 -0.2045
12128DPPC   C1B15755  -0.635   2.516  16.064  0.3222 -0.2525 -0.0143
12128DPPC   C2B15756  -0.638   2.546  16.436  0.0829 -0.3220 -0.1330
12128DPPC   C3B15757  -0.672   2.514  16.893 -0.2137 -0.1813  0.3284
12128DPPC   C4B15758  -0.660   2.625  17.382 -0.1285  0.0027 -0.1571
12129DPPC   NC315759  24.715   1.203  15.513 -0.0898 -0.2107  0.1996
12129DPPC   PO415760  24.379   1.410  15.641 -0.0385  0.0387 -0.1540
12129DPPC   GL115761  24.283   1.432  16.028 -0.1386  0.0328 -0.0320
12129DPPC   GL215762  24.110   1.209  16.068  0.1226  0.1448 -0.1102
12129DPPC   C1A15763  24.442   1.656  16.346  0.2286 -0.0429 -0.0637
12129DPPC   C2A15764  24.442   1.657  16.772  0.1054  0.0319  0.2102
12129DPPC   C3A15765  24.443   1.593  17.263 -0.1560 -0.2773 -0.1915
12129DPPC   C4A15766  24.387   1.558  17.764 -0.1763  0.2722  0.0654
12129DPPC   C1B15767  24.078   1.201  16.451  0.1162 -0.1307 -0.2946
12129DPPC   C2B15768  24.121   1.197  16.876 -0.0417 -0.0773  0.2449
12129DPPC   C3B15769  24.168   1.228  17.381  0.2293  0.1213  0.0235
12129DPPC   C4B15770  24.030   1.196  17.915 -0.1055  0.0524 -0.0937
12130DPPC   NC315771  25.673   5.152  15.278 -0.0873  0.2278 -0.0307
12130DPPC   PO415772  25.288   5.163  15.259 -0.0395 -0.4479 -0.0866
12130DPPC   GL115773  25.211   5.197  15.628 -0.1011 -0.1633 -0.2995
12130DPPC   GL215774  25.387   5.054  15.725 -0.2595  0.0101  0.0152
12130DPPC   C1A15775  25.055   5.340  15.902 -0.0855 -0.3003  0.1466
12130DPPC   C2A15776  24.878   5.428  16.269 -0.0318  0.2360  0.1889
12130DPPC   C3A15777  24.861   5.452  16.688  0.3410 -0.3293 -0.0217
12130DPPC   C4A15778  24.832   5.440  17.176 -0.1898 -0.2503 -0.1885
12130DPPC   C1B15779  25.407   4.970  16.075  0.0090 -0.0482 -0.1290
12130DPPC   C2B15780  25.504   4.910  16.435  0.0950  0.2003  0.2013
12130DPPC   C3B15781  25.505   4.917  16.959 -0.1392 -0.3430  0.1798
12130DPPC   C4B15782  25.434   4.969  17.420 -0.0588 -0.2752  0.2003
12131DPPC   NC315783  23.945   0.773  15.135 -0.0573 -0.1038 -0.0293
12131DPPC   PO415784  24.125   0.467  15.120 -0.1481 -0.2516  0.3465
12131DPPC   GL115785  24.102   0.509  15.545 -0.2696 -0.0892  0.1388
12131DPPC   GL215786  24.229   0.281  15.611 -0.3384  0.0517 -0.1663
12131DPPC   C1A15787  24.081   0.617  15.928  0.0691  0.1422  0.2016
12131DPPC   C2A15788  24.209   0.716  16.324 -0.3794 -0.0892  0.0174
12131DPPC   C3A15789  24.226   0.730  16.811 -0.3511 -0.0540 -0.0963
12131DPPC   C4A15790  24.251   0.709  17.288  0.4402 -0.1043  0.0489
12131DPPC   C1B15791  24.383   0.307  15.923 -0.2655 -0.0760  0.0661
12131DPPC   C2B15792  24.342   0.238  16.326 -0.0208 -0.0653 -0.0433
12131DPPC   C3B15793  24.409   0.226  16.809 -0.3061  0.2068 -0.2392
12131DPPC   C4B15794  24.431   0.264  17.317  0.2256 -0.0488  0.1900
12132DPPC   NC315795  22.646   3.199  15.197 -0.3577  0.0040  0.2139
12132DPPC   PO415796  22.691   3.529  15.376  0.1900 -0.0744  0.1798
12132DPPC   GL115797  22.697   3.636  15.780  0.0950  0.0045 -0.1599
12132DPPC   GL215798  22.526   3.778  15.800 -0.2559 -0.0687  0.2023
12132DPPC   C1A15799  22.820   3.546  16.144 -0.0334 -0.3100 -0.2466
12132DPPC   C2A15800  22.764   3.725  16.493  0.0055  0.1179 -0.0089
12132DPPC   C3A15801  22.678   3.838  16.954 -0.0429 -0.2455  0.0279
12132DPPC   C4A15802  22.686   3.711  17.419  0.0634  0.2685  0.2301
12132DPPC   C1B15803  22.573   3.971  16.084 -0.4543  0.3332  0.4499
12132DPPC   C2B15804  22.596   4.227  16.376  0.0790 -0.0440  0.2852
12132DPPC   C3B15805  22.552   4.282  16.873  0.1140  0.1362 -0.2361
12132DPPC   C4B15806  22.463   4.194  17.355 -0.0606 -0.3811 -0.1142
12133DPPC   NC315807   1.152   3.535  15.666 -0.0592  0.1624  0.1734
12133DPPC   PO415808   1.363   3.863  15.667  0.0372 -0.2179 -0.0192
12133DPPC   GL115809   1.778   3.779  15.929  0.1500  0.1237 -0.1145
12133DPPC   GL215810   1.824   4.045  15.881  0.0675  0.0598 -0.1278
12133DPPC   C1A15811   1.758   3.807  16.287  0.0839 -0.0016 -0.1599
12133DPPC   C2A15812   1.824   3.842  16.719  0.0720 -0.1295 -0.2196
12133DPPC   C3A15813   1.694   3.865  17.194  0.0598  0.1069 -0.5240
12133DPPC   C4A15814   1.606   3.763  17.708 -0.2288  0.1709  0.1226
12133DPPC   C1B15815   1.993   4.176  16.114 -0.1948  0.0895  0.2583
12133DPPC   C2B15816   2.146   4.154  16.470 -0.0814  0.0660 -0.4183
12133DPPC   C3B15817   2.092   4.190  16.941 -0.4105 -0.1409 -0.0092
12133DPPC   C4B15818   2.077   4.233  17.416  0.1372 -0.0572 -0.3559
12134DPPC   NC315819  22.010   4.712  15.423 -0.0268 -0.0960 -0.1912
12134DPPC   PO415820  22.107   4.328  15.448 -0.0037 -0.2660  0.1987
12134DPPC   GL115821  22.149   4.391  15.809 -0.2185  0.4038 -0.0004
12134DPPC   GL215822  22.174   4.140  15.902  0.2621  0.3108  0.0702
12134DPPC   C1A15823  22.051   4.633  16.068 -0.2735 -0.0230  0.1993
12134DPPC   C2A15824  21.964   4.707  16.388  0.1505 -0.4077  0.0394
12134DPPC   C3A15825  21.934   4.763  16.898  0.0820  0.0374  0.1611
12134DPPC   C4A15826  21.924   4.858  17.398  0.2306 -0.1194 -0.0878
12134DPPC   C1B15827  22.174   4.223  16.209 -0.2235  0.0812  0.3321
12134DPPC   C2B15828  22.119   4.256  16.630  0.0076  0.1060 -0.1775
12134DPPC   C3B15829  22.059   4.224  17.114  0.0111 -0.1987 -0.0608
12134DPPC   C4B15830  21.993   4.281  17.629  0.0621  0.0291 -0.2118
12135DPPC   NC315831  21.901   5.570  15.691  0.1059 -0.1625  0.0703
12135DPPC   PO415832  21.598   5.793  15.537  0.1260 -0.1370  0.0784
12135DPPC   GL115833  21.577   5.875  16.000 -0.3038 -0.0545 -0.0193
12135DPPC   GL215834  21.285   5.760  15.987 -0.0623 -0.0035 -0.1398
12135DPPC   C1A15835  21.783   6.009  16.273 -0.4475 -0.1799 -0.3229
12135DPPC   C2A15836  21.836   6.144  16.665 -0.2502  0.0605  0.1204
12135DPPC   C3A15837  21.806   6.136  17.136 -0.2772 -0.1501  0.0064
12135DPPC   C4A15838  21.889   6.125  17.654 -0.0770  0.0187  0.0918
12135DPPC   C1B15839  21.094   5.773  16.354  0.4998 -0.0293  0.1054
12135DPPC   C2B15840  21.065   5.840  16.741  0.0103 -0.0155 -0.1206
12135DPPC   C3B15841  21.092   5.843  17.241 -0.0506  0.2378  0.2368
12135DPPC   C4B15842  21.014   5.866  17.716  0.2756  0.1116 -0.0145
12136DPPC   NC315843  19.947   5.903  15.052  0.0594  0.2066  0.0426
12136DPPC   PO415844  20.302   5.821  15.252 -0.0201 -0.0958 -0.0918
12136DPPC   GL115845  20.332   5.896  15.700 -0.2103  0.0241 -0.2176
12136DPPC   GL215846  20.119   5.743  15.746 -0.1210  0.1639 -0.0841
12136DPPC   C1A15847  20.377   6.098  16.059 -0.2818 -0.2497 -0.3038
12136DPPC   C2A15848  20.370   6.277  16.386 -0.1143 -0.0638 -0.4416
12136DPPC   C3A15849  20.422   6.410  16.810 -0.0284 -0.0506  0.3337
12136DPPC   C4A15850  20.393   6.462  17.324 -0.0775  0.3477  0.1008
12136DPPC   C1B15851  20.219   5.662  16.104  0.1499  0.2650  0.2594
12136DPPC   C2B15852  20.312   5.522  16.491 -0.1450 -0.4762  0.2335
12136DPPC   C3B15853  20.202   5.536  16.981  0.0533  0.2298  0.2132
12136DPPC   C4B15854  20.254   5.555  17.483 -0.0700 -0.2047  0.1295
12137DPPC   NC315855  22.168   1.525  15.829  0.0109  0.2959  0.1674
12137DPPC   PO415856  22.420   1.218  15.642  0.1292 -0.1301  0.3055
12137DPPC   GL115857  22.400   1.108  16.022 -0.4510  0.1848 -0.4717
12137DPPC   GL215858  22.725   0.995  15.940  0.4881  0.0706  0.2696
12137DPPC   C1A15859  22.179   0.855  16.224  0.1084  0.3114  0.4209
12137DPPC   C2A15860  21.938   0.681  16.446  0.0476 -0.1916 -0.1552
12137DPPC   C3A15861  21.869   0.668  16.895  0.1841  0.0614 -0.1850
12137DPPC   C4A15862  21.896   0.716  17.385  0.0952 -0.3765 -0.0577
12137DPPC   C1B15863  22.879   1.037  16.257  0.4066 -0.1413 -0.0490
12137DPPC   C2B15864  22.795   0.950  16.673 -0.2535 -0.2839 -0.0768
12137DPPC   C3B15865  22.725   0.986  17.129  0.0767  0.0906  0.1493
12137DPPC   C4B15866  22.710   0.944  17.616 -0.1325 -0.3315 -0.0138
12138DPPC   NC315867  22.792   0.107  15.423  0.3366 -0.3774 -0.0402
12138DPPC   PO415868  22.731  -0.275  15.465  0.1475 -0.0030  0.0455
12138DPPC   GL115869  22.480  -0.377  15.779 -0.0023  0.2337  0.2802
12138DPPC   GL215870  22.474  -0.633  15.831  0.2243  0.0236 -0.4381
12138DPPC   C1A15871  22.426  -0.213  16.107  0.1591  0.0719 -0.0837
12138DPPC   C2A15872  22.292  -0.177  16.444 -0.2833 -0.3187  0.0852
12138DPPC   C3A15873  22.224  -0.166  16.932 -0.0219  0.0000  0.0449
12138DPPC   C4A15874  22.285  -0.144  17.454  0.2390 -0.1799  0.2961
12138DPPC   C1B15875  22.608  -0.731  16.154  0.1294  0.2530 -0.2573
12138DPPC   C2B15876  22.837  -0.799  16.485 -0.0260  0.1337  0.0235
12138DPPC   C3B15877  22.909  -0.758  16.971  0.0648 -0.0018  0.1427
12138DPPC   C4B15878  22.878  -0.744  17.491  0.3205 -0.3387  0.0599
12139DPPC   NC315879  21.277   0.625  15.209  0.1485 -0.4819  0.2457
12139DPPC   PO415880  21.296   0.958  15.464 -0.0026  0.1085 -0.3304
12139DPPC   GL115881  21.445   1.105  15.846  0.0202 -0.0869 -0.0472
12139DPPC   GL215882  21.399   0.867  15.928 -0.1494 -0.2430  0.2667
12139DPPC   C1A15883  21.417   1.314  16.164  0.2301 -0.1859 -0.0838
12139DPPC   C2A15884  21.302   1.339  16.562  0.2562 -0.0028 -0.0630
12139DPPC   C3A15885  21.264   1.390  17.049 -0.0898 -0.1477  0.2963
12139DPPC   C4A15886  21.243   1.365  17.540  0.2449  0.0098  0.3366
12139DPPC   C1B15887  21.388   0.865  16.308 -0.1683 -0.1802 -0.1981
12139DPPC   C2B15888  21.396   0.902  16.702 -0.1934 -0.0237  0.3987
12139DPPC   C3B15889  21.400   0.868  17.124 -0.1308 -0.1261 -0.2108
12139DPPC   C4B15890  21.368   0.893  17.626 -0.2051 -0.1525  0.1349
12140DPPC   NC315891  25.372   0.641  15.263  0.0289  0.1192  0.3423
12140DPPC   PO415892  25.474   0.981  15.478  0.2269 -0.0586 -0.0057
12140DPPC   GL115893  25.533   1.003  15.860 -0.3058 -0.4476  0.2857
12140DPPC   GL215894  25.836   0.923  15.934 -0.2847 -0.1565 -0.0608
12140DPPC   C1A15895  25.419   0.949  16.183 -0.2217 -0.0604  0.6192
12140DPPC   C2A15896  25.498   0.923  16.596 -0.1829 -0.0798  0.1271
12140DPPC   C3A15897  25.524   0.856  17.092  0.0822  0.0140 -0.0052
12140DPPC   C4A15898  25.573   0.871  17.558  0.0736  0.2687  0.0983
12140DPPC   C1B15899  25.992   0.788  16.195 -0.1595  0.1494  0.1798
12140DPPC   C2B15900  26.013   0.800  16.603  0.0383  0.4253  0.1515
12140DPPC   C3B15901  25.987   0.802  17.066 -0.0195 -0.2564  0.0244
12140DPPC   C4B15902  26.054   0.819  17.574  0.2616 -0.2412  0.1386
12141DPPC   NC315903  22.456   2.564  15.879 -0.0581 -0.0846 -0.1179
12141DPPC   PO415904  22.319   2.283  15.619  0.1645  0.1312 -0.1559
12141DPPC   GL115905  22.161   1.951  15.940  0.2639 -0.1938  0.0268
12141DPPC   GL215906  22.260   2.222  16.086  0.1407 -0.4153 -0.0081
12141DPPC   C1A15907  22.148   1.749  16.275  0.0077 -0.0297 -0.3027
12141DPPC   C2A15908  22.070   1.585  16.649  0.0676 -0.1906 -0.1125
12141DPPC   C3A15909  22.151   1.568  17.111 -0.1140  0.1014 -0.0335
12141DPPC   C4A15910  22.087   1.554  17.622  0.0860  0.2238  0.0297
12141DPPC   C1B15911  22.425   2.084  16.385 -0.1369 -0.0916 -0.0257
12141DPPC   C2B15912  22.426   1.974  16.747 -0.2625 -0.0907 -0.0731
12141DPPC   C3B15913  22.469   1.944  17.198  0.0169 -0.0546  0.0173
12141DPPC   C4B15914  22.401   1.917  17.709  0.0876 -0.3036 -0.0943
12142DPPC   NC315915   0.281   0.076  14.978  0.4095 -0.4102 -0.0625
12142DPPC   PO415916   0.308   0.376  15.207 -0.0593 -0.0185  0.0144
12142DPPC   GL115917   0.144   0.429  15.654 -0.1378  0.2630 -0.1802
12142DPPC   GL215918   0.301   0.660  15.530 -0.2901 -0.0721 -0.1165
12142DPPC   C1A15919   0.246   0.285  15.953  0.1105  0.2442 -0.2056
12142DPPC   C2A15920   0.296   0.174  16.358 -0.0885 -0.1561  0.1440
12142DPPC   C3A15921   0.254   0.272  16.818  0.0928  0.4569 -0.1839
12142DPPC   C4A15922   0.272   0.232  17.275 -0.1418 -0.0087 -0.0451
12142DPPC   C1B15923   0.596   0.501  15.756  0.1024 -0.0591  0.2010
12142DPPC   C2B15924   0.612   0.567  16.156  0.1917 -0.1171  0.0829
12142DPPC   C3B15925   0.609   0.602  16.657  0.0895  0.2279  0.1086
12142DPPC   C4B15926   0.595   0.580  17.164  0.0615 -0.0207  0.1563
12143DPPC   NC315927  21.231   3.164  15.163 -0.2377  0.1664 -0.1723
12143DPPC   PO415928  21.058   2.887  15.379 -0.1948 -0.1604  0.1290
12143DPPC   GL115929  21.057   2.974  15.759  0.2693 -0.2325 -0.2558
12143DPPC   GL215930  21.292   2.957  15.877  0.0281  0.1364  0.0379
12143DPPC   C1A15931  20.827   3.127  16.027  0.1751  0.2128 -0.2091
12143DPPC   C2A15932  20.711   3.283  16.399  0.3965  0.0957  0.0961
12143DPPC   C3A15933  20.591   3.277  16.861 -0.3030  0.3409 -0.1980
12143DPPC   C4A15934  20.582   3.206  17.357 -0.1735  0.1934  0.0660
12143DPPC   C1B15935  21.133   2.805  16.148 -0.2669  0.2925 -0.0525
12143DPPC   C2B15936  21.253   2.679  16.494 -0.0268 -0.3737 -0.1520
12143DPPC   C3B15937  21.226   2.644  16.985 -0.0191 -0.1229 -0.0915
12143DPPC   C4B15938  21.185   2.621  17.489 -0.1515 -0.1527 -0.1574
12144DPPC   NC315939  24.655   3.974  15.049  0.0171 -0.0380 -0.1076
12144DPPC   PO415940  24.938   4.144  15.260 -0.0847 -0.2978  0.0746
12144DPPC   GL115941  24.967   4.292  15.678 -0.4036 -0.5113  0.3209
12144DPPC   GL215942  24.932   3.986  15.683  0.2425 -0.0386 -0.4066
12144DPPC   C1A15943  24.825   4.406  16.024 -0.0292  0.0266 -0.1638
12144DPPC   C2A15944  24.674   4.679  16.349 -0.0914  0.1548  0.0452
12144DPPC   C3A15945  24.573   4.670  16.828 -0.3945  0.3753  0.4667
12144DPPC   C4A15946  24.636   4.643  17.267  0.0669 -0.0537 -0.1652
12144DPPC   C1B15947  24.902   3.999  16.079  0.3535 -0.0074 -0.0070
12144DPPC   C2B15948  24.837   4.188  16.463 -0.0216  0.1082  0.5559
12144DPPC   C3B15949  24.817   4.206  16.922  0.1477 -0.1086 -0.3888
12144DPPC   C4B15950  24.862   4.242  17.436  0.2838 -0.1642 -0.2142
12145DPPC   NC315951  26.287   4.328  15.725 -0.0303 -0.0438  0.2524
12145DPPC   PO415952  25.906   4.291  15.581 -0.0525  0.1091  0.0617
12145DPPC   GL115953  25.979   4.137  15.954 -0.2032  0.0145 -0.2538
12145DPPC   GL215954  26.040   4.384  16.114  0.2015 -0.0773 -0.0282
12145DPPC   C1A15955  25.785   3.930  16.196  0.0855 -0.0296 -0.0599
12145DPPC   C2A15956  25.710   3.870  16.618 -0.0545 -0.2046  0.0811
12145DPPC   C3A15957  25.763   3.989  17.096 -0.0722  0.4142 -0.3991
12145DPPC   C4A15958  25.806   4.119  17.618  0.2213 -0.1348  0.0272
12145DPPC   C1B15959  26.169   4.316  16.440 -0.0953  0.1751 -0.0078
12145DPPC   C2B15960  26.121   4.303  16.832  0.0879 -0.1369 -0.2282
12145DPPC   C3B15961  26.087   4.371  17.265 -0.3097  0.1244 -0.0309
12145DPPC   C4B15962  26.415   4.649  17.582 -0.0799  0.3039  0.1004
12146DPPC   NC315963  22.634   0.984  15.231  0.1520  0.0681  0.0783
12146DPPC   PO415964  22.936   1.087  15.480 -0.3545  0.3476  0.1924
12146DPPC   GL115965  22.882   1.458  15.718 -0.1550  0.2345 -0.1574
12146DPPC   GL215966  23.166   1.437  15.823 -0.0227 -0.3233  0.3659
12146DPPC   C1A15967  22.736   1.489  16.059 -0.3977  0.2099  0.0356
12146DPPC   C2A15968  22.617   1.416  16.392 -0.0165 -0.1447  0.0892
12146DPPC   C3A15969  22.588   1.459  16.859 -0.0432  0.3700  0.1110
12146DPPC   C4A15970  22.591   1.506  17.377  0.0298  0.0934  0.1718
12146DPPC   C1B15971  23.143   1.402  16.197 -0.1501  0.5173 -0.0284
12146DPPC   C2B15972  23.119   1.380  16.577 -0.1208 -0.0606 -0.2518
12146DPPC   C3B15973  23.189   1.376  17.046  0.0367  0.1959  0.1124
12146DPPC   C4B15974  23.148   1.359  17.523  0.0047 -0.0982 -0.1226
12147DPPC   NC315975  24.465   1.942  15.487  0.1320 -0.3288 -0.2262
12147DPPC   PO415976  24.321   1.885  15.813 -0.2492  0.1150 -0.0803
12147DPPC   GL115977  24.188   2.064  16.131  0.0987 -0.1617 -0.0091
12147DPPC   GL215978  24.068   2.308  16.061 -0.3886 -0.2362 -0.1159
12147DPPC   C1A15979  24.259   2.066  16.478 -0.1200  0.2289  0.0193
12147DPPC   C2A15980  24.268   2.098  16.906  0.1251  0.2367 -0.0760
12147DPPC   C3A15981  24.165   2.015  17.395  0.0244 -0.2078 -0.0882
12147DPPC   C4A15982  24.279   2.040  17.834  0.1143 -0.0248 -0.2519
12147DPPC   C1B15983  24.035   2.452  16.392  0.4298 -0.0361 -0.1212
12147DPPC   C2B15984  24.038   2.554  16.766  0.0056  0.0432 -0.2911
12147DPPC   C3B15985  24.081   2.506  17.257 -0.1064  0.1616  0.0072
12147DPPC   C4B15986  24.028   2.555  17.770  0.0343  0.1427 -0.2497
12148DPPC   NC315987  23.378   3.359  15.740 -0.1255 -0.0971 -0.1669
12148DPPC   PO415988  23.006   3.205  15.782 -0.1496  0.0515 -0.3056
12148DPPC   GL115989  22.860   3.127  16.060  0.2292  0.2254  0.1149
12148DPPC   GL215990  22.646   2.958  16.097 -0.0022 -0.1696  0.1912
12148DPPC   C1A15991  23.039   3.187  16.413 -0.2873 -0.0274 -0.1737
12148DPPC   C2A15992  22.926   3.196  16.819 -0.1289  0.1373 -0.0209
12148DPPC   C3A15993  22.878   3.209  17.330  0.1484 -0.3160  0.2676
12148DPPC   C4A15994  22.808   3.281  17.802 -0.3658 -0.0056  0.0939
12148DPPC   C1B15995  22.680   2.840  16.435 -0.2428 -0.2812  0.2990
12148DPPC   C2B15996  22.548   2.799  16.794  0.0865 -0.0046  0.2722
12148DPPC   C3B15997  22.545   2.789  17.237  0.2635 -0.2219  0.0147
12148DPPC   C4B15998  22.468   2.910  17.697  0.1198  0.1445  0.1878
12149DPPC   NC315999  21.374   2.568  15.600  0.1614 -0.0937 -0.1289
12149DPPC   PO416000  21.656   2.867  15.624 -0.3328  0.0014 -0.2685
12149DPPC   GL116001  21.654   2.898  16.065  0.0579 -0.0508  0.0274
12149DPPC   GL216002  21.530   2.606  16.076 -0.0484 -0.0838 -0.1399
12149DPPC   C1A16003  21.479   3.011  16.366 -0.3842  0.1696  0.3698
12149DPPC   C2A16004  21.636   3.015  16.747 -0.0695  0.2035  0.2070
12149DPPC   C3A16005  21.553   3.003  17.224 -0.0323 -0.0732 -0.4401
12149DPPC   C4A16006  21.536   3.026  17.705 -0.1061  0.0825  0.0417
12149DPPC   C1B16007  21.668   2.471  16.375 -0.0324  0.3858  0.0139
12149DPPC   C2B16008  21.728   2.449  16.789 -0.1121 -0.2780 -0.1085
12149DPPC   C3B16009  21.781   2.466  17.270  0.3111  0.0459 -0.1090
12149DPPC   C4B16010  21.732   2.451  17.713 -0.1288 -0.1853  0.0959
12150DPPC   NC316011  23.278   2.385  15.309 -0.3560  0.1355 -0.0352
12150DPPC   PO416012  23.507   2.064  15.453 -0.0090  0.1321 -0.0096
12150DPPC   GL116013  23.690   2.131  15.838  0.0480 -0.1479 -0.2434
12150DPPC   GL216014  23.867   1.862  15.872  0.2665 -0.1140 -0.2377
12150DPPC   C1A16015  23.678   2.130  16.198 -0.3069  0.1044 -0.0935
12150DPPC   C2A16016  23.716   2.134  16.576  0.0967 -0.1387  0.1273
12150DPPC   C3A16017  23.763   2.147  17.056  0.1304  0.0959 -0.2149
12150DPPC   C4A16018  23.721   2.150  17.560 -0.1807  0.2271 -0.0998
12150DPPC   C1B16019  23.919   1.727  16.208  0.0999  0.2645 -0.0159
12150DPPC   C2B16020  23.939   1.667  16.590  0.1394  0.0066  0.1028
12150DPPC   C3B16021  23.903   1.685  17.077  0.0397 -0.2062  0.1098
12150DPPC   C4B16022  23.898   1.697  17.606 -0.2208  0.1451  0.2156
12151DPPC   NC316023   0.852   5.970  14.776 -0.1151  0.3468  0.1144
12151DPPC   PO416024   0.759   5.936  15.206  0.0445  0.0862 -0.6209
12151DPPC   GL116025   0.831   5.721  15.499  0.1716  0.0255  0.2249
12151DPPC   GL216026   0.551   5.746  15.523  0.1074 -0.1821 -0.3683
12151DPPC   C1A16027   0.888   5.854  15.837  0.0821  0.2486 -0.8076
12151DPPC   C2A16028   0.675   5.907  16.177  0.0777 -0.1898  0.4373
12151DPPC   C3A16029   0.547   5.857  16.600 -0.3569  0.0551 -0.1028
12151DPPC   C4A16030   0.591   5.822  17.124  0.1667 -0.3262 -0.2079
12151DPPC   C1B16031   0.396   5.670  15.844  0.2472 -0.0057  0.3681
12151DPPC   C2B16032   0.221   5.609  16.224 -0.0953 -0.1456 -0.0332
12151DPPC   C3B16033   0.152   5.495  16.650 -0.0013  0.2659  0.0996
12151DPPC   C4B16034   0.260   5.468  17.134 -0.0051  0.2277  0.1993
12152DPPC   NC316035  26.057   2.180  15.469  0.2961 -0.1438 -0.1319
12152DPPC   PO416036  25.766   1.938  15.469 -0.1007  0.1229  0.3154
12152DPPC   GL116037  25.825   1.902  15.812 -0.0401  0.0230 -0.1290
12152DPPC   GL216038  25.672   2.165  15.887 -0.0188 -0.1469 -0.0304
12152DPPC   C1A16039  25.723   1.786  16.153  0.3355 -0.0863  0.0330
12152DPPC   C2A16040  25.697   1.660  16.516 -0.3191 -0.1342 -0.0070
12152DPPC   C3A16041  25.660   1.746  16.989 -0.0104  0.2310 -0.2255
12152DPPC   C4A16042  25.666   1.772  17.472 -0.3672 -0.0816  0.0531
12152DPPC   C1B16043  25.496   2.176  16.202 -0.2110  0.0323  0.0499
12152DPPC   C2B16044  25.527   2.141  16.614 -0.0551 -0.1403  0.0945
12152DPPC   C3B16045  25.446   2.170  17.096 -0.0155 -0.1133  0.2854
12152DPPC   C4B16046  25.438   2.179  17.548 -0.0791  0.0070  0.0635
12153DPPC   NC316047  20.201   3.310  15.237  0.1928  0.0413 -0.0073
12153DPPC   PO416048  20.199   2.972  15.408  0.1209  0.1857 -0.1315
12153DPPC   GL116049  20.306   2.767  15.774 -0.1059 -0.2131 -0.2359
12153DPPC   GL216050  20.376   2.531  15.779  0.3630  0.1601 -0.1324
12153DPPC   C1A16051  20.210   2.912  16.115 -0.0227  0.2572 -0.0350
12153DPPC   C2A16052  20.178   2.924  16.489 -0.0357  0.2208 -0.0401
12153DPPC   C3A16053  20.208   2.901  16.920 -0.0055  0.2137 -0.2957
12153DPPC   C4A16054  20.152   2.899  17.422 -0.1305 -0.1469  0.0602
12153DPPC   C1B16055  20.314   2.499  16.161  0.2318 -0.2479 -0.0199
12153DPPC   C2B16056  20.384   2.494  16.579  0.1109  0.2315 -0.2620
12153DPPC   C3B16057  20.418   2.369  17.006 -0.0109 -0.1085 -0.1239
12153DPPC   C4B16058  20.306   2.351  17.458  0.0466  0.4251 -0.1378
12154DPPC   NC316059   0.846   0.301  15.485 -0.0452  0.1065  0.4309
12154DPPC   PO416060   0.631  -0.021  15.398  0.5783 -0.3059  0.2013
12154DPPC   GL116061   0.495  -0.395  15.634  0.0126 -0.1227  0.2564
12154DPPC   GL216062   0.863  -0.367  15.576  0.0480  0.1998 -0.2968
12154DPPC   C1A16063   0.399  -0.260  15.969 -0.2966 -0.1357 -0.3437
12154DPPC   C2A16064   0.373  -0.325  16.347 -0.0578 -0.0479 -0.0900
12154DPPC   C3A16065   0.414  -0.350  16.866 -0.3605  0.1736 -0.1041
12154DPPC   C4A16066   0.390  -0.322  17.349  0.0854  0.0202  0.0833
12154DPPC   C1B16067   0.879  -0.335  15.942 -0.0479  0.1018  0.1142
12154DPPC   C2B16068   0.902  -0.335  16.376 -0.2675  0.1150  0.0391
12154DPPC   C3B16069   0.892  -0.440  16.842 -0.0121  0.0967 -0.0491
12154DPPC   C4B16070   0.906  -0.435  17.350  0.0773  0.0578  0.0395
12155DPPC   NC316071  25.854   3.620  15.127  0.1461 -0.1250  0.0681
12155DPPC   PO416072  25.491   3.571  15.218 -0.2733  0.2969 -0.0068
12155DPPC   GL116073  25.286   3.722  15.591  0.0381 -0.0152  0.2664
12155DPPC   GL216074  25.269   3.414  15.659 -0.0756  0.3459  0.0060
12155DPPC   C1A16075  25.332   3.976  15.865 -0.0341  0.0077 -0.0484
12155DPPC   C2A16076  25.369   3.987  16.281 -0.1075 -0.0157 -0.0775
12155DPPC   C3A16077  25.285   4.054  16.781 -0.2831 -0.0699  0.0868
12155DPPC   C4A16078  25.307   4.108  17.261  0.1073  0.0262 -0.4312
12155DPPC   C1B16079  25.164   3.474  16.011  0.0680 -0.6236  0.2456
12155DPPC   C2B16080  25.006   3.672  16.297  0.0831  0.3457 -0.3133
12155DPPC   C3B16081  24.922   3.705  16.741 -0.2063 -0.2576 -0.0967
12155DPPC   C4B16082  24.900   3.804  17.221 -0.1508  0.1899 -0.0257
12156DPPC   NC316083  20.614   2.645  15.342 -0.2018  0.1225 -0.0031
12156DPPC   PO416084  20.871   2.465  15.610 -0.1358  0.0073  0.0217
12156DPPC   GL116085  20.751   2.716  15.966 -0.1254 -0.1956 -0.3048
12156DPPC   GL216086  20.866   2.455  16.044 -0.2529  0.1282 -0.0862
12156DPPC   C1A16087  20.697   2.802  16.296  0.0735  0.2599 -0.2948
12156DPPC   C2A16088  20.754   2.858  16.669 -0.1425 -0.1264  0.0521
12156DPPC   C3A16089  20.716   2.750  17.152 -0.1029  0.0549  0.2679
12156DPPC   C4A16090  20.728   2.805  17.647 -0.1021  0.3620  0.0587
12156DPPC   C1B16091  20.862   2.363  16.409 -0.1255  0.1579 -0.1568
12156DPPC   C2B16092  20.911   2.292  16.786  0.0129  0.0831  0.2572
12156DPPC   C3B16093  20.951   2.282  17.271  0.1839  0.1470  0.2738
12156DPPC   C4B16094  20.907   2.214  17.733 -0.1535 -0.1496 -0.1446
12157DPPC   NC316095  20.337   1.170  15.409 -0.0509  0.0783 -0.1699
12157DPPC   PO416096  20.536   1.449  15.607 -0.1476  0.2218  0.2829
12157DPPC   GL116097  20.373   1.598  15.921 -0.1687  0.0749 -0.2030
12157DPPC   GL216098  20.305   1.328  16.041 -0.0198  0.0385 -0.2813
12157DPPC   C1A16099  20.415   1.874  16.143  0.0464 -0.1124 -0.2103
12157DPPC   C2A16100  20.569   2.013  16.458 -0.2610 -0.0265 -0.2241
12157DPPC   C3A16101  20.550   1.880  16.970  0.1296  0.2025  0.1096
12157DPPC   C4A16102  20.570   1.901  17.445 -0.0556  0.1528  0.3587
12157DPPC   C1B16103  20.193   1.443  16.390  0.0765  0.0487 -0.4537
12157DPPC   C2B16104  20.185   1.512  16.806  0.0382  0.0379  0.0758
12157DPPC   C3B16105  20.326   1.519  17.259  0.0293  0.1627  0.0423
12157DPPC   C4B16106  20.231   1.534  17.731 -0.0790 -0.0888  0.0209
12158DPPC   NC316107  24.515   3.446  15.043  0.1174  0.0117 -0.2172
12158DPPC   PO416108  24.791   3.258  15.277 -0.0381  0.3278 -0.0615
12158DPPC   GL116109  24.825   3.393  15.712  0.1662 -0.2836 -0.1389
12158DPPC   GL216110  24.564   3.176  15.756  0.1531 -0.2688  0.0712
12158DPPC   C1A16111  24.665   3.635  15.961 -0.2397  0.0861  0.1844
12158DPPC   C2A16112  24.507   3.806  16.352 -0.2319  0.2110  0.0629
12158DPPC   C3A16113  24.456   3.742  16.833 -0.0411 -0.0302 -0.1059
12158DPPC   C4A16114  24.385   3.755  17.313 -0.1723  0.1432  0.1300
12158DPPC   C1B16115  24.731   3.217  16.128  0.1815  0.1522  0.3054
12158DPPC   C2B16116  24.672   3.265  16.518 -0.1045 -0.2301  0.1587
12158DPPC   C3B16117  24.743   3.346  16.994 -0.0759  0.2500 -0.1128
12158DPPC   C4B16118  24.622   3.343  17.450 -0.1176  0.0517  0.1636
12159DPPC   NC316119  20.964   6.513  14.990  0.1115  0.2756  0.0238
12159DPPC   PO416120  21.076   6.643  15.368  0.2251  0.2687 -0.0351
12159DPPC   GL116121  21.165   6.384  15.705  0.4552  0.0363 -0.1491
12159DPPC   GL216122  21.081   6.738  15.814 -0.0675  0.1839 -0.2903
12159DPPC   C1A16123  21.318   6.234  16.027 -0.2284 -0.1358  0.2239
12159DPPC   C2A16124  21.330   6.138  16.434  0.1255 -0.1002  0.0751
12159DPPC   C3A16125  21.361   6.142  16.922  0.0512  0.0630 -0.0321
12159DPPC   C4A16126  21.423   6.223  17.435 -0.0729 -0.4686  0.0309
12159DPPC   C1B16127  20.901   6.728  16.164 -0.4919  0.0033  0.0872
12159DPPC   C2B16128  20.781   6.769  16.592  0.1124 -0.1208 -0.1080
12159DPPC   C3B16129  20.741   6.803  17.065  0.1085 -0.0566 -0.0585
12159DPPC   C4B16130  20.717   6.766  17.574  0.0339 -0.0083  0.0010
12160DPPC   NC316131  21.277   3.712  15.807 -0.2258  0.0241  0.1798
12160DPPC   PO416132  21.665   3.802  15.833 -0.0405 -0.0690 -0.1315
12160DPPC   GL116133  21.758   3.918  16.208  0.2694  0.0842  0.3339
12160DPPC   GL216134  21.546   3.659  16.264  0.0978  0.3220 -0.2667
12160DPPC   C1A16135  21.743   3.936  16.572  0.2800 -0.2629  0.0818
12160DPPC   C2A16136  21.749   3.889  17.010 -0.0743  0.0432 -0.0593
12160DPPC   C3A16137  21.765   3.882  17.467  0.1887 -0.1892  0.1078
12160DPPC   C4A16138  21.660   3.871  17.971  0.2244  0.4076  0.2921
12160DPPC   C1B16139  21.466   3.548  16.578  0.0652  0.3925  0.0575
12160DPPC   C2B16140  21.374   3.499  16.978 -0.1957  0.0171 -0.0283
12160DPPC   C3B16141  21.392   3.560  17.496 -0.0816 -0.0655 -0.4072
12160DPPC   C4B16142  21.465   3.433  17.969  0.1183  0.1855 -0.1236
12161DPPC   NC316143  22.619   4.273  15.615 -0.2593  0.2807  0.0538
12161DPPC   PO416144  22.464   4.663  15.606 -0.2181  0.3854  0.3545
12161DPPC   GL116145  22.522   4.884  15.972  0.0611  0.2599  0.1450
12161DPPC   GL216146  22.559   4.597  16.076  0.4691 -0.1047  0.0692
12161DPPC   C1A16147  22.320   5.068  16.229  0.0071 -0.0554  0.1442
12161DPPC   C2A16148  22.140   5.143  16.604  0.0535 -0.1086 -0.1444
12161DPPC   C3A16149  22.197   5.144  17.043  0.2217  0.2755 -0.0110
12161DPPC   C4A16150  22.273   5.167  17.552  0.3425 -0.0824 -0.1498
12161DPPC   C1B16151  22.425   4.673  16.401 -0.2010 -0.1122 -0.1802
12161DPPC   C2B16152  22.400   4.736  16.795 -0.0451  0.0078 -0.2448
12161DPPC   C3B16153  22.368   4.684  17.267  0.0159 -0.4580 -0.1986
12161DPPC   C4B16154  22.298   4.678  17.714 -0.0241  0.1610 -0.0011
12162DPPC   NC316155  23.433   4.190  15.626 -0.1361  0.1194 -0.1442
12162DPPC   PO416156  23.096   4.337  15.516 -0.0484  0.0811 -0.2379
12162DPPC   GL116157  22.920   4.479  15.888  0.1574  0.0373  0.0985
12162DPPC   GL216158  22.888   4.795  15.832  0.1749 -0.1543  0.2949
12162DPPC   C1A16159  22.939   4.438  16.233 -0.3326 -0.2939 -0.2932
12162DPPC   C2A16160  22.943   4.593  16.614  0.0645 -0.0082  0.0053
12162DPPC   C3A16161  22.809   4.649  17.066  0.3664  0.1142  0.0792
12162DPPC   C4A16162  22.817   4.613  17.583  0.3170 -0.2249  0.1730
12162DPPC   C1B16163  22.900   4.964  16.163 -0.3091 -0.0230 -0.0552
12162DPPC   C2B16164  22.681   5.045  16.527 -0.1822  0.1255  0.0102
12162DPPC   C3B16165  22.730   5.158  16.998  0.1894  0.0534 -0.1405
12162DPPC   C4B16166  22.750   5.091  17.469 -0.1021 -0.0719  0.0279
12163DPPC   NC316167  24.981   0.859  14.895 -0.1132  0.0616 -0.0113
12163DPPC   PO416168  24.984   0.906  15.244  0.0790 -0.1390 -0.1489
12163DPPC   GL116169  25.092   0.761  15.586 -0.0798  0.5259 -0.0673
12163DPPC   GL216170  25.008   0.530  15.666  0.2664 -0.3620  0.2613
12163DPPC   C1A16171  25.009   0.888  15.939 -0.0496 -0.1469 -0.1006
12163DPPC   C2A16172  24.935   1.019  16.313 -0.2083 -0.0006  0.0091
12163DPPC   C3A16173  25.020   0.935  16.797 -0.0034 -0.2622  0.0181
12163DPPC   C4A16174  25.091   0.985  17.276 -0.2649  0.1742  0.0590
12163DPPC   C1B16175  25.106   0.490  16.008  0.3708  0.0873  0.0386
12163DPPC   C2B16176  25.195   0.466  16.415  0.2347 -0.0531  0.2490
12163DPPC   C3B16177  25.286   0.502  16.862  0.2905 -0.1973  0.1729
12163DPPC   C4B16178  25.271   0.492  17.348  0.2146 -0.1590  0.0477
12164DPPC   NC316179  20.407   5.313  15.678 -0.0365  0.2881 -0.3087
12164DPPC   PO416180  20.770   5.145  15.593 -0.0444 -0.0517 -0.2482
12164DPPC   GL116181  21.141   5.005  15.859  0.0850 -0.1849  0.2663
12164DPPC   GL216182  20.870   4.822  15.970  0.0499  0.0499  0.1221
12164DPPC   C1A16183  21.258   5.195  16.156 -0.2249 -0.0741  0.1477
12164DPPC   C2A16184  21.287   5.292  16.577 -0.0725 -0.1182  0.1031
12164DPPC   C3A16185  21.210   5.430  17.034 -0.1197  0.0091 -0.0571
12164DPPC   C4A16186  21.290   5.419  17.500  0.0978 -0.1659 -0.1832
12164DPPC   C1B16187  20.965   4.867  16.342 -0.2307 -0.0659 -0.0852
12164DPPC   C2B16188  20.970   4.932  16.740  0.1146 -0.2148 -0.2727
12164DPPC   C3B16189  20.931   5.018  17.203  0.0383  0.0399 -0.0035
12164DPPC   C4B16190  20.874   4.967  17.681  0.0261  0.0568 -0.2245
12165DPPC   NC316191  22.943   5.750  15.853 -0.2306  0.5538 -0.1322
12165DPPC   PO416192  23.130   5.990  15.540 -0.0115  0.4053  0.0604
12165DPPC   GL116193  23.080   6.368  15.739 -0.4018  0.4775 -0.2175
12165DPPC   GL216194  23.333   6.282  15.865  0.0605  0.1362 -0.1258
12165DPPC   C1A16195  22.921   6.281  16.049 -0.0254  0.0233 -0.0357
12165DPPC   C2A16196  22.759   6.288  16.440 -0.2786  0.0846  0.0120
12165DPPC   C3A16197  22.732   6.334  16.909  0.2123  0.0164  0.0608
12165DPPC   C4A16198  22.762   6.316  17.360  0.2135 -0.2269  0.1144
12165DPPC   C1B16199  23.284   6.239  16.235 -0.3182 -0.3637 -0.0068
12165DPPC   C2B16200  23.193   6.225  16.658  0.0610 -0.1357 -0.1310
12165DPPC   C3B16201  23.267   6.281  17.108 -0.1446  0.1144 -0.0324
12165DPPC   C4B16202  23.249   6.242  17.580 -0.0965 -0.0356  0.0102
12166DPPC   NC316203   2.213   1.903  15.971  0.4319  0.0270 -0.0997
12166DPPC   PO416204   1.847   2.052  15.943  0.0757  0.1925 -0.2102
12166DPPC   GL116205   1.896   2.100  16.421 -0.4218 -0.1935  0.1611
12166DPPC   GL216206   1.878   2.436  16.321 -0.1045  0.3433 -0.0750
12166DPPC   C1A16207   1.817   2.306  16.718  0.0456  0.1300 -0.0421
12166DPPC   C2A16208   1.634   2.474  17.008 -0.4015  0.0796 -0.1611
12166DPPC   C3A16209   1.257   2.637  17.173  0.2102 -0.0782  0.0151
12166DPPC   C4A16210   1.112   3.002  17.522 -0.1575  0.0371 -0.1824
12166DPPC   C1B16211   1.598   2.661  16.457  0.0512 -0.0401  0.1681
12166DPPC   C2B16212   1.230   2.879  16.438 -0.2307  0.1164  0.1141
12166DPPC   C3B16213   1.073   3.314  16.365 -0.1567 -0.2513 -0.0815
12166DPPC   C4B16214   0.952   3.580  16.711  0.1348  0.0642  0.1885
12167DPPC   NC316215  24.292   3.161  15.399 -0.3485  0.1554  0.1088
12167DPPC   PO416216  24.092   3.490  15.429 -0.0842  0.0091 -0.1670
12167DPPC   GL116217  24.169   3.658  15.855  0.2339 -0.1812  0.0086
12167DPPC   GL216218  24.174   3.372  15.904 -0.1797  0.0114 -0.2303
12167DPPC   C1A16219  24.088   3.829  16.192  0.1023 -0.0161  0.1629
12167DPPC   C2A16220  24.037   3.859  16.605 -0.0884  0.1063 -0.1998
12167DPPC   C3A16221  23.995   3.944  17.052  0.1689  0.1258  0.2463
12167DPPC   C4A16222  23.959   3.990  17.500 -0.0513  0.1951  0.2640
12167DPPC   C1B16223  24.139   3.286  16.262 -0.1810  0.2077  0.0833
12167DPPC   C2B16224  24.159   3.348  16.693  0.1262 -0.1278 -0.1085
12167DPPC   C3B16225  24.170   3.311  17.157  0.1724  0.0276 -0.2140
12167DPPC   C4B16226  24.119   3.381  17.654  0.2394 -0.1879  0.0454
12168DPPC   NC316227  22.370   0.346  15.256 -0.3082 -0.1218 -0.2413
12168DPPC   PO416228  22.064   0.389  15.534 -0.0132  0.0555  0.2158
12168DPPC   GL116229  21.877   0.065  15.766  0.3454  0.3945  0.1796
12168DPPC   GL216230  22.093   0.154  15.966  0.2126 -0.3785  0.1018
12168DPPC   C1A16231  21.565   0.114  15.893 -0.0760 -0.2828 -0.0247
12168DPPC   C2A16232  21.336   0.051  16.237 -0.0901 -0.0640  0.0655
12168DPPC   C3A16233  21.253   0.036  16.723 -0.0201 -0.0539  0.1352
12168DPPC   C4A16234  21.194   0.045  17.186  0.2325  0.0549  0.1636
12168DPPC   C1B16235  22.074   0.225  16.314 -0.1254  0.2336  0.2872
12168DPPC   C2B16236  22.105   0.257  16.683 -0.0517 -0.0843 -0.0669
12168DPPC   C3B16237  22.120   0.273  17.153  0.0829  0.1212  0.0869
12168DPPC   C4B16238  22.090   0.301  17.664 -0.1528  0.0244 -0.0545
12169DPPC   NC316239  21.795   3.335  15.621  0.1286  0.0644 -0.2842
12169DPPC   PO416240  21.425   3.305  15.591 -0.0908  0.1328 -0.1176
12169DPPC   GL116241  21.470   3.295  16.041  0.2966 -0.3018 -0.3375
12169DPPC   GL216242  21.754   3.306  16.089  0.3954 -0.2210  0.0523
12169DPPC   C1A16243  21.187   3.308  16.261  0.1109  0.1660  0.0627
12169DPPC   C2A16244  21.154   3.174  16.656 -0.0031 -0.1231  0.1935
12169DPPC   C3A16245  21.071   3.132  17.141  0.2722  0.2186 -0.1109
12169DPPC   C4A16246  21.090   3.246  17.637 -0.2958 -0.1712  0.0151
12169DPPC   C1B16247  21.839   3.341  16.425  0.2115  0.2880  0.0233
12169DPPC   C2B16248  21.886   3.412  16.795  0.0508 -0.2109 -0.0963
12169DPPC   C3B16249  21.821   3.448  17.194 -0.2942  0.1119  0.1126
12169DPPC   C4B16250  21.923   3.422  17.649 -0.0039 -0.0926 -0.1150
12170DPPC   NC316251  23.435   4.891  14.956 -0.0723 -0.2793  0.0098
12170DPPC   PO416252  23.433   4.603  15.217 -0.2206  0.1234 -0.0598
12170DPPC   GL116253  23.568   4.618  15.614 -0.2339 -0.2305 -0.0343
12170DPPC   GL216254  23.327   4.767  15.729 -0.0088  0.2578 -0.0778
12170DPPC   C1A16255  23.732   4.457  15.955  0.2982 -0.3458  0.1720
12170DPPC   C2A16256  23.900   4.310  16.315  0.0368  0.0858 -0.0618
12170DPPC   C3A16257  23.810   4.382  16.811  0.3036  0.0675  0.1736
12170DPPC   C4A16258  23.866   4.374  17.263 -0.1617 -0.3184  0.0119
12170DPPC   C1B16259  23.338   4.590  16.059  0.0192  0.1466 -0.3016
12170DPPC   C2B16260  23.369   4.478  16.477  0.1393 -0.0669  0.0299
12170DPPC   C3B16261  23.347   4.505  16.956 -0.1916 -0.2506  0.2899
12170DPPC   C4B16262  23.304   4.446  17.454 -0.0644  0.0405  0.0045
12171DPPC   NC316263   0.981   2.949  15.411 -0.1072  0.1002  0.1078
12171DPPC   PO416264   0.637   3.129  15.540 -0.0286  0.0140  0.1606
12171DPPC   GL116265   0.570   3.314  15.927  0.1100  0.1318 -0.2281
12171DPPC   GL216266   0.293   3.166  15.903 -0.1005 -0.4304  0.4674
12171DPPC   C1A16267   0.398   3.651  16.029 -0.0839 -0.5553 -0.0547
12171DPPC   C2A16268   0.313   3.695  16.421  0.1641  0.0536  0.0317
12171DPPC   C3A16269   0.261   3.697  16.877  0.1707 -0.0965  0.0598
12171DPPC   C4A16270   0.346   3.698  17.369  0.3873  0.0341 -0.0269
12171DPPC   C1B16271   0.133   3.195  16.270 -0.0356  0.0798  0.3781
12171DPPC   C2B16272   0.046   3.272  16.677  0.0445  0.0641  0.1834
12171DPPC   C3B16273   0.044   3.318  17.154 -0.0743 -0.2062 -0.2159
12171DPPC   C4B16274   0.042   3.354  17.608 -0.2757  0.1963  0.4084
12172DPPC   NC316275  26.075   6.515  15.084 -0.2617 -0.1192 -0.0874
12172DPPC   PO416276  25.855   6.816  15.241  0.1952 -0.0072  0.2857
12172DPPC   GL116277  26.170   6.858  15.572 -0.1699  0.0459  0.0785
12172DPPC   GL216278  26.408   6.704  15.415  0.4019  0.1621  0.3456
12172DPPC   C1A16279  26.132   6.973  15.936 -0.2183 -0.1254  0.1930
12172DPPC   C2A16280  26.159   6.996  16.341  0.1845  0.0907 -0.0364
12172DPPC   C3A16281  26.199   6.964  16.885 -0.4163 -0.1154  0.0993
12172DPPC   C4A16282  26.189   7.055  17.338  0.0905  0.1255  0.0419
12172DPPC   C1B16283  26.385   6.556  15.746 -0.0038  0.0662  0.0995
12172DPPC   C2B16284  26.332   6.530  16.154 -0.2539  0.0530 -0.0807
12172DPPC   C3B16285  26.329   6.537  16.638  0.5468 -0.0569 -0.3162
12172DPPC   C4B16286  26.292   6.520  17.134  0.0371 -0.0795 -0.3026
12173DPPC   NC316287  22.504   3.133  15.702  0.0610 -0.0137  0.0499
12173DPPC   PO416288  22.110   2.937  15.818  0.2544 -0.1542 -0.2559
12173DPPC   GL116289  22.062   2.821  16.197  0.1196 -0.0465  0.1043
12173DPPC   GL216290  22.267   2.645  16.271 -0.3427  0.0793  0.1430
12173DPPC   C1A16291  22.057   2.904  16.569 -0.1937 -0.0445  0.1184
12173DPPC   C2A16292  22.000   2.839  16.974 -0.0138 -0.1060 -0.2140
12173DPPC   C3A16293  22.067   2.880  17.416  0.3766 -0.0814 -0.4161
12173DPPC   C4A16294  21.990   2.877  17.919  0.2341 -0.1355 -0.3663
12173DPPC   C1B16295  22.180   2.487  16.643 -0.4156  0.0839  0.3956
12173DPPC   C2B16296  22.250   2.423  17.045 -0.2558 -0.0309 -0.0036
12173DPPC   C3B16297  22.270   2.434  17.488 -0.2382  0.0615  0.0472
12173DPPC   C4B16298  22.283   2.408  17.970  0.0811 -0.0177  0.1186
12174DPPC   NC316299  24.669   2.832  15.451 -0.2948 -0.0249  0.0887
12174DPPC   PO416300  24.536   2.451  15.452  0.0422  0.0756  0.1559
12174DPPC   GL116301  24.685   2.231  15.794 -0.3581 -0.1487  0.0331
12174DPPC   GL216302  24.428   2.340  15.867  0.1932 -0.0299 -0.0451
12174DPPC   C1A16303  25.005   2.197  15.976 -0.1645  0.0189  0.0448
12174DPPC   C2A16304  25.075   2.306  16.341  0.0813  0.0871 -0.0401
12174DPPC   C3A16305  25.029   2.354  16.813 -0.1833 -0.1542 -0.0366
12174DPPC   C4A16306  24.998   2.324  17.321  0.0042 -0.1522  0.0312
12174DPPC   C1B16307  24.577   2.338  16.234 -0.2790 -0.1208  0.1083
12174DPPC   C2B16308  24.567   2.384  16.612  0.0819  0.0292 -0.2088
12174DPPC   C3B16309  24.570   2.460  17.091 -0.1392  0.3266  0.0864
12174DPPC   C4B16310  24.552   2.558  17.560 -0.1738 -0.0685  0.1046
12175DPPC   NC316311   0.614   0.731  15.007  0.0607 -0.0270  0.0915
12175DPPC   PO416312   0.927   0.782  15.244 -0.1585  0.1713 -0.1598
12175DPPC   GL116313   0.908   1.057  15.595 -0.1824 -0.2874 -0.1205
12175DPPC   GL216314   0.664   0.954  15.560 -0.0359  0.1990 -0.2190
12175DPPC   C1A16315   0.874   0.937  15.987  0.0640 -0.0493 -0.3085
12175DPPC   C2A16316   0.898   0.956  16.427 -0.2615 -0.3764 -0.0210
12175DPPC   C3A16317   0.921   0.890  16.945  0.0230 -0.0561  0.0180
12175DPPC   C4A16318   0.912   0.893  17.464 -0.0368 -0.0654 -0.0423
12175DPPC   C1B16319   0.462   0.969  15.875 -0.1207 -0.0494 -0.1625
12175DPPC   C2B16320   0.361   1.044  16.251 -0.1246 -0.0831  0.2942
12175DPPC   C3B16321   0.418   1.058  16.719  0.1097  0.0572 -0.2746
12175DPPC   C4B16322   0.543   1.123  17.222  0.1804 -0.2245 -0.1565
12176DPPC   NC316323  25.053   6.506  15.133 -0.1992 -0.2241  0.1230
12176DPPC   PO416324  24.729   6.409  15.318 -0.0951  0.0881 -0.0842
12176DPPC   GL116325  24.670   6.460  15.713  0.1846  0.1555  0.1449
12176DPPC   GL216326  24.429   6.483  15.807  0.1016 -0.0884 -0.1786
12176DPPC   C1A16327  24.854   6.222  15.965  0.0036  0.4440 -0.3609
12176DPPC   C2A16328  24.997   6.314  16.342 -0.3170  0.0350 -0.3146
12176DPPC   C3A16329  25.008   6.309  16.794  0.0838 -0.0463  0.2266
12176DPPC   C4A16330  25.072   6.265  17.280  0.2118 -0.1325  0.1348
12176DPPC   C1B16331  24.558   6.471  16.137  0.2565 -0.1499 -0.1761
12176DPPC   C2B16332  24.493   6.383  16.536 -0.0498 -0.1089  0.1412
12176DPPC   C3B16333  24.523   6.319  17.022  0.0067 -0.1611 -0.1069
12176DPPC   C4B16334  24.616   6.422  17.489 -0.2700 -0.0227 -0.1152
12177DPPC   NC316335  23.676   0.253  15.354  0.1725  0.4821  0.0932
12177DPPC   PO416336  23.615   0.622  15.477  0.5741 -0.0016  0.0671
12177DPPC   GL116337  23.534   0.611  15.895  0.4973  0.2311 -0.3244
12177DPPC   GL216338  23.746   0.883  15.875  0.2314 -0.1687  0.1152
12177DPPC   C1A16339  23.446   0.470  16.212  0.1509  0.0519 -0.0042
12177DPPC   C2A16340  23.437   0.373  16.637  0.0697 -0.3178  0.0061
12177DPPC   C3A16341  23.435   0.347  17.108  0.1449  0.1822  0.0617
12177DPPC   C4A16342  23.428   0.425  17.619 -0.1556  0.0760  0.1393
12177DPPC   C1B16343  23.774   0.838  16.229  0.2807  0.0722 -0.1890
12177DPPC   C2B16344  23.750   0.833  16.614 -0.1839  0.0717  0.0407
12177DPPC   C3B16345  23.774   0.861  17.088  0.0902 -0.1959  0.1247
12177DPPC   C4B16346  23.765   0.885  17.581  0.3228  0.2425  0.2480
12178DPPC   NC316347  20.967   1.869  15.572  0.0590  0.2485  0.0952
12178DPPC   PO416348  21.308   2.028  15.516  0.1512 -0.2962  0.2430
12178DPPC   GL116349  21.452   2.162  15.864 -0.3564  0.0807 -0.1921
12178DPPC   GL216350  21.203   2.326  15.945  0.1129  0.3217  0.1334
12178DPPC   C1A16351  21.621   2.042  16.184 -0.1318 -0.0320 -0.1222
12178DPPC   C2A16352  21.904   2.074  16.458 -0.1875 -0.0595 -0.1453
12178DPPC   C3A16353  21.961   2.037  16.950 -0.0963  0.0173  0.2962
12178DPPC   C4A16354  21.988   2.020  17.463 -0.1366  0.4000 -0.2594
12178DPPC   C1B16355  21.291   2.276  16.289 -0.0850 -0.1766 -0.1244
12178DPPC   C2B16356  21.399   2.089  16.629 -0.0829  0.2003 -0.1329
12178DPPC   C3B16357  21.462   2.169  17.061  0.0617 -0.0264 -0.2847
12178DPPC   C4B16358  21.412   2.168  17.495  0.2025  0.1702 -0.0348
12179DPPC   NC316359   0.123   3.699  15.220  0.1363  0.0707  0.1026
12179DPPC   PO416360  -0.226   3.677  15.446 -0.0584  0.1834  0.0370
12179DPPC   GL116361  -0.080   3.855  15.856 -0.1959 -0.0623  0.1867
12179DPPC   GL216362  -0.335   3.708  15.933 -0.1753 -0.0075  0.2913
12179DPPC   C1A16363  -0.037   4.114  16.073  0.0400 -0.1561 -0.1492
12179DPPC   C2A16364   0.166   4.157  16.410  0.0137  0.1667 -0.1786
12179DPPC   C3A16365   0.182   4.213  16.896  0.0152 -0.0535  0.1237
12179DPPC   C4A16366   0.121   4.199  17.362 -0.0681 -0.2254  0.1751
12179DPPC   C1B16367  -0.221   3.556  16.236 -0.1685  0.1869 -0.2104
12179DPPC   C2B16368  -0.232   3.798  16.603 -0.2415  0.1930  0.1115
12179DPPC   C3B16369  -0.174   3.877  17.096 -0.0018  0.1913 -0.1140
12179DPPC   C4B16370  -0.093   3.840  17.560 -0.0001  0.0350  0.2063
12180DPPC   NC316371  23.186   6.447  15.295  0.1174 -0.0100  0.1973
12180DPPC   PO416372  23.571   6.391  15.434  0.0714  0.1475 -0.0097
12180DPPC   GL116373  23.794   6.389  15.758  0.4807 -0.2602  0.1883
12180DPPC   GL216374  23.893   6.702  15.780  0.0117  0.1681  0.0525
12180DPPC   C1A16375  23.716   6.194  16.078  0.0386 -0.0755 -0.0954
12180DPPC   C2A16376  23.860   6.139  16.519 -0.2576  0.1018 -0.2275
12180DPPC   C3A16377  23.819   6.081  16.967 -0.0306  0.0354  0.1092
12180DPPC   C4A16378  23.732   6.098  17.470 -0.2806 -0.5119 -0.0578
12180DPPC   C1B16379  23.880   6.871  16.133 -0.2736 -0.0135  0.1991
12180DPPC   C2B16380  23.923   6.980  16.540 -0.0527  0.3457  0.0362
12180DPPC   C3B16381  23.948   6.943  16.998  0.0933 -0.0581 -0.1598
12180DPPC   C4B16382  23.935   6.985  17.471  0.1036 -0.2607  0.0288
12181DPPC   NC316383  25.001   5.559  15.453 -0.0473  0.0807  0.1301
12181DPPC   PO416384  24.609   5.623  15.315 -0.1891 -0.0850 -0.2350
12181DPPC   GL116385  24.366   5.648  15.712  0.1308  0.1236  0.2264
12181DPPC   GL216386  24.118   5.596  15.570  0.0094  0.1138 -0.2562
12181DPPC   C1A16387  24.424   5.644  16.094 -0.0976 -0.3792  0.1438
12181DPPC   C2A16388  24.383   5.591  16.506 -0.0382 -0.1443 -0.2248
12181DPPC   C3A16389  24.365   5.514  16.974 -0.1497  0.0184  0.1583
12181DPPC   C4A16390  24.381   5.500  17.449 -0.0571 -0.0374 -0.0306
12181DPPC   C1B16391  23.916   5.728  15.816  0.3739  0.2217 -0.1980
12181DPPC   C2B16392  23.912   5.714  16.212  0.0796 -0.0263  0.0250
12181DPPC   C3B16393  23.895   5.666  16.694  0.4052 -0.0556  0.0753
12181DPPC   C4B16394  23.874   5.598  17.181  0.3784  0.0618 -0.0964
12182DPPC   NC316395  20.184   2.033  15.823  0.0391  0.1513  0.2187
12182DPPC   PO416396  20.542   2.088  15.687  0.0955 -0.1725  0.1822
12182DPPC   GL116397  20.891   1.961  16.020 -0.2784 -0.2111  0.0262
12182DPPC   GL216398  20.747   1.683  15.950  0.1837  0.1542 -0.0017
12182DPPC   C1A16399  21.063   1.899  16.344  0.1116 -0.4085  0.1891
12182DPPC   C2A16400  20.999   1.806  16.769 -0.0889  0.0777 -0.2011
12182DPPC   C3A16401  21.054   1.792  17.301  0.2623  0.1949  0.0980
12182DPPC   C4A16402  21.056   1.751  17.771  0.1450 -0.4874 -0.1133
12182DPPC   C1B16403  20.656   1.510  16.259  0.0747  0.2394 -0.0623
12182DPPC   C2B16404  20.650   1.455  16.677 -0.2615 -0.3184 -0.0808
12182DPPC   C3B16405  20.784   1.414  17.114  0.1852  0.3785 -0.1097
12182DPPC   C4B16406  20.729   1.379  17.606 -0.1650 -0.0091  0.0876
12183DPPC   NC316407  23.599   3.676  15.007  0.3985 -0.1555 -0.3053
12183DPPC   PO416408  23.632   3.830  15.361 -0.0414 -0.1175 -0.1124
12183DPPC   GL116409  23.532   3.825  15.888  0.0083  0.1228  0.1598
12183DPPC   GL216410  23.778   3.663  15.805  0.2321 -0.4259  0.5778
12183DPPC   C1A16411  23.612   3.976  16.227  0.2547 -0.2936 -0.2019
12183DPPC   C2A16412  23.536   4.025  16.633  0.0087 -0.1042  0.1251
12183DPPC   C3A16413  23.515   3.988  17.150  0.1941  0.0318  0.0575
12183DPPC   C4A16414  23.520   3.966  17.661 -0.2930  0.2303  0.1561
12183DPPC   C1B16415  23.816   3.408  16.066 -0.0358 -0.1372  0.0713
12183DPPC   C2B16416  23.761   3.521  16.451  0.0657 -0.0591  0.2629
12183DPPC   C3B16417  23.727   3.569  16.903 -0.0459  0.3093 -0.1215
12183DPPC   C4B16418  23.716   3.559  17.415 -0.0454 -0.0343  0.4463
12184DPPC   NC316419  23.671   2.566  15.575 -0.0417  0.0795  0.2453
12184DPPC   PO416420  23.385   2.862  15.548  0.1282  0.0836  0.2777
12184DPPC   GL116421  23.433   2.935  15.940 -0.1900  0.0000 -0.0951
12184DPPC   GL216422  23.575   2.649  15.984  0.2611 -0.5612 -0.2815
12184DPPC   C1A16423  23.428   3.182  16.259 -0.0195  0.3268 -0.0461
12184DPPC   C2A16424  23.408   3.129  16.673 -0.0010  0.0531  0.4329
12184DPPC   C3A16425  23.385   3.165  17.201  0.0640  0.0037  0.0935
12184DPPC   C4A16426  23.347   3.106  17.670  0.1366  0.0483 -0.2135
12184DPPC   C1B16427  23.565   2.597  16.318  0.3552  0.2050  0.1364
12184DPPC   C2B16428  23.534   2.573  16.790 -0.0788 -0.0547  0.2821
12184DPPC   C3B16429  23.545   2.611  17.254  0.2547  0.1964  0.4354
12184DPPC   C4B16430  23.514   2.594  17.711 -0.2962 -0.2578 -0.1061
12185DPPC   NC316431  22.392   5.991  15.291  0.2827  0.2182 -0.1346
12185DPPC   PO416432  22.043   6.021  15.487 -0.0525  0.2050 -0.0478
12185DPPC   GL116433  21.990   5.951  15.910  0.0156  0.0672 -0.0539
12185DPPC   GL216434  22.001   6.252  15.873 -0.0604  0.3501 -0.0277
12185DPPC   C1A16435  22.196   5.994  16.190 -0.2158  0.1298 -0.0687
12185DPPC   C2A16436  22.348   5.956  16.585  0.1414 -0.0191 -0.0837
12185DPPC   C3A16437  22.411   6.021  17.087  0.1815  0.1263  0.0476
12185DPPC   C4A16438  22.370   5.980  17.568 -0.0785  0.1043 -0.2278
12185DPPC   C1B16439  21.830   6.428  16.123  0.3540 -0.2537 -0.0222
12185DPPC   C2B16440  21.749   6.574  16.462  0.1547  0.0365 -0.0124
12185DPPC   C3B16441  21.759   6.601  16.918 -0.3446  0.1590 -0.1849
12185DPPC   C4B16442  21.789   6.609  17.415 -0.0016  0.0817 -0.0476
12186DPPC   NC316443  24.621   0.264  15.466  0.3477  0.0784 -0.0851
12186DPPC   PO416444  24.923   0.395  15.231 -0.0783 -0.0705  0.0395
12186DPPC   GL116445  25.017   0.123  15.544 -0.2619  0.1444  0.0030
12186DPPC   GL216446  25.299   0.180  15.476 -0.2985  0.2985 -0.0882
12186DPPC   C1A16447  24.890   0.188  15.863  0.3305 -0.2368  0.5279
12186DPPC   C2A16448  24.821   0.191  16.257 -0.0752  0.0439 -0.0071
12186DPPC   C3A16449  24.927   0.198  16.745  0.4151 -0.0485 -0.0459
12186DPPC   C4A16450  24.932   0.136  17.256  0.2898 -0.2950  0.0310
12186DPPC   C1B16451  25.486   0.328  15.805 -0.1633 -0.4192  0.1546
12186DPPC   C2B16452  25.641   0.488  16.138 -0.0797  0.1049 -0.1117
12186DPPC   C3B16453  25.694   0.377  16.623 -0.3295 -0.0442  0.2104
12186DPPC   C4B16454  25.719   0.401  17.092 -0.3504  0.1050 -0.2479
12187DPPC   NC316455  24.476   4.014  15.828 -0.1063  0.1198  0.2752
12187DPPC   PO416456  24.426   4.262  15.510 -0.2840 -0.2962 -0.1184
12187DPPC   GL116457  24.174   4.539  15.744  0.2785  0.4640 -0.1304
12187DPPC   GL216458  24.227   4.337  15.958 -0.1468 -0.0267 -0.3934
12187DPPC   C1A16459  24.175   4.736  16.043 -0.0415  0.2801  0.0940
12187DPPC   C2A16460  24.180   4.684  16.487  0.1699  0.0337 -0.1244
12187DPPC   C3A16461  24.137   4.688  17.005  0.0601  0.1988 -0.0450
12187DPPC   C4A16462  24.179   4.691  17.470  0.0563  0.1277  0.1326
12187DPPC   C1B16463  24.376   4.235  16.301  0.0520  0.0903  0.0600
12187DPPC   C2B16464  24.346   4.267  16.721 -0.0830  0.2958  0.3932
12187DPPC   C3B16465  24.358   4.239  17.205  0.1914 -0.1389 -0.1827
12187DPPC   C4B16466  24.421   4.239  17.670  0.0634  0.0936  0.1940
12188DPPC   NC316467  25.548   4.616  15.218  0.2339  0.0244  0.1449
12188DPPC   PO416468  25.206   4.662  15.449 -0.2100  0.1036 -0.2038
12188DPPC   GL116469  25.242   4.511  15.877 -0.1397 -0.2031  0.1607
12188DPPC   GL216470  25.507   4.616  15.809  0.0544  0.0945  0.0062
12188DPPC   C1A16471  25.189   4.582  16.257  0.0009  0.0821 -0.3472
12188DPPC   C2A16472  25.211   4.575  16.690  0.2597 -0.1444  0.0578
12188DPPC   C3A16473  25.180   4.568  17.146  0.1249  0.1026 -0.1370
12188DPPC   C4A16474  25.191   4.614  17.603 -0.2413 -0.3251  0.0636
12188DPPC   C1B16475  25.615   4.368  16.089 -0.2686  0.0838  0.0887
12188DPPC   C2B16476  25.674   4.351  16.513  0.0870  0.0809 -0.3178
12188DPPC   C3B16477  25.613   4.455  16.965  0.2434  0.1610 -0.1288
12188DPPC   C4B16478  25.684   4.541  17.440 -0.0884 -0.1984  0.0215
12189DPPC   NC316479  25.253   3.031  15.347 -0.1287  0.3508 -0.1769
12189DPPC   PO416480  25.124   2.630  15.278  0.2316 -0.0549 -0.2297
12189DPPC   GL116481  25.032   2.575  15.724 -0.2614  0.0384  0.2730
12189DPPC   GL216482  25.304   2.598  15.809 -0.0863 -0.0466  0.0225
12189DPPC   C1A16483  24.844   2.582  15.978 -0.0712 -0.1850  0.5408
12189DPPC   C2A16484  24.837   2.717  16.324 -0.2396 -0.1277 -0.0999
12189DPPC   C3A16485  24.822   2.839  16.743 -0.1472 -0.0497 -0.2463
12189DPPC   C4A16486  24.905   2.837  17.266  0.4316 -0.1679 -0.0173
12189DPPC   C1B16487  25.377   2.675  16.189  0.0719  0.2772 -0.1385
12189DPPC   C2B16488  25.373   2.673  16.612  0.2573 -0.0785 -0.0741
12189DPPC   C3B16489  25.327   2.637  17.108  0.2017 -0.3368 -0.1570
12189DPPC   C4B16490  25.260   2.700  17.597 -0.2073  0.0575 -0.1289
12190DPPC   NC316491   0.023   5.054  15.362 -0.3708  0.1106 -0.1674
12190DPPC   PO416492  -0.260   5.215  15.160 -0.1197 -0.0114  0.0191
12190DPPC   GL116493  -0.390   5.380  15.466  0.3405 -0.0823 -0.2305
12190DPPC   GL216494  -0.325   5.642  15.520  0.1408 -0.0215 -0.0127
12190DPPC   C1A16495  -0.542   5.347  15.818 -0.5946  0.2063  0.1859
12190DPPC   C2A16496  -0.584   5.286  16.211  0.0048  0.0865 -0.2658
12190DPPC   C3A16497  -0.610   5.238  16.678  0.1091  0.1671 -0.2358
12190DPPC   C4A16498  -0.624   5.224  17.151 -0.2856  0.0758  0.0539
12190DPPC   C1B16499  -0.213   5.717  15.846  0.1605 -0.1153 -0.2455
12190DPPC   C2B16500  -0.285   5.719  16.256 -0.1121 -0.2772  0.1944
12190DPPC   C3B16501  -0.352   5.649  16.754  0.0296  0.0461  0.2006
12190DPPC   C4B16502  -0.265   5.652  17.224 -0.0420  0.1978  0.1495
12191DPPC   NC316503  23.847   1.422  15.748  0.3005  0.1201 -0.0716
12191DPPC   PO416504  23.522   1.575  15.628 -0.0758 -0.1302  0.2510
12191DPPC   GL116505  23.474   1.808  16.036  0.2908 -0.2808  0.0083
12191DPPC   GL216506  23.559   1.459  16.114 -0.0810  0.0434 -0.1159
12191DPPC   C1A16507  23.412   1.745  16.391 -0.1889  0.3813  0.0395
12191DPPC   C2A16508  23.445   1.783  16.803  0.0831  0.0028  0.0812
12191DPPC   C3A16509  23.438   1.802  17.277  0.2354 -0.2414  0.0910
12191DPPC   C4A16510  23.345   1.776  17.764 -0.0596  0.0119 -0.0742
12191DPPC   C1B16511  23.574   1.280  16.427 -0.3845  0.1140  0.2594
12191DPPC   C2B16512  23.631   1.308  16.845  0.2125 -0.0718  0.2804
12191DPPC   C3B16513  23.667   1.314  17.332 -0.2464  0.3556 -0.1403
12191DPPC   C4B16514  23.574   1.293  17.832  0.1049 -0.0275 -0.0395
12192DPPC   NC316515   0.052   2.819  15.085 -0.0949 -0.0855  0.1926
12192DPPC   PO416516   0.131   3.066  15.392  0.1109 -0.0262 -0.0508
12192DPPC   GL116517  -0.041   2.889  15.805  0.0314 -0.0284 -0.0890
12192DPPC   GL216518   0.178   2.733  15.788 -0.1958  0.1148 -0.0476
12192DPPC   C1A16519  -0.216   2.839  16.142  0.1325 -0.1499  0.0824
12192DPPC   C2A16520  -0.269   2.952  16.504 -0.1971  0.0401  0.1067
12192DPPC   C3A16521  -0.322   2.979  16.907  0.0365 -0.1497 -0.1180
12192DPPC   C4A16522  -0.302   2.966  17.404  0.0379  0.0166 -0.0592
12192DPPC   C1B16523   0.213   2.765  16.156  0.0153 -0.0767  0.1536
12192DPPC   C2B16524   0.234   2.806  16.543  0.3205  0.0880 -0.2709
12192DPPC   C3B16525   0.267   2.923  16.944 -0.1161  0.1818 -0.2201
12192DPPC   C4B16526   0.315   2.831  17.485 -0.3466 -0.0945 -0.1472
12193DPPC   NC316527  24.619   5.810  14.856 -0.1737 -0.2105 -0.1574
12193DPPC   PO416528  24.927   5.996  15.057 -0.1041  0.4038 -0.0382
12193DPPC   GL116529  24.906   5.991  15.529 -0.0901 -0.3345  0.1997
12193DPPC   GL216530  25.101   6.231  15.471  0.0882 -0.3142 -0.0059
12193DPPC   C1A16531  24.743   5.866  15.843  0.0182  0.1083 -0.3748
12193DPPC   C2A16532  24.712   5.939  16.262  0.0147 -0.0166  0.0922
12193DPPC   C3A16533  24.705   5.934  16.741  0.1026  0.1537  0.0173
12193DPPC   C4A16534  24.702   5.898  17.215  0.4337  0.0915  0.2749
12193DPPC   C1B16535  25.188   6.400  15.753  0.1547 -0.1013 -0.1200
12193DPPC   C2B16536  25.300   6.579  16.065  0.0389 -0.1616  0.0380
12193DPPC   C3B16537  25.347   6.616  16.539  0.0974 -0.1901 -0.1762
12193DPPC   C4B16538  25.365   6.615  16.997 -0.1532 -0.1573  0.0467
12194DPPC   NC316539  25.918   5.513  14.806 -0.1309 -0.0805  0.0215
12194DPPC   PO416540  25.732   5.692  15.074  0.0710  0.0475 -0.1573
12194DPPC   GL116541  25.462   5.693  15.353 -0.1883 -0.0448  0.1612
12194DPPC   GL216542  25.663   5.547  15.519 -0.0483  0.6350 -0.0870
12194DPPC   C1A16543  25.309   5.874  15.631 -0.0090  0.0570  0.3886
12194DPPC   C2A16544  25.160   5.898  16.017 -0.2285  0.0425  0.1478
12194DPPC   C3A16545  25.175   5.861  16.496 -0.3316  0.1576 -0.1613
12194DPPC   C4A16546  25.124   5.827  16.989  0.0947  0.0898  0.0140
12194DPPC   C1B16547  25.489   5.496  15.828  0.0242 -0.2494 -0.1352
12194DPPC   C2B16548  25.342   5.428  16.215 -0.1819 -0.5956  0.0589
12194DPPC   C3B16549  25.361   5.364  16.690  0.0329  0.0350 -0.0126
12194DPPC   C4B16550  25.336   5.418  17.188  0.1392 -0.0302  0.1353
12195DPPC   NC316551   0.576   4.986  14.840  0.2260 -0.1360 -0.1524
12195DPPC   PO416552   0.523   4.929  15.238  0.1285 -0.1656  0.1847
12195DPPC   GL116553   0.513   5.285  15.622 -0.0032 -0.1599 -0.0225
12195DPPC   GL216554   0.751   5.060  15.640  0.3080 -0.0414 -0.1641
12195DPPC   C1A16555   0.361   5.252  15.915 -0.1563 -0.1200  0.2235
12195DPPC   C2A16556   0.307   5.090  16.335 -0.2585  0.2294  0.0432
12195DPPC   C3A16557   0.360   5.002  16.790  0.0055 -0.3781 -0.1334
12195DPPC   C4A16558   0.330   4.998  17.304  0.2437  0.0297 -0.3095
12195DPPC   C1B16559   0.687   4.945  16.023  0.0996 -0.0346  0.5271
12195DPPC   C2B16560   0.816   4.924  16.394  0.2097 -0.0499  0.3043
12195DPPC   C3B16561   0.892   4.861  16.849  0.1567 -0.2427  0.0789
12195DPPC   C4B16562   0.907   4.865  17.296  0.0183  0.3222 -0.2402
12196DPPC   NC316563  25.756   3.813  15.625 -0.0304 -0.3626  0.0779
12196DPPC   PO416564  25.796   3.434  15.568 -0.1058 -0.0613 -0.1990
12196DPPC   GL116565  25.637   3.499  15.933 -0.2826  0.0016 -0.0990
12196DPPC   GL216566  25.836   3.432  16.103  0.0620  0.0316  0.1279
12196DPPC   C1A16567  25.462   3.547  16.255  0.0277  0.0016 -0.3366
12196DPPC   C2A16568  25.369   3.536  16.625  0.3737  0.1230 -0.1643
12196DPPC   C3A16569  25.347   3.578  17.075 -0.1045 -0.0729  0.2942
12196DPPC   C4A16570  25.457   3.687  17.518  0.3010 -0.1016  0.0143
12196DPPC   C1B16571  25.849   3.486  16.452 -0.2175 -0.1761  0.2015
12196DPPC   C2B16572  25.874   3.441  16.850 -0.1335  0.2593 -0.3226
12196DPPC   C3B16573  25.979   3.484  17.310  0.0399  0.1989 -0.0388
12196DPPC   C4B16574  25.924   3.603  17.772 -0.4150  0.1061 -0.2282
12197DPPC   NC316575  25.546   2.377  15.521  0.0429  0.0003  0.2216
12197DPPC   PO416576  25.612   2.743  15.444  0.0205 -0.2974  0.1870
12197DPPC   GL116577  25.619   2.929  15.814  0.1638 -0.1382  0.1371
12197DPPC   GL216578  25.893   2.943  15.917  0.0459  0.5545  0.0825
12197DPPC   C1A16579  25.390   3.047  16.026 -0.2197 -0.1258  0.3831
12197DPPC   C2A16580  25.191   3.106  16.365  0.2353 -0.1051 -0.5041
12197DPPC   C3A16581  25.201   3.142  16.847 -0.0983 -0.3126  0.1530
12197DPPC   C4A16582  25.233   3.182  17.364  0.2856 -0.0231  0.0531
12197DPPC   C1B16583  25.777   2.981  16.256  0.1115 -0.0080 -0.3930
12197DPPC   C2B16584  25.707   3.036  16.646  0.0935  0.0628  0.2392
12197DPPC   C3B16585  25.672   3.054  17.110 -0.0973 -0.3867  0.3990
12197DPPC   C4B16586  25.652   3.123  17.621 -0.0429  0.1857 -0.0232
12198DPPC   NC316587  23.678   5.728  14.950 -0.3322 -0.1913 -0.0023
12198DPPC   PO416588  23.729   5.463  15.264 -0.1955  0.2555  0.0644
12198DPPC   GL116589  23.634   5.399  15.754  0.2878 -0.2644 -0.3938
12198DPPC   GL216590  23.432   5.595  15.654  0.1012 -0.1185 -0.2119
12198DPPC   C1A16591  23.637   5.342  16.104 -0.4107 -0.1223  0.0679
12198DPPC   C2A16592  23.507   5.352  16.509 -0.1401  0.1926 -0.0817
12198DPPC   C3A16593  23.497   5.299  16.983 -0.0439  0.0652  0.0122
12198DPPC   C4A16594  23.521   5.239  17.494  0.0691  0.1070  0.0097
12198DPPC   C1B16595  23.439   5.751  15.957  0.1228  0.0709 -0.4868
12198DPPC   C2B16596  23.386   5.847  16.387  0.0901  0.2188  0.1613
12198DPPC   C3B16597  23.398   5.798  16.898 -0.2421 -0.2957  0.1540
12198DPPC   C4B16598  23.390   5.753  17.372 -0.3921 -0.0148  0.1432
12199W        W16599  11.051   4.166  30.339  0.0684 -0.0972 -0.0261
12200W        W16600  10.428   4.790  26.966 -0.0879 -0.3103  0.0231
12201W        W16601   2.453   5.630  21.247  0.0422 -0.0744  0.2023
12202W        W16602  14.869   6.221  13.426 -0.0732 -0.1233  0.0956
12203W        W16603  14.261   5.553  28.367  0.1155 -0.0424 -0.1784
12204W        W16604   9.797   6.344   2.148 -0.2147 -0.1765 -0.0334
12205W        W16605  18.919   4.828  32.374 -0.0106  0.0581 -0.3037
12206W        W16606  24.004   1.134  22.439  0.2080 -0.2077  0.3591
12207W        W16607   8.330   3.601  23.860 -0.1180  0.2638  0.0550
12208W        W16608  19.027   6.326   9.451  0.1112  0.1528  0.3504
12209W        W16609   7.361   6.142  13.028  0.2542  0.3797 -0.1785
12210W        W16610  12.312   2.427  26.082  0.0918  0.0294  0.0725
12211W        W16611  18.002   0.144   6.060  0.0953  0.0573  0.1902
12212W        W16612   5.497   2.085  15.164 -0.0288  0.1302  0.0399
12213W        W16613  23.028   6.186   0.938 -0.1400 -0.1714 -0.0406
12214W        W16614   3.400   1.625  21.780  0.0785  0.0989  0.0221
12215W        W16615   3.790   5.783  10.713  0.1093 -0.3996  0.1341
12216W        W16616  23.685   6.176  11.279  0.0997  0.0762  0.0054
12217W        W16617  14.035   5.513  27.089  0.0331  0.2719 -0.1543
12218W        W16618  16.618   1.980  14.599 -0.1810 -0.0801 -0.2132
12219W        W16619  18.365   4.585  11.452  0.2197  0.0104 -0.1226
12220W        W16620  22.195   6.197   9.049 -0.0987 -0.1189 -0.0401
12221W        W16621  16.994   5.506  32.381  0.0476  0.0303 -0.0984
12222W        W16622  17.230   4.750  15.176 -0.2196  0.2666  0.0860
12223W        W16623   9.236   1.666  30.352 -0.1668  0.3817 -0.1215
12224W        W16624  14.697   3.635   9.999  0.0630  0.1122 -0.0669
12225W        W16625   1.118   5.510  29.000 -0.0116  0.1377 -0.2803
12226W        W16626  18.046   4.715  28.845  0.1240 -0.0237 -0.1711
12227W        W16627  11.150   0.008  11.932 -0.0490  0.0520  0.1543
12228W        W16628  25.577   1.457  27.123 -0.0032 -0.1691 -0.1846
12229W        W16629  23.570   3.430  34.124 -0.0419  0.2536  0.0808
12230W        W16630   6.483   3.321  31.175  0.0166  0.1320 -0.0218
12231W        W16631   5.023   4.263   5.833 -0.0906  0.4477 -0.3013
12232W        W16632   3.097   3.753  26.281  0.0930 -0.1373  0.2726
12233W        W16633  18.956   0.702   9.327 -0.0283 -0.0011 -0.1955
12234W        W16634   5.994   6.337  23.111 -0.1378  0.1769  0.0159
12235W        W16635  19.496   3.372   5.077  0.0461  0.0632  0.4891
12236W        W16636  18.187   2.039  34.483  0.1903  0.1093  0.1065
12237W        W16637   5.503   6.197   1.209  0.0176  0.1861 -0.1400
12238W        W16638  14.213   0.108  29.842 -0.1006  0.0433 -0.0541
12239W        W16639  12.080   1.651  28.780 -0.2391  0.2882 -0.1050
12240W        W16640   2.809   1.974  31.828  0.0863 -0.0718 -0.1379
12241W        W16641   5.270   1.310  29.392  0.1949 -0.1337  0.3027
12242W        W16642   1.297   4.595  35.759  0.1772 -0.2394 -0.0199
12243W        W16643   0.603   5.200  32.710 -0.0211  0.2365 -0.2988
12244W        W16644  12.390   1.404   5.205 -0.2708  0.0365 -0.0401
12245W        W16645   9.630   2.393   5.146  0.1040 -0.2792 -0.0323
12246W        W16646  12.750   0.356  21.732  0.1483  0.0623 -0.2022
12247W        W16647  26.394   2.486  13.200  0.0435  0.2391 -0.0815
12248W        W16648   0.913   2.712  34.586  0.1100  0.1262  0.0346
12249W        W16649  10.323   0.442   1.721  0.0752 -0.2849  0.1672
12250W        W16650  11.627   5.657  33.042  0.0040  0.0816  0.1975
12251W        W16651   6.361   0.633  26.928 -0.3146  0.2187 -0.3706
12252W        W16652  24.480   2.086   5.697 -0.0355  0.0647  0.1439
12253W        W16653   7.247   3.297   9.329 -0.2254  0.0786  0.1789
12254W        W16654   4.577   5.431   2.199  0.3498 -0.2564  0.0289
12255W        W16655  16.241   0.583   2.709 -0.0014  0.0440 -0.1573
12256W        W16656  14.072   2.971  31.982 -0.1117 -0.2173  0.1424
12257W        W16657  16.514   6.308  24.260  0.1236 -0.1680  0.0232
12258W        W16658  22.153   3.025  27.757 -0.1150 -0.1093 -0.5116
12259W        W16659  21.249   1.915   2.211 -0.0823  0.2109  0.1991
12260W        W16660   4.823   4.105  22.535  0.1374 -0.0527 -0.5286
12261W        W16661   4.207   5.728   7.827 -0.0122  0.0407 -0.3918
12262W        W16662   2.687   2.398   6.265 -0.0437  0.1193  0.0530
12263W        W16663  14.439   6.413  30.851  0.0461 -0.0161 -0.0133
12264W        W16664  15.454   1.603   6.286  0.2038  0.2092  0.1439
12265W        W16665  13.092   1.915  26.796  0.0830 -0.1267 -0.0148
12266W        W16666   3.319   3.416  27.232  0.0875 -0.4087  0.0884
12267W        W16667   5.478   3.503  29.395  0.0850  0.0481 -0.2641
12268W        W16668  17.189   5.730   9.516  0.1436 -0.0114  0.2726
12269W        W16669  22.254   5.173  33.264 -0.0897 -0.0443  0.0125
12270W        W16670  14.456   1.296   8.820 -0.1001 -0.3925 -0.0576
12271W        W16671  10.813   1.666  22.526  0.0291 -0.3114  0.1909
12272W        W16672   6.421   1.677   3.419  0.0110 -0.0662 -0.1733
12273W        W16673  13.564   1.366  22.067  0.2742 -0.1097 -0.0941
12274W        W16674  23.048   0.079   5.140  0.1687  0.3339 -0.1768
12275W        W16675   4.022   4.664  30.982 -0.0253  0.0755 -0.1842
12276W        W16676  13.112   6.547  23.956 -0.0104 -0.1023 -0.1777
12277W        W16677  11.537   6.262  11.790  0.0179 -0.1841  0.1674
12278W        W16678   9.895   0.885   0.506 -0.1855  0.1216 -0.1311
12279W        W16679   8.840   2.627  25.445  0.2688 -0.0617  0.1743
12280W        W16680  13.812   0.956  23.012 -0.1129  0.0716 -0.0685
12281W        W16681  22.530   0.882   3.450  0.3973 -0.0902 -0.1003
12282W        W16682   0.289   1.879  31.744  0.3651 -0.1693  0.1638
12283W        W16683   2.828   0.257  21.736 -0.1257 -0.1515 -0.3067
12284W        W16684   7.452   0.294   7.015  0.1929  0.0494  0.1589
12285W        W16685   1.706   4.738  33.788  0.2657 -0.1605  0.1392
12286W        W16686  23.266   6.491  21.940  0.3027 -0.2920 -0.0994
12287W        W16687  20.399   5.207  13.721 -0.0552 -0.3058  0.0772
12288W        W16688   9.943   6.151  35.435  0.1020 -0.2826  0.1358
12289W        W16689  15.453   2.403  15.169 -0.0161 -0.0487  0.1746
12290W        W16690  15.428   6.194  10.809  0.0581 -0.0935  0.1548
12291W        W16691  20.682   4.767  11.604  0.1099  0.1418  0.2362
12292W        W16692  11.771   2.670  33.694 -0.0829  0.0209  0.3655
12293W        W16693  21.373   0.329  10.143  0.0530 -0.1170 -0.0981
12294W        W16694  22.096   2.016   7.021  0.0789  0.0980  0.0237
12295W        W16695  16.631   5.394   5.047 -0.2250  0.0234  0.2625
12296W        W16696   9.476   4.294  26.245  0.1522  0.2407 -0.1165
12297W        W16697   3.744   1.240  23.636 -0.1419 -0.1830 -0.1439
12298W        W16698   1.171   2.960  10.428 -0.0413 -0.1870 -0.1744
12299W        W16699  13.874   5.751   7.330 -0.0125  0.3284 -0.2073
12300W        W16700  13.284   2.536  31.501  0.0257  0.0059  0.1291
12301W        W16701   6.413   4.158  30.975 -0.1552 -0.1684  0.2089
12302W        W16702  26.369   3.326  11.559 -0.0273  0.0696  0.2685
12303W        W16703  17.660   6.261   9.942 -0.0446 -0.1183 -0.0279
12304W        W16704   4.522   4.362   1.882 -0.2052  0.1360  0.3690
12305W        W16705   7.793   0.405  14.551  0.2090 -0.0062  0.1041
12306W        W16706  17.035   1.689  11.129 -0.1560 -0.1256  0.0685
12307W        W16707  21.625   4.523  27.553 -0.2502 -0.0014 -0.1268
12308W        W16708  20.863   3.927   4.671  0.1913  0.1837  0.2588
12309W        W16709  12.789   5.061   9.217 -0.3950  0.1378 -0.0579
12310W        W16710  19.552   0.798  35.205  0.0628  0.1940 -0.0541
12311W        W16711   1.640   4.826  13.883  0.0449  0.1543  0.0584
12312W        W16712  14.710   1.985  24.873  0.1087 -0.2528  0.0108
12313W        W16713  21.056   2.590   4.119  0.1755 -0.2697 -0.0052
12314W        W16714  10.093   3.348   7.771  0.1498  0.1718  0.0036
12315W        W16715  23.399   0.483  21.839  0.0318 -0.0021 -0.1296
12316W        W16716  22.720   0.191   8.884  0.1410 -0.4084  0.3638
12317W        W16717   0.141   1.970  25.866  0.4920  0.2192  0.2366
12318W        W16718  11.642   0.846  34.430 -0.1907  0.1063 -0.1319
12319W        W16719  20.397   6.491   0.386  0.1231 -0.1860  0.2886
12320W        W16720   5.919   4.277   2.973  0.2467 -0.1735 -0.2733
12321W        W16721   4.103   1.812  12.575 -0.1211  0.0257  0.1287
12322W        W16722  20.707   3.795   8.114 -0.2125 -0.0127  0.3032
12323W        W16723   1.581   4.326  35.335  0.2912 -0.2253 -0.0780
12324W        W16724  22.594   2.255  11.194  0.1548 -0.0359  0.1111
12325W        W16725   7.075   0.641   3.119 -0.0788 -0.2159 -0.0487
12326W        W16726   8.359   3.490  11.372  0.3336  0.1622 -0.3013
12327W        W16727  22.388   1.224  35.721 -0.2929  0.0245  0.1551
12328W        W16728  25.953   2.356  22.304  0.1772 -0.1704  0.2273
12329W        W16729  20.119   5.642   7.691 -0.0821  0.0504  0.1346
12330W        W16730   7.762   2.054   7.308  0.2018  0.0212 -0.0468
12331W        W16731  19.273   3.156  21.807  0.1891  0.1848  0.1768
12332W        W16732   4.981   2.917  24.738  0.4254 -0.0678  0.0977
12333W        W16733  22.000   6.202   1.488 -0.2083 -0.0369  0.1595
12334W        W16734   1.788   1.570  24.040 -0.1922  0.1055  0.1753
12335W        W16735  23.465   5.992  28.384  0.2699 -0.1428 -0.0162
12336W        W16736   3.299   0.033   5.345 -0.0849  0.0212 -0.0076
12337W        W16737  15.007   0.417   9.073  0.2003  0.1803  0.1356
12338W        W16738  11.552   1.345  27.984  0.0718 -0.3177  0.3780
12339W        W16739   1.342   0.247   2.924 -0.3044  0.1108 -0.1150
12340W        W16740  23.337   5.830  31.971 -0.1507  0.2886  0.0267
12341W        W16741   0.533   6.001  29.359  0.0173  0.2657 -0.0467
12342W        W16742  13.257   5.434   2.887 -0.0902  0.0803 -0.1175
12343W        W16743   4.630   5.205  11.908 -0.0467  0.1662  0.2563
12344W        W16744  14.785   0.683  35.291  0.0864 -0.2525  0.0314
12345W        W16745   0.829   1.173  23.795  0.3897 -0.2636  0.1307
12346W        W16746  16.691   4.703  26.758  0.0528  0.1454 -0.0763
12347W        W16747  20.435   3.252  14.742 -0.1069  0.1694 -0.0681
12348W        W16748  20.864   4.041   9.907 -0.1269  0.1424 -0.1168
12349W        W16749  14.431   0.668  16.057  0.0498 -0.2854 -0.1915
12350W        W16750  11.328   2.389  30.278 -0.3648 -0.0141 -0.0042
12351W        W16751  10.846   4.905  25.507  0.2834  0.1843  0.1256
12352W        W16752   7.958   4.408   0.322  0.1453 -0.0688 -0.1580
12353W        W16753  11.747   5.528  11.510 -0.0844  0.0709  0.1813
12354W        W16754   2.196   5.896   3.182 -0.1982 -0.0698  0.0077
12355W        W16755   6.005   2.335   4.574 -0.2034 -0.2008  0.1982
12356W        W16756  14.511   3.133   6.264  0.1274  0.3348  0.1301
12357W        W16757  24.760   3.308   7.422  0.2340 -0.0347  0.2557
12358W        W16758   0.972   1.900  10.746  0.1925 -0.2078  0.3570
12359W        W16759  16.517   0.279  30.511 -0.1430 -0.1846  0.1455
12360W        W16760  22.425   3.134  12.106 -0.2406 -0.0413  0.1309
12361W        W16761  10.605   0.358  12.380 -0.0389 -0.2339 -0.0043
12362W        W16762  24.451   1.516   8.988 -0.2794  0.1437 -0.1837
12363W        W16763   0.986   4.791  28.325  0.0448  0.0584 -0.2952
12364W        W16764  22.972   2.291  13.689 -0.0914  0.1741  0.3578
12365W        W16765  17.592   1.187  28.471 -0.0328 -0.2251 -0.0382
12366W        W16766   1.927   1.114  30.663 -0.2820  0.0578  0.0967
12367W        W16767   4.323   4.024  23.927 -0.1197  0.5461 -0.0094
12368W        W16768  13.408   1.484  21.186  0.3935  0.0643  0.0771
12369W        W16769   1.007   2.489   6.470 -0.2317  0.1557  0.0647
12370W        W16770   5.441   0.689  13.066 -0.2620  0.0099 -0.1582
12371W        W16771  19.041   1.584   0.139  0.0008  0.0713 -0.4107
12372W        W16772  11.893   1.709  29.297 -0.1216  0.1218 -0.0012
12373W        W16773  25.526   2.919  29.932 -0.1213 -0.1619 -0.1284
12374W        W16774  25.233   2.551  23.313  0.3723 -0.1145  0.3521
12375W        W16775   2.153   6.187  12.414 -0.0758  0.2542 -0.1382
12376W        W16776   5.483   3.005  13.976 -0.1438  0.0620 -0.1058
12377W        W16777  17.257   0.810  33.841 -0.1663  0.1628  0.1118
12378W        W16778   6.440   2.176  11.200 -0.1371  0.1709  0.0722
12379W        W16779  26.367   1.082   0.875  0.0270  0.0807 -0.0630
12380W        W16780  22.900   3.717  30.691  0.0072 -0.0273 -0.0642
12381W        W16781  15.497   4.026  32.705 -0.2064  0.0120 -0.2150
12382W        W16782  24.756   6.429  23.300 -0.1099  0.0528 -0.0591
12383W        W16783   1.469   2.464   6.768  0.1691 -0.1236 -0.0757
12384W        W16784  11.349   2.260  14.939  0.3211 -0.0833  0.0251
12385W        W16785   7.158   1.219   6.666 -0.0236  0.0617 -0.1626
12386W        W16786   1.579   4.453  23.905 -0.1524 -0.0365 -0.2012
12387W        W16787  23.368   3.909  23.930 -0.2917 -0.1114  0.2719
12388W        W16788  22.322   0.100  29.419 -0.1759 -0.3354  0.3018
12389W        W16789  18.001   0.148  34.932 -0.1021 -0.1376  0.4020
12390W        W16790   0.355   0.275   1.587  0.0716 -0.4082  0.1180
12391W        W16791   7.271   5.924   8.376  0.0941  0.1575 -0.1807
12392W        W16792   7.065   1.500  29.411  0.2261 -0.1204  0.0609
12393W        W16793   6.844   0.758   5.628 -0.1379  0.1963  0.1226
12394W        W16794   3.370   5.083   7.085  0.0021  0.0188 -0.0126
12395W        W16795   6.769   4.587  13.389  0.0893 -0.0292  0.4036
12396W        W16796  23.269   2.035  14.189 -0.3768  0.3281 -0.2375
12397W        W16797  22.650   0.097  30.409 -0.3692 -0.0978 -0.1091
12398W        W16798   4.371   3.799  35.678  0.0198 -0.1004  0.0069
12399W        W16799  20.368   3.775   4.495 -0.1017  0.2915  0.1454
12400W        W16800   5.221   5.674   7.240 -0.2914 -0.1468  0.0989
12401W        W16801  11.358   4.413  22.515 -0.0426  0.0720 -0.0930
12402W        W16802  11.015   5.352   9.693 -0.0686 -0.1232 -0.0096
12403W        W16803  23.946   1.451  35.506 -0.0675 -0.3544  0.1078
12404W        W16804   3.299   2.695  23.339 -0.1324 -0.1816  0.0589
12405W        W16805  24.605   5.202   8.579  0.0003 -0.0220 -0.0656
12406W        W16806  23.479   6.421  10.900  0.0193 -0.0162  0.1704
12407W        W16807  21.669   3.139  22.546  0.0342 -0.1200 -0.2078
12408W        W16808  22.158   5.812   7.111 -0.0987  0.0382 -0.1094
12409W        W16809  10.961   5.188   1.627 -0.0119 -0.1053 -0.0462
12410W        W16810   9.850   6.082  33.580 -0.1814 -0.0938  0.0594
12411W        W16811   2.318   2.887   7.508 -0.2158 -0.2476 -0.0443
12412W        W16812  17.891   1.095   0.418  0.0379  0.0411 -0.0138
12413W        W16813  19.287   6.040  35.262  0.2017  0.0046  0.1360
12414W        W16814   2.728   4.582   0.220 -0.2396 -0.0822 -0.0449
12415W        W16815   2.707   4.333   6.653 -0.0850 -0.1212 -0.0782
12416W        W16816  24.318   0.949  22.068  0.1605  0.1391  0.2589
12417W        W16817  24.758   1.823  32.404 -0.1376 -0.1372  0.0847
12418W        W16818   9.716   3.287   5.112  0.2808 -0.3675 -0.3157
12419W        W16819   2.660   1.227  35.056  0.2219 -0.0990 -0.0649
12420W        W16820  14.137   0.227   7.414  0.0528  0.1507  0.0528
12421W        W16821  18.697   4.857  28.386 -0.4406  0.0202 -0.0289
12422W        W16822  11.450   5.663  11.895  0.1502 -0.1988 -0.1311
12423W        W16823  25.064   1.288   0.813  0.1685  0.1813  0.2053
12424W        W16824  22.571   1.535   3.637  0.2263 -0.0035 -0.2968
12425W        W16825   8.949   0.196  24.841 -0.0820  0.0512 -0.0605
12426W        W16826  24.560   5.712  28.217 -0.1743 -0.0241 -0.1659
12427W        W16827  10.299   3.805   2.165  0.1267 -0.0037 -0.0355
12428W        W16828   3.157   1.802   1.920 -0.2515 -0.2321 -0.0764
12429W        W16829   1.444   0.135  27.883  0.0131 -0.1156 -0.1375
12430W        W16830  22.286   2.285  22.519 -0.0515  0.0779  0.1425
12431W        W16831   7.146   4.219  13.276  0.3647  0.1391  0.1125
12432W        W16832   4.629   4.802  24.564 -0.1767 -0.2845  0.4076
12433W        W16833   8.601   0.517   8.524  0.0586  0.0917  0.1874
12434W        W16834   2.651   6.199  15.240  0.0684 -0.0385  0.0494
12435W        W16835  18.817   4.953   9.280  0.1059  0.4206 -0.1336
12436W        W16836  13.493   0.649  32.636  0.3049  0.0055 -0.1169
12437W        W16837  23.349   3.825  28.865 -0.0168 -0.2266  0.0179
12438W        W16838  11.329   2.686  27.977  0.0353  0.2960  0.0693
12439W        W16839   5.667   4.171   9.253  0.2200 -0.0216 -0.0299
12440W        W16840  23.788   6.400   4.728  0.2654 -0.3021 -0.2078
12441W        W16841   7.084   2.001  35.170 -0.1762  0.0210 -0.0430
12442W        W16842  16.005   6.265  32.416  0.4596 -0.2289  0.1034
12443W        W16843  11.054   6.549   7.929 -0.1450 -0.2128  0.2356
12444W        W16844  16.034   5.067   5.849 -0.0818 -0.0381 -0.1305
12445W        W16845  10.974   6.105   0.811 -0.1865 -0.0394 -0.1300
12446W        W16846  13.113   5.648   6.804  0.0246  0.3246  0.0004
12447W        W16847   8.128   1.881  33.271  0.0229 -0.0491 -0.1446
12448W        W16848  25.330   0.935   1.653 -0.0899  0.2675  0.1292
12449W        W16849  12.513   3.563  13.036 -0.0770 -0.1097 -0.0063
12450W        W16850   2.979   1.459  26.101 -0.1216  0.0609  0.1811
12451W        W16851  24.898   5.890  22.455 -0.0402 -0.0174  0.1116
12452W        W16852  20.510   5.019  12.912 -0.1521 -0.1162  0.2180
12453W        W16853  24.061   6.399  31.608  0.1461 -0.1284 -0.3159
12454W        W16854  23.838   3.619  28.151 -0.1222  0.1772  0.3467
12455W        W16855  15.530   6.469   5.666 -0.0287 -0.0899  0.1754
12456W        W16856   4.308   5.402  33.676  0.0770 -0.1013  0.1273
12457W        W16857  19.478   0.541   1.887  0.0431 -0.0839  0.1614
12458W        W16858  19.185   3.730  11.486 -0.0007  0.0939  0.1262
12459W        W16859   0.915   3.454  30.081  0.1101  0.0115  0.2233
12460W        W16860  24.359   5.166  30.185 -0.1131  0.0669  0.0168
12461W        W16861  13.495   3.690  13.307  0.1030  0.3569  0.0328
12462W        W16862  13.670   4.247  27.003  0.3327 -0.1080 -0.1785
12463W        W16863   3.792   2.503  29.627  0.2029  0.2462  0.2882
12464W        W16864  11.686   0.119  11.923 -0.0927 -0.1360  0.2443
12465W        W16865  10.268   3.754  13.797 -0.0217 -0.3616  0.0213
12466W        W16866   8.800   5.525  26.168 -0.3055 -0.1860  0.1902
12467W        W16867  15.296   1.538  21.450 -0.2845  0.0275 -0.0319
12468W        W16868   0.963   3.496  13.465  0.1280  0.1198  0.2398
12469W        W16869   2.987   2.484  34.508 -0.0039 -0.3178 -0.1246
12470W        W16870  11.984   1.403  25.554 -0.1154 -0.0952  0.1844
12471W        W16871  14.969   5.117   9.372  0.2090  0.2922  0.0588
12472W        W16872  10.565   0.957   3.734 -0.0098 -0.3896  0.0040
12473W        W16873   9.555   3.872   2.210 -0.1758  0.1712 -0.0093
12474W        W16874  19.301   6.057  11.088  0.1112 -0.1304 -0.1477
12475W        W16875   3.505   4.614  21.579  0.1469 -0.2077 -0.1895
12476W        W16876  11.600   1.734   2.128  0.0295 -0.1398 -0.3542
12477W        W16877  19.876   1.757  24.160 -0.1219 -0.2589 -0.4647
12478W        W16878   4.186   2.288  10.642  0.0270 -0.3897  0.1060
12479W        W16879   8.610   1.001  21.368  0.2372 -0.2641 -0.1676
12480W        W16880   6.901   1.043   8.367  0.1873  0.1142 -0.0494
12481W        W16881   6.821   3.550  22.703 -0.0862  0.1429  0.1197
12482W        W16882  18.780   0.818   5.289 -0.4009  0.2878 -0.0914
12483W        W16883  15.268   6.347  21.608 -0.2981 -0.1830  0.1329
12484W        W16884  25.056   0.521   2.011  0.0158 -0.2572 -0.0112
12485W        W16885   4.182   2.575  30.427 -0.0282 -0.0698 -0.3540
12486W        W16886  10.343   2.297  29.191 -0.0302 -0.0967 -0.1985
12487W        W16887  21.821   3.843   9.021 -0.1398  0.1812  0.3519
12488W        W16888  10.309   1.234   0.062  0.1806  0.0722 -0.3091
12489W        W16889  20.202   1.806   4.360 -0.2476  0.2035 -0.1754
12490W        W16890   8.802   1.564   3.523  0.0920  0.1748 -0.2782
12491W        W16891  26.282   4.309   8.749 -0.1298 -0.0338  0.2353
12492W        W16892  14.240   3.076  32.555  0.0965 -0.2856  0.1583
12493W        W16893  21.824   1.725  21.041  0.0758 -0.3412  0.0197
12494W        W16894   7.842   2.355  10.816 -0.0944  0.1020  0.3956
12495W        W16895   8.110   5.597   7.361 -0.2010  0.1013 -0.0867
12496W        W16896  24.511   2.921  32.296 -0.0332  0.0835  0.1351
12497W        W16897   6.728   1.821  31.216 -0.0298  0.1957  0.1475
12498W        W16898  16.777   4.645  34.989 -0.1731 -0.1509  0.0621
12499W        W16899  15.192   0.677   3.984 -0.0493  0.0245 -0.0170
12500W        W16900   8.259   2.227  34.516  0.0063  0.0782  0.0778
12501W        W16901  10.776   5.394  20.318  0.1145  0.0035 -0.2567
12502W        W16902   7.317   3.906  25.451  0.1512  0.0754  0.0404
12503W        W16903   7.873   4.945   1.006 -0.2991  0.4083  0.0882
12504W        W16904   5.635   3.880   3.265  0.0256 -0.3467  0.1165
12505W        W16905  18.467   3.599   4.106 -0.2817 -0.0668  0.1267
12506W        W16906  11.233   5.899  15.302 -0.1075 -0.0275 -0.1726
12507W        W16907  20.028   5.950   3.463  0.1964  0.2028 -0.0336
12508W        W16908   0.266   0.383   4.328  0.2173  0.1515 -0.1422
12509W        W16909  15.389   3.828   0.210 -0.0084  0.1028  0.1749
12510W        W16910   2.228   4.591   9.612 -0.0038  0.0896 -0.0852
12511W        W16911  16.397   1.851   1.384  0.3261 -0.1345 -0.1854
12512W        W16912  12.700   2.058  25.363 -0.1067 -0.1904 -0.0423
12513W        W16913  15.277   5.243  26.598  0.2579  0.0118 -0.0059
12514W        W16914  22.085   4.043  24.762 -0.0153 -0.2234  0.0704
12515W        W16915  25.512   1.595  30.248 -0.3324  0.1811  0.1390
12516W        W16916  26.127   3.461  20.501 -0.0163 -0.1137  0.2039
12517W        W16917   5.835   2.797  34.955 -0.1806 -0.1388 -0.0213
12518W        W16918  12.251   4.228   5.411  0.0658 -0.1696  0.1798
12519W        W16919  20.767   3.101  15.095 -0.0167 -0.0073 -0.1997
12520W        W16920   3.263   3.986  23.316 -0.0036 -0.0312  0.0642
12521W        W16921  11.652   6.240   8.642  0.1134  0.1556  0.0179
12522W        W16922  20.610   2.813  14.506  0.1480 -0.0823 -0.1266
12523W        W16923  26.085   1.752  25.260 -0.0173  0.3632 -0.2598
12524W        W16924  10.697   6.561   3.961 -0.0595 -0.1316 -0.1191
12525W        W16925   5.485   2.958  27.929 -0.2301 -0.0650 -0.0435
12526W        W16926  18.093   0.727  35.820  0.1817  0.2365 -0.1814
12527W        W16927   6.444   3.413   4.192 -0.1944  0.2301 -0.0609
12528W        W16928  14.482   5.588   1.372  0.0374  0.0307 -0.0218
12529W        W16929  18.814   0.534   6.740  0.2338  0.1064 -0.0877
12530W        W16930  14.638   3.624  26.315 -0.1152 -0.1836  0.3091
12531W        W16931  13.611   1.579   7.516 -0.2494  0.2910  0.0505
12532W        W16932  15.174   1.917  10.344 -0.0555  0.1959  0.1078
12533W        W16933  22.031   6.285  32.573  0.0548 -0.1297 -0.1327
12534W        W16934   4.411   1.807  10.429  0.0325 -0.1235  0.2185
12535W        W16935  20.973   0.672  21.134  0.0926 -0.0017 -0.1509
12536W        W16936  17.094   3.557   3.090  0.1248 -0.0630  0.2050
12537W        W16937  26.360   5.128   2.788  0.0478 -0.3267 -0.1931
12538W        W16938  12.345   1.115  13.351  0.1904 -0.0293 -0.0080
12539W        W16939   4.350   1.960  33.188 -0.0159 -0.0210  0.1546
12540W        W16940   6.336   5.097   3.045 -0.0600 -0.2152  0.0173
12541W        W16941  11.604   4.287  15.892 -0.1447  0.1381 -0.0908
12542W        W16942  23.028   2.200   6.954 -0.0306 -0.1725  0.0135
12543W        W16943  12.384   3.240   0.176 -0.0876  0.0755 -0.0161
12544W        W16944   4.098   3.682  24.589 -0.1663 -0.0420 -0.1742
12545W        W16945   7.660   0.649   8.096  0.4246 -0.1343 -0.1672
12546W        W16946  25.581   5.444  33.397  0.2151 -0.1746  0.0016
12547W        W16947  24.480   4.391  29.768 -0.0684 -0.3138 -0.0637
12548W        W16948  26.385   4.306  24.838 -0.0655 -0.4228 -0.1192
12549W        W16949  25.402   2.236  24.611 -0.2800 -0.2424  0.0916
12550W        W16950  17.742   5.403   5.923 -0.0599 -0.2039 -0.0152
12551W        W16951   2.712   1.069  33.734  0.2547  0.1036  0.0421
12552W        W16952  23.588   6.287  29.613  0.0662  0.0285  0.0256
12553W        W16953  16.271   5.395  34.692  0.1662 -0.0152 -0.0093
12554W        W16954  11.255   5.994  28.914 -0.2572 -0.0686 -0.0025
12555W        W16955  22.553   3.602  31.020 -0.2937 -0.0030 -0.0851
12556W        W16956   9.715   2.750  33.699 -0.0106  0.0974 -0.0301
12557W        W16957   8.321   0.535   1.512  0.2836  0.0457 -0.2274
12558W        W16958   7.931   1.819  25.411 -0.0571 -0.1103  0.0633
12559W        W16959   0.045   2.465  20.283 -0.1158  0.1607  0.1212
12560W        W16960   9.290   4.570   6.199 -0.0229  0.1852 -0.3157
12561W        W16961  25.377   1.745   4.696 -0.0692  0.1097  0.0906
12562W        W16962   4.101   3.305  30.127 -0.0254  0.0149  0.2040
12563W        W16963  15.205   0.304  29.213  0.3929  0.1063 -0.0492
12564W        W16964   1.350   5.568  28.556  0.0684  0.1292  0.0106
12565W        W16965  21.303   3.586   7.526  0.2306 -0.0558 -0.1072
12566W        W16966  25.993   0.285  36.094 -0.1251 -0.1291  0.1410
12567W        W16967  16.059   4.994  14.101  0.1381  0.1139  0.0738
12568W        W16968  17.749   0.221   2.184  0.2005 -0.1769 -0.2681
12569W        W16969   2.410   1.683  13.616 -0.0941 -0.0223 -0.3339
12570W        W16970  20.046   3.315   0.779  0.1555 -0.0488 -0.1296
12571W        W16971   8.157   3.468   1.195  0.1099 -0.1063 -0.1833
12572W        W16972  12.859   3.947   2.911  0.2650  0.0003 -0.0200
12573W        W16973   6.178   5.120   1.478 -0.0109  0.0438 -0.0939
12574W        W16974  25.200   6.272   6.335  0.0010 -0.0993 -0.0283
12575W        W16975  15.520   2.343   3.583  0.2589 -0.1802  0.1373
12576W        W16976  16.719   4.955  30.226 -0.3296 -0.0188 -0.2532
12577W        W16977  20.103   1.742   9.457  0.2961 -0.0689  0.0474
12578W        W16978  25.012   6.278  13.488 -0.1260 -0.2231  0.0410
12579W        W16979   7.136   0.370   2.220  0.2963  0.0669 -0.0069
12580W        W16980   4.533   1.004  24.398  0.2262  0.1864  0.0060
12581W        W16981   4.191   0.771   0.313  0.1861 -0.0444  0.2593
12582W        W16982  14.823   1.603  21.101  0.4243 -0.2783 -0.0397
12583W        W16983  16.514   0.407  28.473 -0.1859 -0.2134 -0.0847
12584W        W16984  22.238   5.103   7.946 -0.0803 -0.0379  0.1297
12585W        W16985  22.535   5.582  24.603  0.2062  0.0557  0.1185
12586W        W16986  25.836   1.084   5.895  0.2415  0.0918 -0.1897
12587W        W16987  22.929   6.520  14.310  0.1325 -0.3594  0.0488
12588W        W16988  21.815   5.413   7.317  0.1269  0.0108 -0.2424
12589W        W16989  19.701   5.691  29.384  0.2206  0.0358 -0.0745
12590W        W16990   8.886   5.154  21.182  0.3492 -0.3089 -0.2148
12591W        W16991  23.028   5.958   3.747  0.1163 -0.1558 -0.0150
12592W        W16992   3.354   5.069  21.786 -0.0017 -0.0792 -0.3761
12593W        W16993   4.689   2.550  12.572  0.2163  0.1806  0.0937
12594W        W16994  11.051   0.237   3.215 -0.0174 -0.5442 -0.0459
12595W        W16995  11.852   0.178  12.922  0.1013  0.4444 -0.0065
12596W        W16996  15.039   5.809  29.523  0.0620  0.1259  0.0823
12597W        W16997   3.903   3.777  27.800  0.2195  0.1862  0.0223
12598W        W16998   5.463   4.460   4.133 -0.1866 -0.0406  0.0485
12599W        W16999  15.322   6.299  15.138  0.1284  0.0227 -0.2319
12600W        W17000  10.854   0.478   4.757 -0.2907  0.1070  0.0853
12601W        W17001  26.422   2.004  31.331 -0.3202  0.0620  0.1739
12602W        W17002  18.488   4.332  12.221  0.1454  0.2090  0.0638
12603W        W17003  15.460   1.713  29.103 -0.0770  0.0806 -0.0675
12604W        W17004  19.632   3.805  30.172  0.2598 -0.3038  0.0673
12605W        W17005  23.542   1.253   5.658  0.1028 -0.0224  0.0786
12606W        W17006  19.248   2.297   8.204 -0.0694  0.1284  0.0623
12607W        W17007   2.053   5.637  31.638  0.2084  0.1012  0.0135
12608W        W17008  13.750   6.482   7.002 -0.0268 -0.0862 -0.1485
12609W        W17009  14.867   5.462  26.480  0.0130 -0.0751 -0.1241
12610W        W17010   9.721   5.466  22.444 -0.2409  0.3176 -0.1803
12611W        W17011  16.828   1.034  14.421  0.1719  0.1268 -0.1158
12612W        W17012  22.006   0.224  13.820 -0.1113  0.1890 -0.1417
12613W        W17013  14.198   0.101  21.938  0.2404  0.0259  0.0162
12614W        W17014  25.625   5.247  27.999 -0.0076  0.1950  0.1126
12615W        W17015  24.393   0.606   0.050  0.1672 -0.1369  0.1973
12616W        W17016   7.696   4.674  10.873  0.0279  0.1861 -0.0760
12617W        W17017   8.973   3.681  33.444 -0.0132  0.4087  0.0545
12618W        W17018  23.549   3.263   1.045  0.2809  0.0500  0.1956
12619W        W17019  26.218   3.644  29.476  0.2729 -0.1350  0.3813
12620W        W17020  21.644   2.124   6.730  0.2893  0.5507  0.1965
12621W        W17021  25.360   4.919  32.580  0.2478 -0.0142 -0.1187
12622W        W17022   6.027   1.080   3.825 -0.0826  0.2351  0.1309
12623W        W17023   1.423   4.596  13.463  0.0979 -0.0922 -0.1815
12624W        W17024  18.112   4.748   2.558 -0.4090 -0.0665  0.1789
12625W        W17025  14.860   1.982  32.664 -0.1171  0.0890 -0.0305
12626W        W17026  11.818   2.371  33.124  0.1550  0.0688  0.2676
12627W        W17027   6.751   5.314  30.171  0.2498 -0.0882  0.3649
12628W        W17028  18.692   4.355  11.130 -0.3081 -0.2147  0.1601
12629W        W17029  10.566   5.833  13.033  0.0746 -0.0345  0.2222
12630W        W17030  17.913   4.836  29.307  0.3609  0.0007 -0.0143
12631W        W17031   3.414   5.634  28.670 -0.2591  0.1913 -0.1004
12632W        W17032   6.842   5.551  25.860  0.2654  0.0075 -0.1222
12633W        W17033   6.296   1.356  35.874  0.0479  0.2196 -0.2293
12634W        W17034   4.353   4.350  35.606 -0.1745 -0.0272  0.2274
12635W        W17035   4.170   1.734   1.808  0.1893  0.0171 -0.1374
12636W        W17036  15.642   4.803   0.184  0.1574  0.2015 -0.3022
12637W        W17037   3.306   2.898  31.927 -0.1670  0.1277  0.0569
12638W        W17038  19.214   4.544   6.781  0.3007 -0.1700 -0.0319
12639W        W17039   5.889   3.453   5.456 -0.0178  0.1465  0.0256
12640W        W17040   0.392   1.455  24.781 -0.1139  0.0526  0.0068
12641W        W17041  16.923   5.754   5.832  0.3359 -0.1120 -0.0990
12642W        W17042  11.509   5.157  28.647  0.2629  0.1397  0.0119
12643W        W17043  10.668   6.202  34.684 -0.1968 -0.1875 -0.3994
12644W        W17044  24.998   3.076  13.820 -0.0796 -0.0804  0.1524
12645W        W17045  18.948   2.967  15.002 -0.2217  0.0934 -0.1362
12646W        W17046  16.097   2.789   1.934  0.0241 -0.1052 -0.1842
12647W        W17047   2.040   1.588  22.821 -0.3651  0.3336 -0.1158
12648W        W17048  15.207   6.484  35.633  0.0352  0.2130  0.1539
12649W        W17049  21.316   4.716  23.243  0.2648 -0.0886 -0.1027
12650W        W17050  17.946   2.728  22.840  0.0100  0.0317  0.1355
12651W        W17051   7.680   3.582  25.675 -0.1423  0.0510 -0.1528
12652W        W17052   6.663   2.088   5.187 -0.0352 -0.0265  0.2580
12653W        W17053  18.097   2.551   2.479  0.0843 -0.0313 -0.1127
12654W        W17054  24.352   5.266  24.002  0.0787 -0.1518 -0.3660
12655W        W17055  19.075   5.464  13.160 -0.1478 -0.0936  0.0974
12656W        W17056  14.158   0.901  12.248 -0.2091 -0.0458 -0.0308
12657W        W17057  25.530   3.289  11.986  0.0774 -0.1402  0.0952
12658W        W17058  14.274   2.007  15.174  0.2785  0.0237 -0.1298
12659W        W17059  24.103   5.015  26.066 -0.0913  0.2850 -0.0337
12660W        W17060   3.250   5.721  25.105  0.0625 -0.2312 -0.0586
12661W        W17061  19.535   6.235  11.476 -0.2644 -0.3530 -0.1655
12662W        W17062   4.823   4.657  21.356  0.1312  0.0360  0.4120
12663W        W17063   3.642   6.106  33.636 -0.0628 -0.2264  0.1233
12664W        W17064   5.255   1.938   4.994 -0.3499 -0.0307 -0.3560
12665W        W17065  15.740   1.683  22.565 -0.2154  0.1412  0.0885
12666W        W17066  24.364   4.086  29.394  0.0912 -0.0114  0.2646
12667W        W17067  24.789   3.497   2.232  0.2015 -0.0496 -0.2162
12668W        W17068  21.166   3.480  36.170  0.0132 -0.0697 -0.2372
12669W        W17069   5.294   1.130  35.561  0.2814  0.0547 -0.3900
12670W        W17070  15.042   1.836  29.850 -0.1210 -0.1534  0.0683
12671W        W17071  11.950   1.579  21.302  0.1068 -0.0033 -0.3577
12672W        W17072  22.439   3.886   5.982  0.1080  0.0577  0.0074
12673W        W17073  21.332   3.848  33.087  0.0525 -0.0926 -0.0293
12674W        W17074   9.054   4.544   8.036 -0.2919  0.0967  0.0692
12675W        W17075  14.039   6.098   4.950  0.1421 -0.1951  0.0049
12676W        W17076  15.683   3.409  11.018 -0.1523  0.1850 -0.3845
12677W        W17077  22.680   1.825   0.478 -0.1422 -0.0320 -0.1940
12678W        W17078  23.197   3.564  11.324 -0.0694 -0.1853  0.1008
12679W        W17079  22.795   4.025   7.601 -0.0094  0.1974  0.0439
12680W        W17080  14.963   0.938   2.209  0.1047 -0.3689  0.0583
12681W        W17081  19.513   0.300  28.930 -0.0707  0.1331  0.1197
12682W        W17082  12.574   6.264   4.230 -0.1352 -0.1824 -0.2410
12683W        W17083  18.279   4.112  10.348  0.0378 -0.0701 -0.2229
12684W        W17084  20.775   2.626  13.452  0.1634 -0.0656  0.0326
12685W        W17085  26.341   0.818   8.015  0.1918  0.0763  0.1242
12686W        W17086   5.440   4.051  34.732 -0.3393  0.0176 -0.1596
12687W        W17087  24.546   0.147  34.460 -0.0213  0.0690  0.2191
12688W        W17088  20.097   5.785   4.532 -0.2319  0.0127  0.2760
12689W        W17089  25.662   5.709  12.762 -0.1964  0.2122  0.0839
12690W        W17090  13.849   0.098  23.069  0.0058  0.2072 -0.1939
12691W        W17091   9.758   5.056  27.956  0.0974 -0.2225  0.0347
12692W        W17092  13.693   2.836  14.489  0.1965 -0.1226 -0.3345
12693W        W17093  15.190   3.178  12.303  0.4847  0.1844  0.1395
12694W        W17094  15.376   1.062  11.880  0.4304  0.0721  0.0570
12695W        W17095  22.124   1.181  21.219 -0.2278  0.1859  0.1539
12696W        W17096  24.614   4.730  31.519 -0.3348  0.0539 -0.1672
12697W        W17097  17.023   2.008   0.597 -0.0173 -0.0402  0.1254
12698W        W17098   2.768   5.307  32.585 -0.2867  0.1250 -0.0333
12699W        W17099  22.855   4.603   9.639 -0.0729  0.2240  0.0589
12700W        W17100   8.357   2.897  23.430  0.1535 -0.2463  0.1159
12701W        W17101  12.375   2.191  31.831 -0.0252 -0.1446 -0.0768
12702W        W17102  18.282   4.066  20.990  0.0375 -0.0038  0.1337
12703W        W17103  12.756   4.595  30.279  0.0256 -0.1487  0.1145
12704W        W17104   6.771   0.168   5.462 -0.0279 -0.0015  0.1358
12705W        W17105  13.089   3.748  29.934  0.2824  0.0733 -0.1462
12706W        W17106  15.584   6.429  22.111 -0.0458 -0.1907  0.0512
12707W        W17107   7.516   2.003   6.870  0.2606 -0.2246  0.1058
12708W        W17108   8.636   3.682   1.932  0.0827  0.0480 -0.0525
12709W        W17109  15.335   6.144   8.637 -0.1269  0.2644  0.0534
12710W        W17110  12.288   0.300  31.315 -0.0941 -0.1580 -0.0197
12711W        W17111  15.639   3.529  23.838 -0.0354  0.0362  0.2963
12712W        W17112  17.203   2.188  13.956  0.0633 -0.2087 -0.0053
12713W        W17113  19.345   0.474   0.526 -0.0608  0.0417 -0.1155
12714W        W17114  20.418   2.519  11.099  0.1155  0.0070 -0.1609
12715W        W17115  22.496   3.105   0.914 -0.0103 -0.2144 -0.0974
12716W        W17116   2.931   0.699  25.432 -0.2624 -0.0105 -0.0210
12717W        W17117   6.897   3.178  10.238  0.0266 -0.1685  0.0544
12718W        W17118  15.506   3.361   5.103 -0.0598 -0.1714 -0.2106
12719W        W17119  26.267   6.589   2.309 -0.0445 -0.0100 -0.1578
12720W        W17120  10.378   2.448  27.848  0.2410 -0.0116 -0.2954
12721W        W17121  12.204   1.041   8.670  0.0019 -0.0897  0.3983
12722W        W17122  13.421   3.297  22.930 -0.0108 -0.3325 -0.0998
12723W        W17123  20.838   3.984  25.656  0.0868 -0.1264  0.0348
12724W        W17124  13.003   2.452  10.997  0.2873 -0.2821  0.2397
12725W        W17125  10.181   4.626   3.116  0.1842 -0.4177  0.1755
12726W        W17126  24.220   4.894  29.774 -0.1146 -0.0567 -0.1954
12727W        W17127  13.503   3.162  11.403  0.1926  0.0045 -0.0395
12728W        W17128  26.252   6.208  28.112 -0.3680  0.1009 -0.1340
12729W        W17129   8.557   6.315   3.196  0.1989  0.0401  0.0805
12730W        W17130   1.511   3.028   4.556 -0.3318  0.0617 -0.2298
12731W        W17131  10.602   1.108  24.554 -0.0648  0.2249 -0.0696
12732W        W17132  20.328   4.001   2.419 -0.0289 -0.0845 -0.3009
12733W        W17133  19.069   2.510  25.394 -0.1223 -0.0149 -0.4569
12734W        W17134  15.453   2.678   0.920  0.0466 -0.2915  0.0063
12735W        W17135   0.539   1.407  13.764 -0.2922 -0.1257 -0.0408
12736W        W17136  12.058   5.709  13.943  0.1274 -0.0586  0.1853
12737W        W17137   0.914   0.495  28.693  0.3362 -0.0939 -0.0279
12738W        W17138  26.227   0.702  24.387  0.0374 -0.1403 -0.1094
12739W        W17139  11.876   3.987  33.486 -0.2439 -0.3231  0.1686
12740W        W17140   7.658   5.078  32.839 -0.1370  0.0314 -0.2124
12741W        W17141  13.052   3.752   6.547  0.1047 -0.0954  0.2337
12742W        W17142  14.092   2.297  34.268  0.1871 -0.6582  0.0358
12743W        W17143   5.021   0.293  24.538  0.1724  0.0319  0.3100
12744W        W17144   5.086   1.285  22.534 -0.1722 -0.1954  0.1143
12745W        W17145   2.316   0.252  10.933 -0.0638  0.0435  0.2332
12746W        W17146   6.780   4.807  31.561 -0.2574 -0.1235 -0.0145
12747W        W17147   2.194   2.262  35.495 -0.0124 -0.3726 -0.2410
12748W        W17148  16.849   6.510  28.948 -0.2230  0.1568  0.1434
12749W        W17149   2.268   5.885   0.403  0.3670  0.1276  0.0599
12750W        W17150  19.816   4.012  35.291  0.0816 -0.1916 -0.2918
12751W        W17151  16.988   3.791  20.313 -0.0452  0.0225 -0.0996
12752W        W17152   8.804   1.071   2.142 -0.2555 -0.2320  0.1027
12753W        W17153  13.851   2.590  29.860  0.1770  0.0546  0.0002
12754W        W17154  13.369   3.924  11.659 -0.1317 -0.2811  0.0536
12755W        W17155   5.629   5.405   4.590  0.0601 -0.1182  0.3162
12756W        W17156   3.405   2.607  27.160  0.2746 -0.0087  0.3919
12757W        W17157   8.406   3.200  32.383  0.2481 -0.1725 -0.1420
12758W        W17158   1.551   1.648  21.344  0.1136  0.1840  0.1075
12759W        W17159  16.402   2.494  29.436 -0.1280 -0.1368  0.0123
12760W        W17160   8.600   3.985  22.238  0.1486  0.0137  0.1228
12761W        W17161   6.112   0.276  26.073  0.0281 -0.1677 -0.1983
12762W        W17162  17.999   6.606  22.609 -0.0175  0.2897  0.3162
12763W        W17163   7.475   1.080   7.013 -0.0810  0.6843  0.0561
12764W        W17164   8.751   2.942   9.396 -0.2912 -0.0379 -0.1366
12765W        W17165   1.450   2.367  29.635 -0.2585 -0.2359 -0.1439
12766W        W17166   9.467   3.134   4.147 -0.0038 -0.0261 -0.3509
12767W        W17167  14.646   4.825  20.503  0.1975  0.0284 -0.3399
12768W        W17168  19.532   6.570   8.995 -0.0611  0.0567  0.3839
12769W        W17169   5.956   3.577   4.068  0.1945  0.0501 -0.0834
12770W        W17170  24.039   1.334  13.407  0.2752 -0.0091  0.3055
12771W        W17171   8.883   0.720  15.307  0.0497  0.1452  0.0554
12772W        W17172  24.018   1.115  34.565  0.2071 -0.1060 -0.1827
12773W        W17173   1.353   6.118   9.450 -0.2811  0.0732 -0.0951
12774W        W17174  25.727   5.311  14.390  0.0954  0.1238 -0.0049
12775W        W17175  12.639   0.129   0.384  0.1372  0.0796  0.4011
12776W        W17176  21.984   0.338   7.670  0.0441  0.0415  0.0390
12777W        W17177  15.345   5.648   2.928 -0.0153  0.0682 -0.0020
12778W        W17178   7.812   5.743   4.242  0.0514  0.0099  0.0273
12779W        W17179  18.654   3.572   5.730  0.0448 -0.3197 -0.0668
12780W        W17180  13.686   5.607   6.873 -0.1797 -0.0340 -0.1572
12781W        W17181   9.948   5.070  15.339  0.1030  0.1354  0.0046
12782W        W17182  18.628   1.932  35.279  0.0763  0.3608 -0.4038
12783W        W17183  13.228   5.611  34.522  0.0534  0.0064 -0.2046
12784W        W17184   7.730   4.598  28.885  0.1275 -0.1997  0.1678
12785W        W17185  23.252   5.936   8.651  0.0144 -0.1478  0.2835
12786W        W17186   9.063   6.338   2.333 -0.3036 -0.3774  0.0864
12787W        W17187   9.357   1.474  10.569  0.0759 -0.2135  0.1582
12788W        W17188  17.699   2.718  26.773  0.3972  0.2576 -0.1196
12789W        W17189   5.368   2.314  23.333 -0.0929 -0.1276 -0.0461
12790W        W17190  11.398   1.781  24.387  0.1039 -0.0691  0.3769
12791W        W17191  13.306   0.097  24.453  0.0016  0.1792  0.0557
12792W        W17192  10.463   4.049  12.678  0.0580  0.3321  0.6963
12793W        W17193  14.502   1.213   0.568  0.3572  0.0952  0.0358
12794W        W17194   8.591   4.050  25.864 -0.1514 -0.1876  0.3418
12795W        W17195   7.158   3.595   8.018  0.2208 -0.2110  0.1295
12796W        W17196  25.502   1.764  27.946 -0.0369 -0.0811 -0.2644
12797W        W17197  17.380   5.678  11.774  0.2303  0.1468  0.3102
12798W        W17198  18.637   6.466   0.118  0.0905  0.2217 -0.2294
12799W        W17199  14.414   3.268  31.212  0.1325 -0.0478 -0.2382
12800W        W17200  12.640   0.340  12.176  0.0874 -0.1531  0.1724
12801W        W17201   6.520   0.329   1.026  0.3531 -0.2062  0.0852
12802W        W17202  24.314   4.315  15.022 -0.0626  0.0853 -0.1322
12803W        W17203   5.594   1.456  34.154  0.0443 -0.0686  0.0147
12804W        W17204  21.805   0.138  12.515 -0.1099 -0.2079 -0.0409
12805W        W17205  12.327   6.561  24.466  0.0889  0.0894 -0.0308
12806W        W17206   3.205   3.953  22.193 -0.2088 -0.1108  0.1842
12807W        W17207  12.164   2.370  10.828 -0.2387  0.0637 -0.0850
12808W        W17208   0.719   3.465   3.287  0.1458  0.0277  0.2816
12809W        W17209  26.034   2.397  21.306  0.1546  0.2507  0.0038
12810W        W17210  11.495   2.123  14.416 -0.1255 -0.2240 -0.0787
12811W        W17211   1.585   1.172  13.660  0.0666 -0.1528 -0.2131
12812W        W17212   7.852   3.875  14.519  0.2378  0.1165  0.0221
12813W        W17213  24.076   2.960   0.687  0.2766 -0.1585 -0.0873
12814W        W17214  14.511   2.488   4.859 -0.0889 -0.2414  0.0302
12815W        W17215   5.644   0.924   6.786  0.0294 -0.0185  0.2513
12816W        W17216   3.322   6.540  29.159  0.0625 -0.2245 -0.2584
12817W        W17217  14.037   0.646   2.668  0.1882  0.1387  0.2031
12818W        W17218   3.459   3.706  11.746  0.1452 -0.0586 -0.3061
12819W        W17219  12.166   2.736   1.519 -0.2477  0.0563  0.3075
12820W        W17220   3.127   1.988  10.016 -0.0005  0.0765  0.0911
12821W        W17221  21.852   4.256  29.463  0.0352 -0.2199  0.1435
12822W        W17222  15.206   1.357   2.503 -0.1115 -0.0543  0.2794
12823W        W17223  12.024   1.617   2.355  0.2375 -0.2108  0.0507
12824W        W17224  14.601   3.610  35.139 -0.0006  0.0822 -0.1104
12825W        W17225  11.798   1.796   2.824 -0.3281 -0.1528  0.1803
12826W        W17226   9.920   4.546  23.170 -0.1332  0.1414 -0.2168
12827W        W17227  26.239   5.228   7.296  0.0619 -0.0721  0.3480
12828W        W17228  24.154   5.673  23.664  0.1130  0.1186  0.1788
12829W        W17229  25.789   3.371   7.339  0.1722  0.0751  0.4028
12830W        W17230  22.320   2.993   4.158 -0.0577 -0.1687  0.3427
12831W        W17231  19.571   5.877  10.285  0.1012 -0.2026  0.0531
12832W        W17232  25.074   1.693  26.970  0.1132  0.0570 -0.1306
12833W        W17233   5.422   3.283  35.609 -0.0210  0.2610  0.0448
12834W        W17234  16.720   5.303  13.526 -0.4527 -0.1447  0.1293
12835W        W17235  22.188   1.610   7.293 -0.1191  0.2230  0.1815
12836W        W17236  17.093   5.913  23.871 -0.0798 -0.1253  0.0738
12837W        W17237   3.357   0.254  30.463  0.2841  0.0703 -0.1161
12838W        W17238   6.037   0.133  11.786  0.2907  0.0759  0.0709
12839W        W17239  17.879   1.524  21.089 -0.0460  0.2062 -0.2084
12840W        W17240   7.324   3.705  24.030  0.3122 -0.1018  0.2144
12841W        W17241  17.240   2.540   8.692 -0.2703  0.1113  0.1434
12842W        W17242  13.801   2.557  16.233  0.2337 -0.2156 -0.5050
12843W        W17243   8.117   1.643  23.353  0.3208  0.1819 -0.0327
12844W        W17244   3.355   5.983  25.516 -0.0780 -0.0242  0.1363
12845W        W17245   3.876   1.688   3.952 -0.4001  0.0424  0.0205
12846W        W17246  13.560   6.152  15.207  0.1011 -0.0495 -0.1051
12847W        W17247   7.328   5.645   1.377  0.3108  0.0436 -0.1328
12848W        W17248   3.618   2.529  23.771  0.1340  0.1388  0.1081
12849W        W17249  22.978   5.436  27.196  0.1759 -0.0115  0.0422
12850W        W17250   8.825   6.124   2.749 -0.0580 -0.0474 -0.0203
12851W        W17251   7.826   6.062  23.255  0.0498  0.1425 -0.1224
12852W        W17252  12.604   4.525   5.766  0.0489 -0.1854 -0.0873
12853W        W17253   1.697   1.384   3.049  0.1077  0.0120  0.0350
12854W        W17254   8.181   4.855  28.783  0.1682  0.0683  0.2368
12855W        W17255  24.816   2.002  13.353 -0.0332 -0.0164  0.0806
12856W        W17256  16.303   5.345   4.212 -0.1189 -0.0664  0.2536
12857W        W17257   4.215   5.448  23.882 -0.2396  0.0835 -0.1454
12858W        W17258  17.716   4.791  21.995  0.0056  0.0754 -0.0890
12859W        W17259   1.748   1.423   4.122  0.0238 -0.1238 -0.2110
12860W        W17260  25.410   0.556  34.857  0.1499  0.0939 -0.1438
12861W        W17261  23.319   5.509  24.808  0.1626 -0.0393  0.0437
12862W        W17262  25.375   5.010  36.167 -0.0461 -0.0317 -0.3645
12863W        W17263   4.095   4.026  10.409  0.2874  0.0343  0.0215
12864W        W17264   7.867   0.597   6.064  0.2386  0.1001  0.0272
12865W        W17265  14.580   0.903  27.055 -0.1846  0.1906 -0.3243
12866W        W17266  19.926   4.236  30.431 -0.2936 -0.1084  0.2017
12867W        W17267  18.902   0.668  21.817 -0.0935 -0.0917 -0.0456
12868W        W17268   3.105   2.352   0.044 -0.4035 -0.0077 -0.0157
12869W        W17269   0.264   2.110   3.089 -0.1035 -0.1419 -0.0254
12870W        W17270   0.706   4.799  30.838  0.2869 -0.0683  0.3986
12871W        W17271  25.839   2.234  31.208  0.3393 -0.0396  0.0781
12872W        W17272   0.757   0.056  28.374 -0.2804  0.1055  0.0049
12873W        W17273  24.367   2.751   9.779 -0.0404 -0.4040  0.2745
12874W        W17274  20.649   1.717  11.501 -0.1294 -0.1972  0.1563
12875W        W17275  16.120   4.386  32.137  0.0599 -0.0933 -0.0887
12876W        W17276  21.270   1.167  11.791 -0.1268 -0.1126  0.4684
12877W        W17277   2.178   4.900  27.911  0.0206  0.2601  0.0724
12878W        W17278  22.613   1.196   8.421  0.1405  0.0978  0.0976
12879W        W17279   1.255   0.894  32.624  0.3516  0.2314  0.0048
12880W        W17280   3.278   6.331  21.809  0.0577  0.0819 -0.4264
12881W        W17281  11.095   4.394  33.545  0.1786 -0.1142  0.0796
12882W        W17282   3.184   0.149   1.947 -0.2373 -0.1277  0.0580
12883W        W17283   8.159   6.161  28.535  0.0133  0.1665  0.1368
12884W        W17284   6.937   2.971   2.294 -0.3707  0.2175  0.2122
12885W        W17285   9.993   3.402  15.528 -0.1150 -0.1146  0.3630
12886W        W17286  17.001   6.537  11.504  0.2895  0.0046  0.0841
12887W        W17287   1.838   4.015  32.167 -0.3183 -0.1499  0.0618
12888W        W17288   7.337   6.411  25.118  0.0600 -0.1249  0.2335
12889W        W17289  11.785   1.618  24.688  0.1038  0.5494  0.4181
12890W        W17290   3.316   3.026  27.531 -0.2939 -0.1877 -0.0082
12891W        W17291   8.872   1.029  22.362  0.1890 -0.2042 -0.2236
12892W        W17292  10.907   4.334  25.857 -0.0122  0.0966  0.2685
12893W        W17293  16.868   5.881   7.949  0.3434  0.4209 -0.4189
12894W        W17294  10.418   0.268  35.342  0.0592  0.0106  0.0533
12895W        W17295   2.166   0.511   4.535  0.1226 -0.2442 -0.1106
12896W        W17296  16.624   0.838  25.710 -0.1003 -0.0019  0.1447
12897W        W17297  16.605   2.651  21.322 -0.3635 -0.0592  0.0686
12898W        W17298  19.192   2.453  29.476 -0.0934  0.3970 -0.3529
12899W        W17299   4.142   6.165  10.172  0.0621  0.0964  0.0266
12900W        W17300   1.768   4.203  12.077  0.2388  0.0727  0.1956
12901W        W17301  16.446   4.712  24.538 -0.1342 -0.0172  0.0993
12902W        W17302  19.958   1.842   8.561 -0.2716  0.0858  0.0021
12903W        W17303  19.641   3.440  26.384  0.0016  0.1260  0.1393
12904W        W17304   3.381   5.918   3.467  0.1313  0.1619  0.0445
12905W        W17305   4.242   3.171  25.612 -0.2230 -0.1614 -0.1935
12906W        W17306  25.575   1.403   6.640 -0.0901 -0.0253 -0.0207
12907W        W17307   9.614   5.128   4.649  0.0843  0.0928  0.1592
12908W        W17308  10.002   1.344  31.110 -0.1667  0.0476 -0.0125
12909W        W17309  10.491   4.712  24.538  0.0219 -0.0769  0.0649
12910W        W17310  14.046   6.234  33.525 -0.3378 -0.0946  0.2785
12911W        W17311   5.764   0.567  32.495  0.0515  0.0462  0.0617
12912W        W17312  22.945   0.138  30.873  0.0594  0.1431 -0.0252
12913W        W17313  23.757   3.382   2.967 -0.0901  0.1511  0.0628
12914W        W17314   1.965   6.051   1.236  0.3286 -0.0186 -0.4344
12915W        W17315  22.164   4.372   9.163  0.1867 -0.0174  0.1206
12916W        W17316  19.224   1.637   2.922 -0.0994  0.0203 -0.0405
12917W        W17317  13.969   0.869  10.522  0.1634 -0.1075  0.2959
12918W        W17318  18.553   0.943  31.206  0.0916 -0.2216 -0.1765
12919W        W17319   6.545   0.435  13.125  0.0518 -0.1146 -0.3154
12920W        W17320  11.736   3.681   5.012 -0.5010 -0.0544 -0.0144
12921W        W17321  22.875   3.521   5.757 -0.1059  0.0401 -0.2187
12922W        W17322   5.506   5.508  34.648  0.0464  0.2528  0.2658
12923W        W17323  10.228   4.138   0.921  0.3513  0.0827  0.1726
12924W        W17324   0.455   2.705  20.592  0.1248  0.1780 -0.1686
12925W        W17325  10.652   4.760  26.057 -0.0364  0.3829  0.2003
12926W        W17326   3.894   3.936  22.088 -0.3039 -0.2256  0.0674
12927W        W17327   1.837   2.378  31.138  0.1339 -0.0801  0.0981
12928W        W17328  22.086   2.305   0.984  0.0208 -0.3703 -0.4384
12929W        W17329  21.164   0.348  35.186  0.0769  0.1488  0.1809
12930W        W17330  14.835   2.631  22.505  0.0150 -0.1875  0.0152
12931W        W17331   9.074   6.578   7.325 -0.0238  0.2442  0.0329
12932W        W17332  24.658   5.676   5.475 -0.1233 -0.0359  0.1438
12933W        W17333   4.394   0.047  12.306  0.0418  0.1105 -0.0183
12934W        W17334  25.641   3.597  33.581 -0.0792  0.0550  0.3235
12935W        W17335   4.700   0.144  13.968  0.1923 -0.0654 -0.1434
12936W        W17336  26.116   4.229  13.023 -0.1284  0.4664 -0.0052
12937W        W17337   5.555   5.708  25.900 -0.0712 -0.1952 -0.0157
12938W        W17338  10.017   5.303  22.899  0.1391 -0.0157  0.1042
12939W        W17339   5.364   2.393   3.638 -0.0720 -0.1592 -0.3826
12940W        W17340  21.883   1.910   1.350  0.0932 -0.0005 -0.0797
12941W        W17341  10.919   5.912  30.650 -0.0989  0.0059  0.0069
12942W        W17342  23.003   1.879   2.236  0.0220 -0.0316  0.2670
12943W        W17343   3.863   5.203  32.952 -0.1409  0.0625 -0.0226
12944W        W17344  25.133   3.288   1.931 -0.0092  0.0768  0.0829
12945W        W17345  20.811   6.507   8.277  0.0248 -0.1015  0.1447
12946W        W17346  14.691   5.081  32.681 -0.1552 -0.1729  0.2239
12947W        W17347  25.113   5.957  31.055 -0.0088 -0.2879  0.2270
12948W        W17348   9.889   2.699  33.235 -0.2951 -0.0231 -0.2127
12949W        W17349  11.300   5.286  13.117  0.0230 -0.2371 -0.0593
12950W        W17350  18.503   6.466  22.765 -0.0795  0.0476 -0.2087
12951W        W17351  14.952   2.644  30.522  0.0254 -0.0668  0.2730
12952W        W17352   0.253   0.297  23.100 -0.0106  0.3302  0.1067
12953W        W17353  22.687   4.811   6.502  0.1011 -0.1361 -0.3771
12954W        W17354  17.418   3.699  11.249 -0.0004 -0.2557  0.1539
12955W        W17355  26.113   6.165   3.503 -0.1830  0.0864 -0.0795
12956W        W17356   4.753   4.143  29.350  0.1102  0.0150 -0.0438
12957W        W17357  19.424   4.059  29.341 -0.1581  0.2320  0.0824
12958W        W17358  13.457   0.891   7.774  0.0812 -0.1561  0.1268
12959W        W17359  13.284   1.018  32.316  0.1472 -0.2025 -0.1916
12960W        W17360   2.123   0.644  34.581 -0.1897 -0.0662  0.3504
12961W        W17361  22.438   5.360  22.937  0.0835  0.0517  0.0632
12962W        W17362  25.707   0.157   9.958  0.0879  0.1599  0.0085
12963W        W17363  13.254   2.962   7.954  0.3092 -0.3918  0.1826
12964W        W17364  17.637   2.949   5.636  0.1508 -0.0833  0.5403
12965W        W17365  20.432   5.565  20.859  0.1235  0.2333 -0.0098
12966W        W17366  26.312   3.872  34.766  0.1296 -0.2884  0.0931
12967W        W17367  15.515   0.080  22.825 -0.0539 -0.1486  0.0714
12968W        W17368  14.834   0.572  34.724  0.0360  0.1340 -0.0604
12969W        W17369  13.885   4.616  28.020 -0.0555  0.0071 -0.0555
12970W        W17370   4.651   0.656  30.591  0.0282  0.0576 -0.0941
12971W        W17371   4.976   0.767   9.369  0.0093 -0.1591  0.0269
12972W        W17372  15.916   6.174  21.386  0.2477  0.0062  0.0065
12973W        W17373   9.998   3.008  35.014  0.0787  0.0316  0.0779
12974W        W17374  23.658   2.377  31.934 -0.2675 -0.1218  0.0130
12975W        W17375  12.772   1.993   2.939  0.0034  0.1085  0.4603
12976W        W17376   9.615   5.465  35.274  0.0747 -0.1268  0.0543
12977W        W17377  25.416   6.559  29.227  0.0307 -0.1060  0.1111
12978W        W17378  12.554   5.351  31.434 -0.1046 -0.0301  0.1295
12979W        W17379  24.077   2.090  34.611  0.3527 -0.2937 -0.2008
12980W        W17380   0.294   3.570   7.340 -0.0495  0.1220  0.0614
12981W        W17381   4.882   4.200  14.200 -0.1154  0.0309 -0.2175
12982W        W17382  11.649   1.102  36.158  0.1905 -0.0309 -0.1867
12983W        W17383  14.822   6.233  22.532 -0.0771 -0.0185 -0.3174
12984W        W17384   6.347   1.422   1.246 -0.2130 -0.2108 -0.1422
12985W        W17385  15.329   1.322  34.140  0.0164  0.0356  0.1092
12986W        W17386   3.879   4.308  28.291 -0.1751 -0.2502 -0.2603
12987W        W17387   5.386   3.975  13.087  0.2224  0.2115  0.1162
12988W        W17388   7.662   2.209  29.799 -0.2095  0.1934 -0.0022
12989W        W17389  14.722   1.267  25.351  0.1673  0.2014  0.0541
12990W        W17390  10.470   6.175  34.202  0.0564 -0.2871  0.2072
12991W        W17391   3.454   0.009  27.932 -0.0873  0.2403  0.0454
12992W        W17392  15.756   4.189  31.121  0.0546 -0.1486 -0.1902
12993W        W17393  22.510   5.007   9.853  0.0650 -0.2135  0.2303
12994W        W17394   0.686   4.369  21.200  0.4359 -0.1786  0.0206
12995W        W17395   7.902   3.520   8.674 -0.1181 -0.0689  0.0957
12996W        W17396  13.725   3.910  12.032 -0.0214 -0.0565  0.1860
12997W        W17397  20.005   5.519   3.273  0.1298 -0.0165 -0.1569
12998W        W17398   8.881   3.280  27.727 -0.0562  0.0363 -0.0520
12999W        W17399  11.449   3.593   5.488  0.1466  0.0569 -0.2334
13000W        W17400   3.551   6.156  25.068  0.1816 -0.3099  0.2118
13001W        W17401  10.734   0.419  26.187 -0.1835  0.0974  0.0452
13002W        W17402  10.466   2.839   1.664  0.0391 -0.1753 -0.0971
13003W        W17403   1.004   2.037  11.935 -0.2610 -0.1885 -0.2780
13004W        W17404  10.068   3.461  34.804 -0.2246  0.1857 -0.3222
13005W        W17405  15.322   2.018  21.204 -0.0171  0.2318  0.1835
13006W        W17406  24.708   0.463   8.807  0.0291 -0.1608 -0.0255
13007W        W17407  11.051   5.095  25.943  0.1220 -0.1265  0.2781
13008W        W17408   7.135   3.896  30.038  0.2280  0.0100 -0.0479
13009W        W17409   1.183   1.545  29.310  0.2673 -0.0986 -0.0062
13010W        W17410   0.918   3.408  15.077 -0.1778 -0.0969  0.0924
13011W        W17411  13.237   3.612   7.014 -0.1227  0.1410  0.0729
13012W        W17412   6.114   3.824  31.440 -0.0381  0.1542 -0.0496
13013W        W17413   8.273   5.375  32.139  0.1207  0.0309  0.0655
13014W        W17414  25.148   4.060   6.421  0.1975 -0.1168  0.3377
13015W        W17415   2.631   2.761  21.798 -0.0240 -0.1458 -0.0318
13016W        W17416   1.191   0.431   8.901 -0.2226  0.3284  0.0500
13017W        W17417  13.519   6.072  27.150 -0.0938 -0.1555 -0.0237
13018W        W17418  22.275   4.072  22.501 -0.5163 -0.0809  0.1482
13019W        W17419  21.786   0.376  20.508 -0.0174  0.2085  0.0067
13020W        W17420   8.431   4.628   3.592 -0.1625 -0.0099 -0.0801
13021W        W17421   4.832   5.430   2.771  0.1234 -0.0427  0.1446
13022W        W17422  15.465   1.086  13.798 -0.0718  0.1513 -0.0540
13023W        W17423   3.950   0.890  33.170 -0.1919  0.0811  0.0667
13024W        W17424   2.504   0.961  15.050 -0.0673 -0.3328 -0.3132
13025W        W17425   2.666   3.413  13.237 -0.0355 -0.3027  0.3326
13026W        W17426   3.768   0.539   2.281  0.0022  0.2302 -0.1853
13027W        W17427  21.338   0.155   1.246 -0.0275 -0.1832  0.0754
13028W        W17428  13.651   2.394  33.306 -0.0712 -0.1668 -0.0641
13029W        W17429  22.278   4.489  10.511  0.0313 -0.2512  0.2972
13030W        W17430  22.208   3.246   4.575  0.0120 -0.0666  0.0369
13031W        W17431   4.193   1.463   5.601 -0.1178  0.1831  0.2080
13032W        W17432   4.288   4.524  14.689 -0.1687 -0.2305  0.0099
13033W        W17433  24.001   2.502  10.089 -0.1661  0.1007  0.1393
13034W        W17434  21.652   6.560  21.840 -0.0747  0.2282  0.2919
13035W        W17435   6.927   5.110  21.887  0.0390 -0.0561 -0.1745
13036W        W17436  24.982   6.101  26.747 -0.4818 -0.0344 -0.3066
13037W        W17437  21.039   1.403  14.124  0.0014 -0.0386  0.3273
13038W        W17438   8.897   3.067   2.822 -0.0791 -0.1007 -0.1341
13039W        W17439   8.601   5.398   4.768 -0.1243 -0.0754 -0.1004
13040W        W17440   7.127   5.769  31.004 -0.3152 -0.0667  0.2128
13041W        W17441  14.670   0.885   9.048  0.1883  0.1137 -0.0842
13042W        W17442  16.100   2.122  30.539  0.0388  0.2514 -0.0347
13043W        W17443  17.081   6.184   6.507  0.1658  0.0491 -0.2825
13044W        W17444  22.285   1.225  14.902  0.1048  0.5115 -0.2800
13045W        W17445  18.548   5.357  10.094  0.0329  0.0843  0.1396
13046W        W17446  12.626   6.245  28.501 -0.0366  0.0501 -0.1921
13047W        W17447   7.579   6.256  24.681 -0.3087 -0.0497  0.2957
13048W        W17448   7.605   5.780   7.569  0.0009  0.1851 -0.3270
13049W        W17449  13.838   4.419   4.080 -0.1260 -0.0073 -0.1775
13050W        W17450  12.753   6.197  10.771  0.0303 -0.1417  0.2676
13051W        W17451  14.231   4.327  30.496 -0.0264 -0.0223  0.3326
13052W        W17452   7.291   3.240   3.228 -0.0862 -0.0596  0.3056
13053W        W17453  19.734   1.132  26.199  0.0101 -0.1552 -0.0121
13054W        W17454  22.728   1.565   5.373  0.0173 -0.0105 -0.0278
13055W        W17455  21.846   5.099   4.375 -0.4062 -0.0764 -0.0180
13056W        W17456   3.570   4.626   6.858  0.0289  0.1573  0.0688
13057W        W17457  24.378   2.985  22.020  0.1486  0.1765  0.1218
13058W        W17458  24.617   0.182  22.349 -0.1992 -0.0531  0.0569
13059W        W17459   2.876   3.776  28.205  0.4162 -0.0987  0.0957
13060W        W17460   2.397   1.568  22.240 -0.1030 -0.1864 -0.1886
13061W        W17461   0.651   6.336  28.000  0.0039 -0.2148  0.1483
13062W        W17462   5.499   4.577  34.801  0.0243  0.0375  0.2341
13063W        W17463  11.694   3.266  12.679  0.0754  0.0428 -0.1027
13064W        W17464  21.783   5.002  25.481  0.2138 -0.2016 -0.0324
13065W        W17465   6.465   0.858  22.810 -0.0787 -0.4516  0.0188
13066W        W17466  10.546   1.558  30.014 -0.1437 -0.1303  0.0981
13067W        W17467   7.010   1.496  26.059  0.0676  0.0512  0.1374
13068W        W17468   1.086   2.963  31.774  0.0876 -0.3196  0.1257
13069W        W17469  10.858   2.993  21.840  0.0938 -0.0017  0.1864
13070W        W17470  23.670   4.877  10.135  0.0481  0.0018  0.2319
13071W        W17471   9.722   4.154  33.701 -0.0059 -0.1142  0.0242
13072W        W17472   0.401   3.119  23.540  0.0135  0.0680 -0.1076
13073W        W17473   9.820   0.511  21.237  0.0030 -0.0275 -0.0941
13074W        W17474  14.752   3.295  14.600  0.2171 -0.0375 -0.0253
13075W        W17475  25.506   3.187   4.513  0.3555 -0.1138 -0.0271
13076W        W17476  20.616   2.745  28.134 -0.2347 -0.1871 -0.0925
13077W        W17477  11.198   0.240  14.960  0.1013  0.0990 -0.1361
13078W        W17478  18.269   0.061  12.081  0.4664  0.1071 -0.3465
13079W        W17479   1.344   2.580  34.899 -0.1413 -0.1785 -0.0560
13080W        W17480  13.765   4.801   1.284 -0.5149  0.2198  0.0367
13081W        W17481  21.992   1.617  35.861  0.0693  0.1107 -0.2464
13082W        W17482   7.468   0.344  34.682 -0.0187  0.1146  0.0712
13083W        W17483  24.555   1.575  22.459  0.0820  0.0180  0.0595
13084W        W17484  18.926   0.183   7.046 -0.0887  0.1700  0.2005
13085W        W17485  19.290   2.104   3.160  0.4640 -0.2096 -0.1080
13086W        W17486  22.119   1.008  11.464 -0.0244  0.1281  0.0381
13087W        W17487   5.908   5.408   4.190 -0.2063 -0.2763  0.1595
13088W        W17488  23.699   2.107  21.688 -0.1016  0.2518  0.1918
13089W        W17489  23.490   0.857  33.558 -0.3725  0.0607 -0.1602
13090W        W17490  24.641   2.570  31.909  0.0583 -0.0692 -0.2391
13091W        W17491   7.823   0.322  23.712  0.1365 -0.2558 -0.1258
13092W        W17492  25.449   1.865   4.229  0.3167 -0.1451  0.1627
13093W        W17493   8.199   1.123   1.421  0.2022  0.1154  0.3037
13094W        W17494  21.347   1.726  15.967 -0.0019  0.0142  0.4250
13095W        W17495  12.316   5.879   5.649 -0.1017 -0.0443 -0.2024
13096W        W17496   5.505   3.100  14.997  0.3710 -0.3373  0.0060
13097W        W17497  17.372   3.463  22.320  0.2010 -0.2209 -0.3530
13098W        W17498   3.168   5.335   9.908 -0.1383 -0.1899 -0.0482
13099W        W17499  20.456   5.457  30.879 -0.0758  0.1759  0.0158
13100W        W17500  19.788   4.402   8.122 -0.0593 -0.3045  0.0767
13101W        W17501   5.794   4.113  12.809 -0.0279 -0.0711 -0.1502
13102W        W17502  22.593   5.869   9.307  0.1262  0.0030 -0.0737
13103W        W17503  24.894   4.946  28.498 -0.0409 -0.2961 -0.1621
13104W        W17504  15.890   4.730  14.542  0.0225  0.1419 -0.0372
13105W        W17505  21.422   2.673   4.834  0.0905 -0.1236 -0.2428
13106W        W17506  19.898   0.239  10.212  0.3005 -0.1683 -0.0541
13107W        W17507  25.919   0.233   4.938  0.4545 -0.0391 -0.0596
13108W        W17508  11.880   5.109  15.619  0.0903 -0.1017  0.0211
13109W        W17509  18.096   0.105  24.340  0.2661 -0.1500  0.0128
13110W        W17510   8.590   0.981  10.275  0.0114  0.0407  0.1130
13111W        W17511  22.306   2.113  27.362  0.2710  0.1460 -0.0016
13112W        W17512   0.938   5.218  25.384  0.0297 -0.1158  0.1533
13113W        W17513   7.691   5.992  11.572 -0.0054 -0.1662  0.2624
13114W        W17514  18.936   6.500   2.973 -0.1121  0.2053  0.1740
13115W        W17515  11.331   2.436   0.651  0.2931 -0.1341 -0.0187
13116W        W17516   2.871   5.951  24.929  0.0472 -0.0176  0.0222
13117W        W17517  12.494   6.522  26.633  0.0471 -0.1774  0.0681
13118W        W17518  23.650   3.551   8.489 -0.0731  0.0563 -0.0235
13119W        W17519   9.015   5.456   8.705  0.1517 -0.1224 -0.0333
13120W        W17520  24.854   3.888   8.017 -0.1670  0.3240 -0.1039
13121W        W17521   3.194   2.866  24.293  0.1730  0.0193  0.1001
13122W        W17522  20.729   5.187  27.860 -0.0285  0.3901 -0.0121
13123W        W17523  22.069   2.298  22.977 -0.1038  0.0687  0.2409
13124W        W17524   5.252   2.675  31.535  0.1107  0.1136 -0.2921
13125W        W17525   7.998   6.275   4.209 -0.1790  0.0938  0.0209
13126W        W17526  23.415   2.185  20.569  0.1119 -0.0394 -0.3123
13127W        W17527  21.680   0.353   7.212  0.4362  0.0141 -0.0540
13128W        W17528  20.212   3.219  24.121  0.0696  0.2466 -0.0199
13129W        W17529  24.749   5.733  13.409  0.3075  0.2803  0.1611
13130W        W17530  23.488   3.099   9.022  0.1908 -0.1801  0.0754
13131W        W17531  15.689   1.946  35.618  0.4504 -0.0070 -0.1099
13132W        W17532   2.111   1.189   0.067 -0.3343  0.2565  0.1529
13133W        W17533  25.050   2.452   2.517  0.1186 -0.1408 -0.3854
13134W        W17534  17.983   5.835  24.838  0.0232 -0.0916  0.0628
13135W        W17535   7.992   5.390  21.892  0.1669  0.2363  0.1285
13136W        W17536   8.552   5.015   3.886  0.1872  0.2275 -0.1297
13137W        W17537   9.810   3.183  26.780  0.1251 -0.1330 -0.0158
13138W        W17538  13.514   3.854  21.694  0.0746 -0.0733 -0.1293
13139W        W17539   2.578   1.194  25.993  0.1156  0.1878 -0.2597
13140W        W17540  15.811   4.897  12.080  0.1002 -0.1525  0.2591
13141W        W17541  21.419   0.925  32.070 -0.2469 -0.1062 -0.1704
13142W        W17542  12.752   2.329   7.671 -0.0922  0.0821 -0.2012
13143W        W17543  17.033   1.622  23.674  0.0185  0.1287  0.1831
13144W        W17544  16.530   1.698  25.185  0.1804  0.1133  0.2676
13145W        W17545   9.046   0.604  27.910 -0.0519 -0.3491  0.1785
13146W        W17546  25.150   1.901   5.115  0.1484  0.1581  0.2130
13147W        W17547  10.903   2.494  24.420  0.0102 -0.1976  0.0245
13148W        W17548  17.370   2.959  35.274  0.0247  0.2033  0.3188
13149W        W17549  10.104   3.432  23.173 -0.1798  0.1283 -0.2437
13150W        W17550   6.576   0.985  13.899  0.2652 -0.0465 -0.0088
13151W        W17551   5.077   0.174   2.688 -0.0792 -0.2044 -0.0888
13152W        W17552   4.073   1.904  11.556  0.1943 -0.0265  0.0832
13153W        W17553  15.897   1.060  21.636 -0.1185 -0.3671 -0.2564
13154W        W17554  21.826   5.300   5.353 -0.1539 -0.0258 -0.0983
13155W        W17555  20.521   3.238   2.528 -0.2602  0.1329  0.1132
13156W        W17556  24.624   4.120   6.648  0.1733  0.1981 -0.4172
13157W        W17557  19.908   5.281   3.954 -0.1867  0.0090  0.2110
13158W        W17558   1.819   0.461   2.735 -0.1496  0.1344  0.3440
13159W        W17559   4.944   3.794  28.126  0.1182 -0.1614 -0.0999
13160W        W17560   6.495   0.884  34.633  0.2483 -0.0370 -0.1219
13161W        W17561   4.839   6.194  21.465 -0.1189 -0.0558  0.1038
13162W        W17562  23.759   1.812  26.200  0.0095  0.0516  0.2400
13163W        W17563  18.163   3.554   6.564 -0.1863 -0.1327  0.2752
13164W        W17564  16.924   1.638  25.603 -0.0168  0.1703  0.0360
13165W        W17565   2.843   5.395   3.971  0.2371 -0.1556  0.1224
13166W        W17566  12.090   3.864  29.854  0.0060 -0.0075 -0.0350
13167W        W17567  23.036   5.168  15.113  0.3927  0.1224  0.5045
13168W        W17568  11.049   0.427  21.336 -0.1134 -0.1032  0.3585
13169W        W17569   0.439   0.874   0.904  0.0351 -0.0178 -0.0109
13170W        W17570  16.620   4.932   1.733  0.0355  0.0455  0.2357
13171W        W17571   9.910   4.520  27.265 -0.4126 -0.1081 -0.2344
13172W        W17572  13.891   2.776  11.591  0.0008  0.1041  0.5552
13173W        W17573   9.190   1.148  11.566 -0.3162 -0.3582 -0.0859
13174W        W17574   5.641   0.904  20.552  0.0486 -0.2968 -0.3527
13175W        W17575   1.512   4.109  20.281 -0.1297 -0.1126 -0.2525
13176W        W17576  14.979   4.146   7.191  0.1607 -0.0345 -0.0966
13177W        W17577  16.501   0.392  25.979  0.1342 -0.2699 -0.0543
13178W        W17578  16.889   0.671   0.435 -0.1295 -0.0371 -0.0336
13179W        W17579  11.156   3.917   2.365 -0.1553  0.1365 -0.0153
13180W        W17580  24.243   4.264  35.027  0.2108 -0.1043 -0.2235
13181W        W17581   6.564   5.921  26.294  0.0107  0.0180 -0.0178
13182W        W17582  17.108   4.956   0.582  0.2059 -0.3253  0.1598
13183W        W17583  24.718   6.075  36.114  0.0891  0.0074  0.1346
13184W        W17584   4.399   0.708   8.574  0.2168 -0.0459  0.0527
13185W        W17585  10.006   0.588   4.292  0.2521 -0.4178  0.0925
13186W        W17586   8.359   4.129   4.997 -0.0249  0.0868 -0.0400
13187W        W17587  26.395   5.331  34.068  0.1215  0.1583  0.0015
13188W        W17588  15.969   0.676  26.656  0.2203 -0.0599 -0.1763
13189W        W17589  21.252   3.553  13.676  0.0498  0.5663 -0.3453
13190W        W17590  13.753   0.206  34.800  0.2714 -0.1656 -0.2147
13191W        W17591   7.378   4.466  24.427  0.0996  0.1034 -0.3335
13192W        W17592  10.225   1.138  33.647  0.1225 -0.0564 -0.0543
13193W        W17593  21.103   3.233  10.963  0.0492  0.1345  0.0184
13194W        W17594  14.410   4.739  14.711 -0.0318 -0.3147  0.1957
13195W        W17595  13.089   6.397  23.139  0.0075  0.0805  0.1854
13196W        W17596  12.281   3.361  12.357 -0.2526 -0.1002  0.1424
13197W        W17597  13.078   6.044  12.375  0.1945  0.1853 -0.0100
13198W        W17598   8.381   3.708  21.743  0.0818  0.1077  0.2700
13199W        W17599   5.728   2.621  30.316  0.2889  0.1818 -0.1121
13200W        W17600  24.780   3.532   5.901  0.1862 -0.1478 -0.1724
13201W        W17601   8.878   2.559   2.484 -0.1274  0.0043 -0.1760
13202W        W17602  12.152   2.585  30.224 -0.0051  0.4412 -0.3235
13203W        W17603  21.989   1.433   7.729  0.0636  0.2245 -0.0836
13204W        W17604  23.759   2.139  28.523 -0.0135  0.0571 -0.1836
13205W        W17605  24.258   1.850  24.206 -0.2675 -0.0041 -0.0290
13206W        W17606  14.419   5.683  10.410 -0.4563  0.1538 -0.2364
13207W        W17607   4.130   4.887  31.391 -0.1069  0.1719  0.1340
13208W        W17608   4.732   2.850  31.337  0.0699 -0.1064  0.0307
13209W        W17609  21.849   3.784  29.508 -0.1098  0.1227 -0.0136
13210W        W17610  22.847   2.970  21.995  0.0296 -0.3258  0.0861
13211W        W17611   4.998   0.823   5.482 -0.0785 -0.0701 -0.2422
13212W        W17612   7.284   3.473  25.057  0.1608 -0.1488 -0.0215
13213W        W17613   1.687   0.568  27.575 -0.0536  0.1151  0.1447
13214W        W17614   6.280   2.235   1.729 -0.0267 -0.0385 -0.0716
13215W        W17615  20.103   5.842  28.341  0.0483 -0.2918  0.2514
13216W        W17616   1.781   3.323   2.213 -0.1338  0.1425 -0.1682
13217W        W17617  24.041   5.726  36.111 -0.0365 -0.1015  0.1410
13218W        W17618  24.264   3.342   4.321 -0.2598  0.0823  0.0944
13219W        W17619  12.979   0.005   4.087  0.0680 -0.0496  0.0513
13220W        W17620  11.520   4.366   2.854  0.1260  0.0922  0.4246
13221W        W17621  10.059   0.341   3.187  0.1049  0.0718  0.0016
13222W        W17622  24.284   1.037   6.412  0.0520  0.0976 -0.0300
13223W        W17623  20.139   5.365  14.392 -0.1991 -0.1491  0.0501
13224W        W17624   4.689   6.305  29.031  0.2104  0.0216 -0.0127
13225W        W17625  17.556   2.361  23.928  0.1239 -0.1051 -0.1135
13226W        W17626   9.431   2.011  23.582 -0.1368  0.0153 -0.2091
13227W        W17627   7.000   3.378  29.154  0.1417 -0.2618 -0.0687
13228W        W17628  22.567   2.511  21.784 -0.0014  0.0153  0.2492
13229W        W17629  19.363   5.894   5.127 -0.0822  0.2525 -0.0934
13230W        W17630   7.715   4.221  11.644  0.2667  0.1746  0.0798
13231W        W17631   1.358   5.001  12.124 -0.0570 -0.2516  0.2168
13232W        W17632  21.449   5.499  12.406  0.3909  0.1094  0.0654
13233W        W17633  21.736   1.642   2.385  0.2225 -0.1047 -0.3422
13234W        W17634  11.809   3.690   4.130  0.1247  0.1402  0.2163
13235W        W17635  14.873   4.157   7.855 -0.1113  0.1649 -0.0738
13236W        W17636  17.797   2.348  35.849  0.0563 -0.0990  0.0941
13237W        W17637  17.979   1.980   2.184  0.0734  0.0144 -0.2831
13238W        W17638  16.731   2.555  28.583 -0.3588  0.2162  0.1968
13239W        W17639   0.272   1.787   0.448  0.0109 -0.1370  0.0036
13240W        W17640  13.558   4.423  29.232  0.3460 -0.1568  0.1565
13241W        W17641  14.865   1.150  32.712  0.0586  0.2088 -0.1319
13242W        W17642  16.939   3.920   2.696 -0.0645 -0.2070 -0.0074
13243W        W17643  16.721   6.079  33.596  0.0919 -0.0761  0.1216
13244W        W17644   4.962   2.618  22.543  0.1080 -0.1402 -0.2139
13245W        W17645   4.933   6.064   9.756  0.0227  0.4357 -0.0144
13246W        W17646  24.163   6.415  22.171  0.0482  0.0978 -0.1222
13247W        W17647  16.100   4.673   8.892  0.0090  0.1623  0.1729
13248W        W17648  13.840   4.138  25.168 -0.0604 -0.0253 -0.1918
13249W        W17649   0.067   1.073   3.225 -0.1908 -0.1067 -0.2141
13250W        W17650  25.972   5.754  14.205  0.0792  0.0980  0.2364
13251W        W17651  19.585   4.876  23.788  0.1496  0.1035 -0.2860
13252W        W17652  23.320   4.654  27.497 -0.3137 -0.2767 -0.0970
13253W        W17653  22.221   5.236  30.345  0.0668  0.3938  0.2619
13254W        W17654  21.408   3.940  29.686 -0.1015  0.2789 -0.1976
13255W        W17655  14.713   4.676  23.658 -0.2501 -0.0897 -0.1812
13256W        W17656   9.258   3.659  12.040 -0.0345 -0.0910 -0.0539
13257W        W17657   2.548   0.425  35.883  0.0859 -0.1483 -0.1803
13258W        W17658  15.288   3.529   8.927  0.1879  0.2205 -0.0051
13259W        W17659  23.957   2.845  22.710  0.3888 -0.0843  0.2298
13260W        W17660  23.498   3.817  36.052 -0.1454  0.2741  0.1571
13261W        W17661  11.471   1.049  35.161 -0.1363  0.0555  0.1516
13262W        W17662  25.240   0.453   3.065  0.1360  0.2675 -0.3014
13263W        W17663  15.705   5.574  33.167 -0.1201  0.1412 -0.1138
13264W        W17664  14.821   3.541  28.798 -0.2214  0.5662  0.2540
13265W        W17665   6.469   5.467   1.774 -0.0031 -0.1277  0.0119
13266W        W17666  16.279   1.967  10.117  0.1530  0.0389 -0.2562
13267W        W17667  16.660   2.195  32.624 -0.0467 -0.0210  0.1938
13268W        W17668   5.439   2.746   4.335 -0.3160 -0.4230 -0.0437
13269W        W17669   3.120   2.809  21.954  0.0499  0.1346 -0.0972
13270W        W17670   8.014   0.824  26.522  0.0614  0.2839 -0.1838
13271W        W17671  25.997   1.726   4.979  0.1795  0.1250 -0.4138
13272W        W17672  21.185   4.259  10.283  0.0245 -0.2256 -0.2816
13273W        W17673  11.645   1.653  15.258 -0.2811  0.0020 -0.2102
13274W        W17674  13.534   1.188   6.634  0.1364  0.2146 -0.1054
13275W        W17675   7.925   2.586  14.886  0.3948 -0.2209  0.0055
13276W        W17676  13.440   2.195  35.045 -0.0676  0.2269 -0.0992
13277W        W17677  14.110   4.309  28.533 -0.0929  0.0343 -0.0602
13278W        W17678  13.922   0.989  28.145 -0.1502 -0.0531  0.0438
13279W        W17679  10.959   0.389  24.991 -0.3031 -0.2031 -0.0586
13280W        W17680   8.594   1.665   6.813  0.0758 -0.1567 -0.0578
13281W        W17681   5.167   3.082  27.093  0.1846 -0.1285 -0.0462
13282W        W17682   6.566   1.135  27.977  0.0794  0.2450 -0.2056
13283W        W17683  23.050   6.078  23.381 -0.0444 -0.3845  0.1320
13284W        W17684  11.881   1.744  14.464 -0.1601 -0.0756  0.4109
13285W        W17685  14.894   6.262  12.548  0.2683 -0.1434 -0.1545
13286W        W17686   1.720   3.422  29.365  0.2602 -0.4207 -0.0154
13287W        W17687  24.991   3.009  29.896 -0.2566  0.0594 -0.1530
13288W        W17688  20.671   6.234  30.261  0.2566  0.2598 -0.1967
13289W        W17689  12.831   3.938  31.814 -0.3121  0.0006  0.0175
13290W        W17690  22.506   3.077  27.098  0.0353  0.1494 -0.2836
13291W        W17691   6.585   5.928  14.863 -0.1326 -0.1553 -0.1112
13292W        W17692  13.805   3.427  12.922  0.1240 -0.2217 -0.1480
13293W        W17693  14.103   0.133  12.997  0.2137  0.0621  0.0842
13294W        W17694   0.106   5.490   1.500 -0.0070 -0.0831  0.0040
13295W        W17695  13.964   2.900  35.191  0.1871 -0.1138 -0.0838
13296W        W17696  11.880   4.342  26.832  0.2330 -0.4417  0.2017
13297W        W17697  16.556   5.956   8.876  0.1135  0.0762 -0.1055
13298W        W17698   4.829   3.162   6.291 -0.2239  0.3380  0.1568
13299W        W17699  25.609   3.977  32.149  0.2137 -0.2851 -0.1582
13300W        W17700  19.744   5.377  13.097  0.1012 -0.0486 -0.2696
13301W        W17701   1.264   0.373  14.373 -0.3452  0.1590 -0.1350
13302W        W17702   9.481   1.013  10.927 -0.1356  0.0291 -0.2302
13303W        W17703  20.949   4.947   5.869 -0.0672 -0.2769  0.1787
13304W        W17704   3.496   0.118   3.016  0.1613  0.1027  0.0629
13305W        W17705  12.995   5.630   2.479  0.1131 -0.1263 -0.1144
13306W        W17706  10.457   6.464  31.869  0.0713 -0.0143  0.0377
13307W        W17707  11.677   1.696   0.826  0.2494  0.3151 -0.2833
13308W        W17708   4.770   2.041  35.442 -0.1786  0.2383 -0.2051
13309W        W17709  24.955   5.359  12.765  0.1941  0.0922  0.1002
13310W        W17710   5.543   3.508  25.126 -0.1218  0.1303  0.2198
13311W        W17711  12.749   4.565  24.586  0.0404  0.1609  0.1158
13312W        W17712  15.431   1.306  32.746 -0.1366 -0.1118 -0.0936
13313W        W17713   9.789   0.599  34.470 -0.2406 -0.0613  0.1217
13314W        W17714   3.098   0.969  12.566  0.0392 -0.2871  0.0478
13315W        W17715  10.011   5.539  13.948 -0.1658  0.1196  0.1040
13316W        W17716  16.606   1.956  33.034 -0.2072  0.1211  0.2939
13317W        W17717   9.637   2.763   6.504  0.0948 -0.2688 -0.1810
13318W        W17718  20.711   6.354  21.295  0.0771 -0.0347  0.0278
13319W        W17719  11.371   4.181   8.293 -0.2770  0.5147  0.2264
13320W        W17720  22.968   5.751  24.323  0.1228  0.1242 -0.0521
13321W        W17721   9.564   1.329  33.078 -0.0234  0.0056  0.2571
13322W        W17722  17.481   2.428  14.357  0.0875  0.1764  0.0133
13323W        W17723   6.022   4.934  33.059  0.0299  0.1751 -0.1444
13324W        W17724  16.157   4.033  33.796 -0.2325 -0.1032 -0.1243
13325W        W17725  18.899   4.279  26.687 -0.0147 -0.0291  0.0879
13326W        W17726   9.259   1.555  28.551 -0.0768  0.0247 -0.2079
13327W        W17727  13.889   3.997  22.550 -0.0249 -0.0293  0.1232
13328W        W17728   7.012   3.037  21.545  0.0774  0.0552 -0.1211
13329W        W17729   6.782   4.295  34.625 -0.0046 -0.1534  0.0744
13330W        W17730   7.222   6.039  32.771 -0.0820 -0.2061 -0.0666
13331W        W17731  21.546   2.739  15.141  0.1357  0.0668 -0.1084
13332W        W17732  11.877   2.313  21.811  0.1805  0.0167 -0.1426
13333W        W17733  12.019   5.909   7.171  0.1587  0.0093  0.0043
13334W        W17734  12.210   5.612  11.345 -0.3046  0.1562 -0.0354
13335W        W17735   9.545   6.319   5.271 -0.0116 -0.2717 -0.3159
13336W        W17736   3.064   5.905  28.524  0.1038 -0.0562 -0.2231
13337W        W17737   8.504   5.457  25.725 -0.1690  0.1606  0.0387
13338W        W17738  25.175   1.378  28.019 -0.3128  0.0893  0.2559
13339W        W17739   7.066   1.206   4.610  0.0857 -0.0245 -0.2546
13340W        W17740  19.634   2.930   5.440 -0.0158 -0.3383  0.1866
13341W        W17741  14.683   3.492  25.259 -0.1618 -0.0955 -0.2016
13342W        W17742   7.247   3.172  13.204 -0.0270 -0.0500  0.1776
13343W        W17743  18.308   3.126  20.873  0.0654 -0.1482  0.1477
13344W        W17744   2.540   6.426  11.053  0.0384 -0.1714 -0.0217
13345W        W17745  16.537   5.005  25.926  0.5651 -0.0735  0.0286
13346W        W17746   0.608   0.085   4.493 -0.1366 -0.0885 -0.3384
13347W        W17747  17.915   5.365  14.786  0.1671  0.0344 -0.2003
13348W        W17748  23.831   6.350  23.145  0.3243  0.0071  0.1726
13349W        W17749  23.677   4.764   6.051 -0.0770  0.0051 -0.0307
13350W        W17750  22.815   2.081  26.043  0.0518 -0.1412  0.2150
13351W        W17751  17.988   5.336  23.657 -0.1499 -0.0644 -0.3082
13352W        W17752   3.038   0.289   5.046  0.0635 -0.1567 -0.0173
13353W        W17753  19.164   1.687   9.593  0.1821 -0.1576 -0.0296
13354W        W17754  13.283   3.553  14.518  0.0522  0.2134  0.0398
13355W        W17755   8.522   1.511  27.219  0.2559  0.0597 -0.2598
13356W        W17756   0.261   6.419   2.219 -0.1602  0.1866 -0.0932
13357W        W17757  14.124   0.633  28.398 -0.1598  0.3978  0.0209
13358W        W17758  20.914   4.192  23.750 -0.2168 -0.1081 -0.0287
13359W        W17759  10.398   5.457  28.728  0.0107  0.1365 -0.1424
13360W        W17760  13.540   0.371  24.819 -0.3084  0.2140 -0.0991
13361W        W17761  14.503   2.647  28.490 -0.2996 -0.0872  0.3827
13362W        W17762  16.969   2.504   3.458 -0.1673 -0.3229 -0.1977
13363W        W17763   2.292   4.870  12.145  0.0765 -0.2357 -0.0253
13364W        W17764  11.357   3.050  29.765  0.1154 -0.1230 -0.0286
13365W        W17765  12.227   0.228  11.918 -0.0481  0.1391  0.3046
13366W        W17766   4.907   3.129   7.599 -0.1447 -0.0092 -0.1199
13367W        W17767   5.010   5.135  31.036  0.1561 -0.2951  0.0855
13368W        W17768  11.150   5.426  24.592 -0.1468 -0.0722 -0.2128
13369W        W17769  10.794   3.927  26.166 -0.1452  0.0055 -0.1876
13370W        W17770  17.200   2.063   4.863  0.3069 -0.0318  0.2234
13371W        W17771   9.924   0.612  12.907 -0.2672  0.1433 -0.1995
13372W        W17772   1.745   1.160  33.366 -0.0435 -0.0743  0.0329
13373W        W17773  11.696   3.001  24.404  0.0106 -0.0290 -0.1868
13374W        W17774   0.906   0.357  11.162  0.1577 -0.0597  0.2623
13375W        W17775  16.974   1.294  32.702  0.2807  0.3309  0.3338
13376W        W17776  17.269   1.273  10.957 -0.0662  0.0305  0.1079
13377W        W17777  24.866   3.819  24.020 -0.3207  0.0863 -0.0427
13378W        W17778  22.936   2.720   9.947  0.1651  0.3245  0.2150
13379W        W17779  22.637   5.158  26.929  0.0505  0.0132 -0.2637
13380W        W17780  14.207   4.513   4.980 -0.0936 -0.2264  0.2922
13381W        W17781   8.084   3.912  24.559  0.1736  0.2701  0.0563
13382W        W17782  12.683   3.991  21.182 -0.0534 -0.2436 -0.0766
13383W        W17783  22.774   0.262  25.960  0.2066  0.2047 -0.1892
13384W        W17784  15.358   1.886  23.375  0.1609  0.0205  0.1151
13385W        W17785   2.240   4.647  23.307 -0.1660 -0.2877  0.0246
13386W        W17786  22.622   6.540   4.937 -0.0973  0.2398  0.1667
13387W        W17787  14.853   5.263  35.921 -0.1352 -0.0723 -0.3256
13388W        W17788  24.554   0.085  21.552  0.2574 -0.0754 -0.0548
13389W        W17789   5.927   3.963  21.322 -0.0245 -0.1700  0.1123
13390W        W17790   5.504   5.152  23.712 -0.3458 -0.1296 -0.2250
13391W        W17791  24.005   1.164  28.237  0.0431  0.0308 -0.0313
13392W        W17792   7.338   3.885  27.804  0.0899  0.1222 -0.0927
13393W        W17793   9.579   0.530  13.621 -0.0128  0.0999  0.0912
13394W        W17794  13.961   1.704  24.284  0.0036  0.0147 -0.2652
13395W        W17795   5.880   2.070  24.849  0.0524  0.1003 -0.0189
13396W        W17796  15.061   3.126  33.302  0.1714 -0.1304 -0.0503
13397W        W17797   4.172   4.162   3.204 -0.0297  0.0172 -0.0225
13398W        W17798   1.385   3.090   6.013  0.2228 -0.0916  0.0714
13399W        W17799   6.326   3.119   9.279  0.0195  0.0421  0.1178
13400W        W17800  10.014   3.741  22.701  0.1777  0.0529  0.1557
13401W        W17801  22.732   1.013  23.640  0.0275  0.1177 -0.1528
13402W        W17802  16.376   4.438  14.871  0.1189  0.1644  0.1093
13403W        W17803   3.208   4.880  10.854  0.0375 -0.0780 -0.2252
13404W        W17804  18.198   0.592  31.094 -0.2591  0.0749 -0.0690
13405W        W17805   1.378   4.644  22.040 -0.2683  0.2050  0.2903
13406W        W17806   2.951   3.730  13.422  0.2010 -0.0214  0.1140
13407W        W17807   3.410   0.171  11.258  0.3104  0.0476 -0.2110
13408W        W17808   1.576   3.138  26.419  0.1807  0.1238 -0.0973
13409W        W17809  17.645   0.094  24.148  0.0302  0.3029  0.0730
13410W        W17810  10.198   4.832   2.207 -0.1236  0.1120  0.0838
13411W        W17811  20.677   6.316   6.845  0.1316 -0.2279  0.2422
13412W        W17812  12.826   0.272   0.804  0.0593  0.0898  0.1427
13413W        W17813  14.371   5.848  23.960  0.0034  0.2232 -0.2902
13414W        W17814  23.173   3.371  21.679 -0.0221  0.2618 -0.1313
13415W        W17815   6.615   0.563  13.641  0.2109 -0.1714 -0.1514
13416W        W17816  14.306   2.514  32.604  0.0367 -0.0775  0.1686
13417W        W17817   5.809   5.036   2.779 -0.0136  0.2895 -0.1100
13418W        W17818  10.614   0.215   0.121 -0.2171  0.0915 -0.2106
13419W        W17819   6.748   5.848  34.652  0.0903  0.3183 -0.0729
13420W        W17820   0.123   0.335  24.190  0.1475 -0.1902  0.3320
13421W        W17821  25.841   4.372  27.540  0.0126 -0.1385 -0.2780
13422W        W17822  24.643   2.087   0.621  0.2417  0.0637  0.2225
13423W        W17823  22.665   1.922  15.059 -0.3864  0.0185  0.2135
13424W        W17824  12.405   3.718  24.016 -0.0509  0.1736 -0.0834
13425W        W17825   0.713   0.758   6.707 -0.0351 -0.0190 -0.0290
13426W        W17826  26.373   2.568  28.977  0.0749  0.2182  0.1272
13427W        W17827  25.846   4.349  25.462  0.0284  0.4945 -0.1057
13428W        W17828   6.818   6.053   1.036  0.0818 -0.3417 -0.0677
13429W        W17829   7.750   2.953   7.950 -0.1828 -0.5439  0.1310
13430W        W17830  19.729   1.451  31.217  0.0120  0.1287  0.1325
13431W        W17831  19.891   5.479  15.428  0.1351 -0.1157 -0.0922
13432W        W17832   3.600   5.673  14.141 -0.0287 -0.2073  0.0278
13433W        W17833  12.700   6.080  26.082  0.1989 -0.1635 -0.3798
13434W        W17834   3.615   6.258   3.817  0.0575 -0.1482  0.0055
13435W        W17835  24.417   1.076  11.047 -0.1006  0.2158 -0.2572
13436W        W17836  23.558   4.706  34.497 -0.1028 -0.1924 -0.0960
13437W        W17837  13.732   0.339   5.284 -0.0515  0.2113  0.2159
13438W        W17838  21.428   1.697   6.563  0.1899  0.1378  0.3756
13439W        W17839  22.273   3.255  25.702 -0.0716  0.1708 -0.0842
13440W        W17840   7.532   0.808  32.504 -0.0038 -0.0883  0.0555
13441W        W17841  11.231   3.709  20.905 -0.0077 -0.1158 -0.0691
13442W        W17842   6.387   1.372   2.205 -0.1525  0.0672 -0.1873
13443W        W17843  20.297   6.167   0.773  0.0530 -0.1720  0.0511
13444W        W17844  23.367   6.164  33.560  0.2441 -0.0317 -0.0758
13445W        W17845  11.000   2.937   1.383  0.3349 -0.2258  0.1531
13446W        W17846  23.298   2.415  13.312 -0.1000  0.1491 -0.3558
13447W        W17847  14.408   2.642   7.888 -0.0837  0.0902  0.0612
13448W        W17848  15.650   5.530  21.796 -0.1934  0.1717  0.0508
13449W        W17849   4.742   5.228   5.993  0.0413 -0.1269 -0.0020
13450W        W17850  12.146   3.572   8.999 -0.0785 -0.0259 -0.1011
13451W        W17851  22.351   0.267  12.565 -0.1403  0.3197  0.1124
13452W        W17852   3.464   0.170  12.741 -0.0509  0.2272  0.1738
13453W        W17853  15.133   2.939  29.343  0.1434  0.0197  0.2764
13454W        W17854  10.208   1.104   4.138 -0.0984 -0.1364  0.2854
13455W        W17855  13.006   6.083  20.652 -0.2630 -0.1631  0.1398
13456W        W17856  18.840   4.506   8.143 -0.1245 -0.0645 -0.0727
13457W        W17857   0.242   3.009  19.570  0.0154  0.0960 -0.0473
13458W        W17858   4.237   2.274   6.386  0.0530 -0.3085 -0.0807
13459W        W17859  19.080   0.913  35.053  0.2656 -0.1490 -0.0870
13460W        W17860   7.827   1.658  29.318 -0.2442  0.0581  0.2129
13461W        W17861  22.100   3.241  13.479 -0.2202 -0.2216  0.0302
13462W        W17862  23.046   1.135   5.483  0.3334 -0.3058  0.1966
13463W        W17863   1.840   3.363   4.214 -0.0972 -0.0015  0.0350
13464W        W17864   9.682   2.072  27.619 -0.0960 -0.0965 -0.2450
13465W        W17865   2.323   2.524   1.397 -0.0637  0.0496  0.1082
13466W        W17866  24.074   4.117  27.094 -0.4493 -0.0156 -0.0015
13467W        W17867  16.793   5.643  14.370 -0.1152  0.1826 -0.2485
13468W        W17868   9.863   4.802  28.970 -0.0008 -0.1055 -0.3210
13469W        W17869  19.405   3.211  10.832 -0.0213 -0.2170 -0.0201
13470W        W17870   1.975   2.882  21.103 -0.0890  0.1373  0.0405
13471W        W17871   6.094   5.436  11.457 -0.0588 -0.3017  0.2037
13472W        W17872   1.363   6.255  12.761  0.0651  0.0788 -0.2908
13473W        W17873  15.974   1.597   0.249 -0.2122  0.1118  0.1529
13474W        W17874   8.963   2.595  14.098 -0.0342  0.0906 -0.3365
13475W        W17875  12.774   2.554  15.791 -0.0723  0.0441  0.2206
13476W        W17876   3.538   4.697  11.773  0.2416 -0.0441 -0.1974
13477W        W17877   1.153   6.049   2.245 -0.0236  0.2481 -0.0014
13478W        W17878  19.221   5.656  35.685  0.2379 -0.1438 -0.1118
13479W        W17879   6.589   5.228  33.942  0.0035 -0.1719  0.1287
13480W        W17880   4.583   3.143  33.809  0.0211 -0.2182  0.1128
13481W        W17881  10.673   2.052   8.220 -0.1420 -0.0068  0.1282
13482W        W17882  16.184   0.134   0.617  0.0172 -0.0166 -0.1277
13483W        W17883  10.561   3.829   4.090 -0.0066  0.1499  0.3895
13484W        W17884  13.494   4.648   6.913  0.0223  0.1191  0.2048
13485W        W17885  24.188   2.148  28.931  0.0775 -0.2164 -0.2466
13486W        W17886   8.982   6.411   1.491 -0.0943 -0.1381  0.0771
13487W        W17887  22.721   1.285   4.968 -0.1070 -0.0417 -0.1438
13488W        W17888   6.610   2.990   9.750  0.0340 -0.0449 -0.1376
13489W        W17889   9.293   0.059  14.254  0.2095 -0.0679  0.1607
13490W        W17890  19.203   0.295  12.990 -0.1107  0.0402  0.0447
13491W        W17891  15.611   4.519  22.816  0.1581 -0.0136  0.0016
13492W        W17892   2.621   3.796   1.223 -0.0340 -0.3492  0.0448
13493W        W17893  19.965   2.445  34.977  0.0275  0.0491 -0.2503
13494W        W17894   4.487   1.515  30.916 -0.2032 -0.0108 -0.0808
13495W        W17895  11.879   3.017  21.208  0.1107 -0.2658  0.2180
13496W        W17896   7.082   3.108   2.783 -0.0983  0.3410 -0.1389
13497W        W17897   6.089   2.310  26.130  0.0874  0.2964  0.2086
13498W        W17898  10.641   2.103  31.023 -0.0180 -0.3034 -0.2448
13499W        W17899   5.456   2.102  21.727  0.0314  0.3017  0.1632
13500W        W17900  19.107   5.797  11.862  0.0832 -0.1285 -0.0992
13501W        W17901   5.297   4.504  33.786 -0.1258  0.1305  0.3462
13502W        W17902  10.524   5.375  11.436  0.0979  0.1747  0.0651
13503W        W17903  11.026   3.320  22.692 -0.1898  0.0857  0.2088
13504W        W17904   8.148   4.257  14.496  0.0058  0.0704  0.0924
13505W        W17905  19.259   3.625  23.928  0.2283 -0.4580  0.1683
13506W        W17906  24.311   1.315   9.613 -0.2175  0.0455  0.2442
13507W        W17907  24.258   1.779   2.272 -0.1240 -0.1719  0.0671
13508W        W17908  24.372   0.062   0.639 -0.1550 -0.3623  0.3420
13509W        W17909  21.495   3.051  10.149 -0.1798 -0.0139  0.0813
13510W        W17910  10.439   5.648  27.784 -0.0918 -0.0390 -0.1973
13511W        W17911  15.785   3.391  33.617  0.0901  0.1419 -0.0554
13512W        W17912  16.783   2.380  22.171  0.1191  0.1007 -0.1705
13513W        W17913   8.013   1.903   6.499 -0.1997 -0.2594 -0.1677
13514W        W17914   9.266   3.982   0.949  0.1349 -0.1001 -0.0884
13515W        W17915   6.692   2.062  33.020  0.0596  0.1900 -0.0355
13516W        W17916  16.946   0.011   6.712  0.1025  0.1567  0.2449
13517W        W17917   9.358   6.205  11.434  0.5895  0.0131  0.0647
13518W        W17918   0.182   3.555  21.693  0.0414 -0.0238 -0.1835
13519W        W17919   7.523   5.016   2.503  0.1831 -0.0427 -0.4477
13520W        W17920  19.140   1.882   6.098 -0.0142 -0.1268  0.0370
13521W        W17921  16.663   5.815  20.582  0.3411 -0.3620 -0.3017
13522W        W17922   4.558   3.920  32.305  0.0069  0.3195  0.0451
13523W        W17923  21.767   2.043  25.234  0.1371  0.2257 -0.1949
13524W        W17924  20.093   0.044  13.987  0.0763 -0.6051  0.0515
13525W        W17925  14.139   3.791  14.201  0.0608 -0.1781 -0.0450
13526W        W17926   4.342   5.112   0.561  0.0861 -0.1423 -0.0650
13527W        W17927  16.739   1.383   9.032 -0.1307 -0.1024  0.0097
13528W        W17928   5.505   6.060  23.421  0.1622 -0.1485 -0.0777
13529W        W17929  18.568   5.875  12.424  0.0009  0.1477  0.1554
13530W        W17930   8.547   0.682  14.018 -0.1357  0.0472  0.0437
13531W        W17931  16.535   4.906  10.040  0.2555 -0.1904  0.0614
13532W        W17932  17.859   4.471  21.556 -0.2740 -0.2768 -0.0920
13533W        W17933  10.870   2.506   1.845 -0.2755  0.0374 -0.1501
13534W        W17934   0.890   1.421   1.986 -0.1120  0.0131  0.0546
13535W        W17935   8.147   2.645   4.832 -0.2058 -0.0371 -0.0192
13536W        W17936   5.756   0.176  28.155  0.3827 -0.0787  0.3246
13537W        W17937   8.771   2.003  15.138 -0.3567 -0.1530 -0.2660
13538W        W17938   8.043   0.887   5.142 -0.0967 -0.0408 -0.1485
13539W        W17939   5.803   1.190   7.677  0.1378 -0.2263  0.0553
13540W        W17940   8.494   1.780   8.584 -0.0787  0.0375 -0.2845
13541W        W17941   0.053   0.444   0.687  0.3030 -0.1454  0.2393
13542W        W17942  22.015   0.277  23.868 -0.1582  0.1566 -0.1082
13543W        W17943   8.234   0.590  33.639 -0.0571  0.0870  0.0533
13544W        W17944  20.239   1.913   0.472  0.1950 -0.0688 -0.2503
13545W        W17945  10.073   4.681   1.702  0.3475 -0.0268 -0.4125
13546W        W17946   9.571   1.030   6.605  0.1659  0.0303  0.1018
13547W        W17947   5.343   5.874  26.577 -0.2169  0.2148 -0.0177
13548W        W17948   1.036   4.829  15.111  0.1440  0.0446 -0.0848
13549W        W17949  26.419   5.500  12.263  0.2100  0.3207  0.0123
13550W        W17950  25.383   2.659  25.257  0.0881 -0.2252  0.2419
13551W        W17951  22.221   5.465  12.082 -0.0090  0.1744  0.2575
13552W        W17952  11.597   3.750  28.945 -0.1702  0.1442  0.2970
13553W        W17953  20.302   4.442  34.858  0.0667  0.2981 -0.3320
13554W        W17954  21.726   0.631  27.199  0.1070 -0.0395  0.4400
13555W        W17955  24.710   0.139  35.563 -0.1204  0.2750  0.1758
13556W        W17956  25.535   2.471  26.523  0.2208  0.3841  0.1022
13557W        W17957  23.007   4.596  14.871  0.0064  0.3173 -0.1788
13558W        W17958  26.394   5.077  13.715  0.0928  0.0523  0.2280
13559W        W17959   0.370   2.735   7.955  0.0065  0.0587 -0.1987
13560W        W17960  26.424   6.091  31.345 -0.4817  0.2565 -0.0393
13561W        W17961  24.800   3.640  23.484  0.1089  0.0493 -0.0197
13562W        W17962   3.943   1.469   2.159  0.0085 -0.2379  0.1678
13563W        W17963  21.691   6.527  10.260 -0.1184 -0.0884 -0.0817
13564W        W17964  17.782   4.099  26.225  0.1786 -0.3651 -0.2607
13565W        W17965  14.575   4.571  33.349  0.1104 -0.0243 -0.0382
13566W        W17966   0.055   3.614  24.234  0.1840  0.0624 -0.1824
13567W        W17967  11.440   2.065   5.456 -0.1140  0.0867 -0.0426
13568W        W17968   8.381   4.599  30.340  0.0804 -0.1093 -0.1384
13569W        W17969  14.261   6.059   8.560 -0.4734  0.3278  0.1421
13570W        W17970  25.478   5.355  28.752 -0.3510  0.1098  0.0250
13571W        W17971   6.461   0.650  26.095  0.0013  0.4866 -0.0701
13572W        W17972   4.091   5.242  25.348 -0.0130  0.0178 -0.0772
13573W        W17973  15.212   1.088  32.330 -0.0422  0.1196  0.2559
13574W        W17974  12.384   0.855  35.603  0.1240  0.2836 -0.0771
13575W        W17975   8.138   0.207  20.785 -0.0136 -0.2017 -0.1255
13576W        W17976   3.330   2.070  13.357  0.0877  0.2575  0.0240
13577W        W17977  20.885   5.321  25.141  0.1026 -0.0762  0.2438
13578W        W17978   3.964   3.178  15.020  0.2423 -0.0828  0.4202
13579W        W17979  20.807   1.604   5.562 -0.2148 -0.0162  0.1140
13580W        W17980   3.392   3.783  33.180  0.0130 -0.0957  0.0858
13581W        W17981  12.101   3.877  22.372  0.2009 -0.1444  0.0742
13582W        W17982  11.036   2.456  26.142  0.3425 -0.0658  0.0293
13583W        W17983  23.794   0.788   4.750  0.0150 -0.0708 -0.1578
13584W        W17984   0.327   4.611  26.101 -0.2656  0.0068 -0.0524
13585W        W17985   6.676   5.638  10.671 -0.1064 -0.1674  0.1106
13586W        W17986   0.471   4.409  30.999 -0.2397  0.3566 -0.1921
13587W        W17987  15.597   0.427   1.634  0.0614  0.2356  0.2604
13588W        W17988   9.648   1.250  25.976  0.1379 -0.2124 -0.2870
13589W        W17989   9.468   2.326   5.701  0.1174  0.1140  0.2783
13590W        W17990  23.585   3.049  25.511  0.1456 -0.2167  0.0734
13591W        W17991  14.296   0.781  23.605 -0.0079  0.0840 -0.0335
13592W        W17992   0.449   2.118   9.056  0.1009  0.1756 -0.1817
13593W        W17993   2.397   3.141  12.319  0.1107 -0.3059 -0.1310
13594W        W17994  16.509   4.301  23.197  0.1239 -0.2445 -0.3351
13595W        W17995   8.172   5.972  22.886  0.0458  0.0439 -0.3883
13596W        W17996  18.984   2.082  33.206 -0.2505  0.1934  0.1357
13597W        W17997  17.067   3.129  21.461  0.1449 -0.0070 -0.0231
13598W        W17998  21.943   2.425   1.797 -0.1236  0.1168  0.0351
13599W        W17999  12.977   3.387  15.705 -0.1364  0.0469  0.0269
13600W        W18000  10.967   4.494   8.131  0.0171  0.1632 -0.0083
13601W        W18001  19.138   5.793   7.821  0.2678  0.0014  0.3590
13602W        W18002  11.049   1.970  31.628 -0.1183  0.0492  0.1249
13603W        W18003  10.253   1.766  11.451 -0.0250 -0.2792 -0.0189
13604W        W18004  23.631   1.523  29.959 -0.0266 -0.4359  0.1530
13605W        W18005  20.329   2.376  11.670 -0.0789  0.1070  0.1193
13606W        W18006  21.023   4.890  11.004 -0.2961  0.2065  0.0246
13607W        W18007  25.378   4.710  25.963  0.0670  0.1202  0.0735
13608W        W18008   8.671   2.293   0.368  0.3108  0.0150 -0.4678
13609W        W18009   1.831   5.242  35.224  0.3360  0.1370  0.0169
13610W        W18010  12.281   2.378   4.105  0.1873 -0.4017 -0.0243
13611W        W18011  10.548   3.935  27.610 -0.1549  0.3314  0.0576
13612W        W18012  16.397   6.482  33.776 -0.2190  0.4028  0.1385
13613W        W18013  25.472   2.369   3.972 -0.0354  0.1379 -0.1603
13614W        W18014   1.152   4.600  33.968 -0.2489 -0.0573  0.0116
13615W        W18015  21.292   4.310  29.992  0.0537 -0.0163 -0.0597
13616W        W18016   9.628   1.664   7.560  0.0871 -0.1046  0.0477
13617W        W18017  10.151   3.896  35.045 -0.1983 -0.2200 -0.0624
13618W        W18018   7.421   6.031   6.798  0.0166  0.0312 -0.0683
13619W        W18019   9.303   2.542   0.799 -0.1531  0.0087  0.1638
13620W        W18020  22.166   0.323   6.378 -0.1263 -0.1985  0.1857
13621W        W18021   3.812   0.395  13.579  0.0468 -0.0837  0.0005
13622W        W18022  10.226   0.961   7.373  0.0659  0.1506  0.0316
13623W        W18023  20.209   3.309  21.394  0.0086 -0.2932 -0.1530
13624W        W18024  20.159   4.183  15.010 -0.0756 -0.0582 -0.1249
13625W        W18025   3.326   2.729  34.131 -0.2761  0.1180 -0.0559
13626W        W18026  22.895   0.983  35.752 -0.1150  0.0603 -0.0390
13627W        W18027  12.208   0.693  11.869  0.2722  0.1191 -0.0604
13628W        W18028  16.778   0.319  25.502  0.0852 -0.1858  0.4002
13629W        W18029  24.244   1.562  25.106 -0.0171  0.0546 -0.1134
13630W        W18030  25.534   0.836  24.828 -0.1707  0.3057  0.1427
13631W        W18031  25.476   2.228  32.058  0.0382  0.1043 -0.0721
13632W        W18032   3.431   2.238   5.150  0.2589  0.0018  0.1526
13633W        W18033  17.087   2.673  28.904  0.2216 -0.3320 -0.0795
13634W        W18034   3.696   4.146  33.070 -0.0595  0.2095  0.0716
13635W        W18035  23.403   0.655  13.239  0.1387  0.0967 -0.1181
13636W        W18036  12.104   0.023   4.118 -0.2298 -0.1247 -0.1312
13637W        W18037  18.962   0.432  20.444 -0.1858  0.1193  0.0852
13638W        W18038  12.201   2.262  24.112  0.1483 -0.2387 -0.0115
13639W        W18039  15.820   5.590  34.966 -0.2160 -0.0163 -0.0330
13640W        W18040  25.924   6.244  23.187  0.0794 -0.0801 -0.0185
13641W        W18041  16.783   3.071  30.098 -0.1007 -0.1512 -0.0149
13642W        W18042  12.410   3.381  14.744 -0.1049 -0.2158  0.5853
13643W        W18043   7.828   5.871  28.869  0.3307  0.2610 -0.1171
13644W        W18044  16.674   1.439  30.306 -0.0086  0.0567  0.0809
13645W        W18045   7.345   4.183  32.993 -0.2313  0.0503  0.0849
13646W        W18046  21.235   3.079  29.183  0.4051 -0.0445  0.1215
13647W        W18047   3.739   6.199  31.596  0.0696  0.0767  0.1877
13648W        W18048  25.717   6.450  29.651  0.4649 -0.0470 -0.3185
13649W        W18049   8.879   1.449  32.662 -0.1999  0.3154  0.0465
13650W        W18050  15.824   3.192  34.673  0.1484 -0.1720  0.1290
13651W        W18051  25.563   5.903   5.888  0.2131 -0.0621  0.0562
13652W        W18052  12.491   4.118  25.396 -0.1629 -0.2525  0.0397
13653W        W18053  26.415   1.624  11.475  0.2349 -0.1063 -0.1528
13654W        W18054  19.095   5.726  15.093  0.0724 -0.0248  0.2437
13655W        W18055  10.099   0.892  16.286 -0.1637  0.0169  0.1622
13656W        W18056  10.499   0.076  24.645 -0.0951 -0.0676 -0.3536
13657W        W18057   8.280   5.179  33.454 -0.1213 -0.1364 -0.0353
13658W        W18058   9.431   6.411  33.380 -0.0396  0.1327 -0.3884
13659W        W18059   6.168   0.875  35.939  0.4252 -0.0427 -0.3376
13660W        W18060  17.787   6.180  23.897  0.0608 -0.0036 -0.0740
13661W        W18061  16.911   2.093  25.738 -0.1377 -0.1125 -0.0212
13662W        W18062  20.040   4.420  12.253 -0.0408  0.3268 -0.1134
13663W        W18063   4.940   2.341  32.178 -0.3389 -0.0429 -0.1291
13664W        W18064  20.513   2.751   2.802 -0.0453 -0.2090 -0.2463
13665W        W18065   6.361   3.559   5.229 -0.0263 -0.0197  0.0649
13666W        W18066   0.136   4.502  11.632 -0.1917 -0.1941  0.3283
13667W        W18067   9.427   5.425  13.299 -0.0561 -0.0739  0.0046
13668W        W18068   4.485   2.307   9.212  0.2457  0.3390  0.2291
13669W        W18069  20.717   1.894  34.723  0.0631  0.0193 -0.1355
13670W        W18070   1.214   5.762   0.028 -0.1771  0.3784  0.1875
13671W        W18071   6.285   2.536   0.123 -0.2659 -0.0196  0.2641
13672W        W18072  25.429   1.998  23.357  0.0258 -0.0099 -0.0210
13673W        W18073   3.371   5.560  24.264 -0.4689 -0.0845 -0.1634
13674W        W18074  17.286   4.364  29.979  0.0329 -0.0032 -0.0152
13675W        W18075   1.035   0.167  33.227 -0.2034 -0.0489 -0.0054
13676W        W18076   2.133   2.752   0.428 -0.0135 -0.3928 -0.2652
13677W        W18077  18.186   4.364  30.231 -0.0361  0.3278  0.0606
13678W        W18078  11.774   5.141  28.227  0.2597  0.3011  0.1058
13679W        W18079   6.174   3.470  27.150 -0.0683 -0.0806 -0.0034
13680W        W18080  21.720   3.912  14.136  0.0093 -0.2137 -0.1278
13681W        W18081   2.721   6.015  30.633  0.1024 -0.3359  0.0637
13682W        W18082   1.065   2.595  26.782 -0.0869 -0.1778 -0.1517
13683W        W18083  14.249   5.226   5.461 -0.3493 -0.0008 -0.1484
13684W        W18084  14.734   6.549  22.092  0.1796  0.1422  0.0437
13685W        W18085   4.791   0.576   8.249 -0.1184 -0.2796 -0.1223
13686W        W18086   2.956   2.323  22.590 -0.0933 -0.0353 -0.0612
13687W        W18087  26.217   1.892  30.832 -0.1011 -0.1044  0.3649
13688W        W18088  14.044   2.810  12.858 -0.0979 -0.2153  0.0823
13689W        W18089   4.066   5.859  28.144 -0.0510  0.0647  0.3047
13690W        W18090  24.577   5.094  24.873  0.0844  0.2064 -0.2403
13691W        W18091  16.878   4.514   1.902 -0.0089 -0.1808 -0.0711
13692W        W18092  10.535   4.358  26.310 -0.1036 -0.1221 -0.3686
13693W        W18093   0.993   4.796  35.023  0.0355  0.0197  0.2230
13694W        W18094  23.980   6.582   8.253  0.1120  0.0897 -0.0244
13695W        W18095  17.418   2.343  12.125  0.1436  0.2306  0.0199
13696W        W18096  19.722   1.711   2.893  0.1281  0.0238 -0.0340
13697W        W18097  16.333   2.105  22.066  0.1942 -0.1879  0.0275
13698W        W18098  20.464   2.468  27.695  0.0904  0.0693  0.0197
13699W        W18099   5.563   4.615   4.583  0.0952 -0.1385 -0.1054
13700W        W18100  18.927   0.537   5.752 -0.0760  0.1838  0.2415
13701W        W18101  15.746   0.227  26.247  0.0690 -0.0076  0.0678
13702W        W18102  14.154   2.773  23.623 -0.0179  0.2023  0.1847
13703W        W18103   5.588   3.905  25.938  0.1999  0.1773 -0.0388
13704W        W18104  14.106   1.569  15.063  0.1158  0.0852 -0.1587
13705W        W18105   8.187   3.767  31.639  0.0270 -0.1457  0.2622
13706W        W18106  17.190   4.712  34.597  0.1348  0.1888  0.2593
13707W        W18107  20.964   2.413  12.606 -0.0738 -0.0685  0.1333
13708W        W18108  18.084   1.506  20.493  0.2107  0.1224  0.1011
13709W        W18109  12.647   1.732  14.822  0.1697  0.0176  0.0200
13710W        W18110   4.870   5.305   0.005 -0.2459  0.3273  0.1715
13711W        W18111  17.197   2.691  32.181 -0.1645 -0.1019  0.1397
13712W        W18112  23.645   6.072  27.909  0.0398 -0.1588  0.0454
13713W        W18113   0.477   2.278  13.433 -0.0892 -0.4094 -0.0770
13714W        W18114   6.839   0.709  35.372  0.1661  0.0443 -0.2816
13715W        W18115  20.231   1.635  14.052 -0.0325  0.0593  0.0087
13716W        W18116  10.701   5.668  11.047  0.0245 -0.0719 -0.4214
13717W        W18117  11.226   6.213  25.544 -0.0863  0.3180  0.0605
13718W        W18118   1.633   5.512  28.134  0.2294  0.2239 -0.2755
13719W        W18119  21.156   4.905   4.527  0.0556 -0.1211 -0.0692
13720W        W18120  19.617   3.983  11.348 -0.0669  0.1071 -0.2049
13721W        W18121  20.590   2.252  25.210 -0.1853  0.0908  0.0860
13722W        W18122   1.868   1.050  33.979 -0.2278  0.0833 -0.3989
13723W        W18123  21.938   5.566   2.118  0.0301 -0.2478 -0.2178
13724W        W18124   4.940   5.470  31.917  0.0362 -0.3070  0.1007
13725W        W18125  17.254   6.197  29.077  0.1045 -0.3849 -0.0737
13726W        W18126  16.455   1.003  30.959  0.1829 -0.0729  0.1398
13727W        W18127  23.766   3.106  12.691 -0.1478  0.1702 -0.1927
13728W        W18128  17.806   5.531  31.200 -0.2723 -0.0351  0.1557
13729W        W18129  21.860   1.634  29.820 -0.0758  0.2445  0.1177
13730W        W18130   4.479   1.110  26.770  0.2310 -0.2897 -0.1065
13731W        W18131  11.219   3.935   6.115 -0.2039 -0.0146  0.2239
13732W        W18132  21.926   0.178  21.481  0.2231  0.1773  0.4629
13733W        W18133  25.316   5.129  24.269  0.0591  0.0226 -0.1075
13734W        W18134  21.185   5.263  13.619  0.1647  0.0227  0.0271
13735W        W18135  12.909   3.066   8.316 -0.0861  0.0702  0.0461
13736W        W18136   5.153   0.724   6.838  0.0503 -0.0938 -0.0792
13737W        W18137  21.981   5.735   5.652 -0.2581 -0.2917 -0.3519
13738W        W18138  15.056   4.228   1.573  0.0523 -0.1921  0.0448
13739W        W18139  20.497   2.449  31.105  0.0870 -0.0257  0.3866
13740W        W18140  16.426   6.544   8.230 -0.1609 -0.0959 -0.0620
13741W        W18141  22.743   4.428  28.367  0.3061 -0.0597 -0.2991
13742W        W18142   9.087   4.296   9.510  0.0472 -0.0277  0.1698
13743W        W18143  24.186   0.509  10.421 -0.1340  0.1906  0.4793
13744W        W18144   5.681   1.493  29.456  0.1905  0.1864 -0.1546
13745W        W18145   3.732   5.268  28.920 -0.0234  0.0378 -0.0123
13746W        W18146  23.900   0.249  23.251 -0.0832 -0.0536 -0.1164
13747W        W18147   7.006   0.493   3.738 -0.0429 -0.0644 -0.1342
13748W        W18148  20.687   5.377  23.084 -0.2194  0.4500  0.1348
13749W        W18149  10.494   0.364   2.526 -0.1838 -0.1090 -0.0947
13750W        W18150  15.018   0.329  25.674 -0.3703  0.4555  0.1265
13751W        W18151   7.379   1.360  13.177  0.2417  0.0523  0.3475
13752W        W18152  11.313   1.252  23.313  0.2821  0.0081 -0.1142
13753W        W18153  17.469   2.819   4.227 -0.0144  0.1249 -0.0681
13754W        W18154  20.008   4.017  28.463  0.2028  0.0828  0.1240
13755W        W18155  22.885   0.720  27.975  0.0691 -0.0416 -0.2597
13756W        W18156   4.610   0.398   6.975  0.1143 -0.2249  0.0735
13757W        W18157  13.879   5.032  13.775  0.0731 -0.1318 -0.1072
13758W        W18158  11.208   0.971   7.288  0.1601 -0.0181  0.0664
13759W        W18159   2.586   1.008  30.156 -0.1692 -0.1856 -0.2003
13760W        W18160  20.065   0.442  24.614 -0.0859 -0.0432  0.0340
13761W        W18161   3.781   3.051  29.595  0.2475  0.5923  0.1588
13762W        W18162   7.023   4.437  31.224 -0.0105 -0.0428  0.3112
13763W        W18163   7.354   3.174   1.522  0.4093  0.0129  0.0616
13764W        W18164  13.135   6.273  28.316 -0.0491  0.0918 -0.2301
13765W        W18165  24.857   4.721  32.409 -0.0687 -0.0960  0.0077
13766W        W18166   8.783   5.207   8.374 -0.0759 -0.4808  0.1203
13767W        W18167  20.191   0.898  11.932 -0.0566  0.1495 -0.0205
13768W        W18168   9.049   5.978   8.717 -0.1262  0.2143 -0.0718
13769W        W18169  25.816   5.631  24.817 -0.1347  0.0932  0.0026
13770W        W18170  17.644   2.743   3.778 -0.1784  0.2012  0.0168
13771W        W18171   1.581   4.445   9.025 -0.0225  0.5815 -0.0346
13772W        W18172  10.070   4.936  23.362  0.0756 -0.4053  0.2196
13773W        W18173   2.059   0.677   0.973 -0.1195  0.0611 -0.1863
13774W        W18174   3.601   4.720  32.879 -0.0538 -0.0314 -0.0016
13775W        W18175   7.474   3.161  34.797 -0.2931  0.3277  0.2024
13776W        W18176  24.643   6.332   6.826 -0.1892 -0.0742  0.0783
13777W        W18177   8.070   3.965  25.545  0.0013  0.0553  0.0178
13778W        W18178   7.555   1.763   5.834 -0.1298 -0.1598 -0.0592
13779W        W18179   3.354   0.141  14.592  0.4470 -0.1154  0.0389
13780W        W18180  17.072   2.748  22.249 -0.0849 -0.0960  0.1040
13781W        W18181  20.677   0.301  25.173  0.0114  0.0404  0.2689
13782W        W18182  16.818   2.207  28.984 -0.0310  0.2184  0.2476
13783W        W18183  11.178   1.025  27.920 -0.0392  0.1082  0.2297
13784W        W18184  20.234   1.963  32.738 -0.1601 -0.0144 -0.1963
13785W        W18185   1.690   1.355  13.120  0.0035 -0.0406 -0.1036
13786W        W18186  21.615   6.420  23.198  0.2940 -0.0513 -0.0056
13787W        W18187   4.575   0.589  36.172 -0.0699  0.2984  0.2156
13788W        W18188   7.849   5.103  35.927 -0.1391 -0.1208 -0.0226
13789W        W18189  23.873   2.292  26.257 -0.1716  0.2690 -0.0533
13790W        W18190  11.473   2.430  13.642 -0.3706 -0.2297  0.0538
13791W        W18191   3.246   5.714  13.405 -0.1060  0.0457 -0.1563
13792W        W18192  13.641   5.226  34.286 -0.0734 -0.0423  0.3310
13793W        W18193   7.264   4.810  28.929  0.2401 -0.1787  0.1447
13794W        W18194  21.966   4.114  28.656 -0.0538 -0.1856  0.2931
13795W        W18195  22.635   4.255  21.034 -0.1317 -0.1674 -0.1995
13796W        W18196  23.226   0.251  31.954 -0.1218  0.2280  0.0952
13797W        W18197  19.276   0.778   1.460  0.2642 -0.0129  0.0166
13798W        W18198  19.704   1.397   3.697  0.1168  0.0057 -0.4715
13799W        W18199  14.341   2.387  11.183  0.0753 -0.1172  0.0638
13800W        W18200  19.097   4.834  23.705 -0.2120  0.2380 -0.0999
13801W        W18201   5.491   5.026  15.010  0.1847 -0.0846 -0.0137
13802W        W18202  19.800   4.238  34.830 -0.4956 -0.2335  0.0067
13803W        W18203   7.777   6.089   8.105 -0.1631 -0.0152  0.2276
13804W        W18204  10.345   0.564  35.747 -0.0909 -0.1101 -0.0416
13805W        W18205  16.267   5.016  28.413  0.0572 -0.1368  0.4199
13806W        W18206   6.338   0.961  25.727  0.3580 -0.0441 -0.1011
13807W        W18207   8.868   3.182   3.651 -0.0281 -0.2392  0.0545
13808W        W18208  24.585   0.463   3.650  0.0724 -0.2261  0.1728
13809W        W18209  18.799   4.410  11.762  0.0243  0.1061  0.0856
13810W        W18210  14.101   0.703   5.208  0.0440 -0.0145 -0.0546
13811W        W18211   5.021   0.811  34.240 -0.0097  0.0245 -0.0869
13812W        W18212  19.249   2.386  14.359 -0.3811 -0.0588 -0.0119
13813W        W18213   9.438   3.234   1.575 -0.0084 -0.0123  0.1363
13814W        W18214  22.376   6.142  25.626  0.1918 -0.1343 -0.1334
13815W        W18215   4.409   2.691  21.624 -0.3550 -0.0315 -0.3413
13816W        W18216   4.288   4.479  33.525  0.2039  0.0284  0.0202
13817W        W18217  10.654   4.416  10.251 -0.1943 -0.0959 -0.2338
13818W        W18218  21.632   4.227  13.160  0.0190  0.3772  0.1355
13819W        W18219  14.465   3.024  21.039 -0.0818 -0.1068 -0.0975
13820W        W18220   7.571   3.310  32.554 -0.3883 -0.2158  0.2112
13821W        W18221  23.294   1.264  20.114  0.2474 -0.0455  0.1233
13822W        W18222  21.765   2.982   6.159  0.3818 -0.1366  0.2742
13823W        W18223   9.584   4.156  27.585 -0.2288  0.0330  0.0972
13824W        W18224  21.714   4.662  11.917  0.2944  0.1744 -0.1742
13825W        W18225   8.291   4.679  12.748 -0.0248 -0.0640  0.1479
13826W        W18226  15.046   0.912  33.854  0.0529  0.0973  0.0764
13827W        W18227   5.562   5.046  35.845 -0.0931  0.1668 -0.0577
13828W        W18228   9.718   4.615  13.986  0.3464  0.1679  0.3275
13829W        W18229  19.903   0.895  26.661 -0.1025  0.1568 -0.3385
13830W        W18230  23.391   2.380   5.788  0.0467  0.0218  0.1383
13831W        W18231   6.906   4.535   2.892  0.3353  0.0727  0.0388
13832W        W18232  25.610   2.635  27.496  0.2221  0.1574 -0.0467
13833W        W18233  12.900   6.302  27.865  0.0813  0.2001  0.1335
13834W        W18234  11.920   5.498   3.358 -0.3489 -0.1679  0.0572
13835W        W18235  18.253   2.950  30.085 -0.1592 -0.0438 -0.2066
13836W        W18236   2.578   1.503  12.262 -0.0060  0.0739 -0.0918
13837W        W18237  11.542   1.763  14.763  0.0819  0.0024 -0.0720
13838W        W18238   1.839   0.470  12.351  0.2061  0.1731 -0.1996
13839W        W18239  23.150   5.805   3.089 -0.2611 -0.4237  0.0128
13840W        W18240   3.066   2.921   4.898 -0.0760  0.4346  0.1233
13841W        W18241  24.665   0.366  11.742  0.2409 -0.0304 -0.2140
13842W        W18242  23.259   2.615  14.206 -0.0667 -0.1229  0.4471
13843W        W18243  18.224   1.870   5.637 -0.3583  0.0456  0.1849
13844W        W18244  19.246   6.205  10.092 -0.2304  0.1336 -0.0022
13845W        W18245  23.857   6.004  34.178 -0.1149 -0.2036  0.3075
13846W        W18246  22.088   2.928  32.910 -0.1968  0.0202 -0.3837
13847W        W18247   5.199   1.764   6.481  0.3536 -0.3351  0.0732
13848W        W18248  10.252   2.268  27.307 -0.3151 -0.0698 -0.0878
13849W        W18249   6.145   2.904   1.017  0.1023  0.1271  0.2548
13850W        W18250  21.400   2.825  28.732  0.1911 -0.1201 -0.0839
13851W        W18251   2.094   4.587  34.441  0.3015  0.1870 -0.0306
13852W        W18252  22.272   5.057  29.847 -0.0022 -0.0628  0.0368
13853W        W18253  13.775   1.277  26.516 -0.3581  0.0183  0.1072
13854W        W18254  11.709   1.677   3.861  0.0061 -0.0201 -0.1905
13855W        W18255   4.632   5.198  12.814 -0.1073 -0.2568  0.0392
13856W        W18256   7.640   1.980  14.577 -0.0736  0.0049 -0.0186
13857W        W18257  25.494   2.046   6.116 -0.0502 -0.2140  0.0154
13858W        W18258  19.651   6.280  26.695 -0.1689  0.1517  0.0080
13859W        W18259   4.506   2.068   0.881 -0.0581 -0.0885  0.1269
13860W        W18260  20.808   1.320   0.743  0.1648  0.0521 -0.3975
13861W        W18261   5.291   2.524  25.683  0.2106  0.1937  0.1059
13862W        W18262  13.414   6.126  11.569 -0.0743 -0.2601 -0.3501
13863W        W18263   1.244   3.354   8.703 -0.1502  0.0542 -0.1840
13864W        W18264   8.003   5.579   2.634 -0.1759 -0.1709  0.0129
13865W        W18265   5.351   1.939  35.608 -0.0492 -0.1930 -0.2371
13866W        W18266   9.784   0.736  27.447 -0.0061 -0.1728  0.2097
13867W        W18267  12.199   2.340  11.368  0.0832 -0.2378 -0.2061
13868W        W18268  25.782   5.986   7.600  0.1305 -0.0872  0.0112
13869W        W18269  15.876   1.613  10.343 -0.0229 -0.1029 -0.1863
13870W        W18270  19.840   6.477   1.319 -0.1929  0.3277 -0.2214
13871W        W18271   6.766   2.564  13.602 -0.1467  0.2702 -0.0902
13872W        W18272   8.253   6.435  11.249  0.3012 -0.0661 -0.2384
13873W        W18273   6.194   4.412  22.073  0.1155 -0.2604  0.1659
13874W        W18274  11.145   5.148  14.067 -0.1355 -0.3702  0.1070
13875W        W18275   2.170   5.773  23.023  0.1222 -0.0417  0.1648
13876W        W18276  21.934   4.371  33.726  0.1249  0.2543  0.2338
13877W        W18277  21.144   1.683   9.124  0.0055 -0.2630 -0.0340
13878W        W18278   4.851   3.591  27.666 -0.0475 -0.0431  0.2174
13879W        W18279  21.472   1.698  33.201  0.2713  0.3195 -0.1239
13880W        W18280  16.807   1.551   1.326  0.2860  0.0502 -0.0983
13881W        W18281  17.733   2.874  21.056  0.0889  0.2318 -0.2075
13882W        W18282  14.427   4.254  35.523 -0.0897  0.0990 -0.1680
13883W        W18283   0.824   4.318   3.630  0.0724 -0.0024 -0.2080
13884W        W18284  18.691   4.120  29.365  0.0884 -0.2723 -0.2193
13885W        W18285   3.408   5.846  33.959 -0.1165 -0.1688 -0.3108
13886W        W18286  14.066   3.896  32.001 -0.0405  0.1652  0.1866
13887W        W18287   2.117   0.643   8.990  0.0499  0.2166 -0.2130
13888W        W18288   3.838   0.597   6.644  0.1455  0.2619 -0.1196
13889W        W18289  24.998   5.003  20.805  0.3716  0.0229  0.2753
13890W        W18290   9.026   2.671   1.181  0.2835 -0.1062  0.2347
13891W        W18291  20.655   5.226  22.635  0.0327 -0.1239 -0.1472
13892W        W18292   5.744   6.234  21.828  0.0993  0.3039 -0.0871
13893W        W18293   6.155   1.984   6.257  0.0748  0.2378 -0.0092
13894W        W18294  13.301   0.403  34.553  0.0942  0.0825  0.2585
13895W        W18295  25.609   3.081   1.006 -0.1273 -0.2382  0.2315
13896W        W18296  17.739   5.171   9.016  0.1907  0.1652  0.0027
13897W        W18297  13.051   2.374   2.713  0.1744 -0.1126 -0.0680
13898W        W18298   7.859   6.322   9.242  0.0866  0.1991 -0.1015
13899W        W18299  25.996   0.196  12.063 -0.2468  0.2503 -0.2559
13900W        W18300   7.451   2.700  14.952  0.2170  0.1459 -0.0443
13901W        W18301  21.981   1.597   4.183 -0.3034  0.1977  0.1177
13902W        W18302  23.272   0.303   3.673  0.2676  0.1259 -0.2076
13903W        W18303   2.703   4.699   9.775  0.3611  0.1528  0.2577
13904W        W18304  16.215   4.309  25.925 -0.0738  0.3327  0.0843
13905W        W18305  18.942   3.497  28.976  0.3697  0.2425  0.1157
13906W        W18306  10.594   1.797  14.554 -0.1102  0.0948  0.0092
13907W        W18307   0.048   5.701  20.572  0.3154 -0.1750 -0.1428
13908W        W18308  20.759   6.439  29.184 -0.3301  0.1722  0.1413
13909W        W18309   7.743   4.746  30.920 -0.0655 -0.0985 -0.0585
13910W        W18310  23.109   3.509  14.419 -0.2204 -0.1037  0.1708
13911W        W18311  22.707   4.714  14.170 -0.0801  0.0246 -0.0291
13912W        W18312  14.664   2.865  24.595 -0.1525  0.0548  0.3740
13913W        W18313  21.756   0.124  31.818 -0.1539  0.2982 -0.2529
13914W        W18314   2.920   1.836  33.918 -0.3256  0.0277 -0.1515
13915W        W18315  14.984   2.545  31.734 -0.0012  0.3394  0.0586
13916W        W18316  12.291   4.916   2.201 -0.2212 -0.0505 -0.1069
13917W        W18317   7.463   4.729  20.887  0.0970  0.1696 -0.3108
13918W        W18318  17.277   2.441  23.506  0.0042  0.2970  0.0739
13919W        W18319  14.994   3.724   9.486  0.1726  0.0459 -0.1444
13920W        W18320   7.581   6.391   2.747  0.1363 -0.0404  0.0765
13921W        W18321  24.752   0.628  22.735  0.1419  0.0936  0.0753
13922W        W18322  14.901   4.956  10.344 -0.0673  0.2413  0.3870
13923W        W18323  17.539   5.564  20.873  0.0431  0.1765  0.1173
13924W        W18324  18.697   5.806  26.042 -0.1015 -0.0530  0.0222
13925W        W18325  24.231   6.519  21.169 -0.0412 -0.2417  0.1485
13926W        W18326  13.120   1.573  15.057 -0.0658 -0.0397 -0.0257
13927W        W18327   4.996   3.783  13.829  0.1432  0.2687 -0.1864
13928W        W18328  18.245   3.460  22.078 -0.0077 -0.0045 -0.1715
13929W        W18329   6.182   1.758  24.651 -0.2621 -0.3801  0.1117
13930W        W18330   7.873   5.269  30.876  0.2721 -0.3113  0.0060
13931W        W18331  23.726   0.872  32.363  0.2004 -0.0468 -0.1050
13932W        W18332   7.079   1.825  14.399  0.0234 -0.0229  0.2311
13933W        W18333  24.319   6.589  28.806 -0.1078  0.1710  0.3462
13934W        W18334  14.666   1.338  35.883  0.0247  0.2596 -0.1144
13935W        W18335   1.257   5.375   5.726  0.1636 -0.0806 -0.0650
13936W        W18336   1.771   6.056  35.457 -0.3485 -0.2347 -0.0389
13937W        W18337  23.679   2.039  22.589  0.1409  0.0325  0.0424
13938W        W18338  18.267   2.735  23.252 -0.2575  0.0066  0.3195
13939W        W18339   6.396   6.149  29.233  0.1056  0.2284  0.0827
13940W        W18340   3.061   4.197   0.194  0.0725 -0.1784  0.3667
13941W        W18341   0.740   1.270   2.863 -0.2405  0.1773 -0.0741
13942W        W18342  15.847   4.084  33.217  0.1853  0.1269 -0.0149
13943W        W18343   1.678   6.062  33.316 -0.2769  0.2597  0.3661
13944W        W18344  24.325   3.718   6.715 -0.0673  0.0658 -0.0818
13945W        W18345   9.938   3.126   6.736 -0.0434 -0.2992  0.1911
13946W        W18346  26.149   5.347  23.819 -0.2543 -0.0193 -0.3272
13947W        W18347   3.737   1.420   7.000 -0.0055 -0.0400  0.0970
13948W        W18348  20.348   0.052  32.783  0.0517 -0.0982  0.1136
13949W        W18349   5.946   2.615  22.495 -0.0360 -0.0425 -0.1073
13950W        W18350  10.785   1.432  32.372 -0.0450  0.1496  0.1320
13951W        W18351  19.539   1.305   8.852  0.0737  0.3390 -0.1398
13952W        W18352  22.079   3.585  24.441 -0.0922  0.1912  0.1051
13953W        W18353   2.116   4.159   4.514  0.1444 -0.1787  0.0882
13954W        W18354   0.289   4.233  14.975  0.4443 -0.5392 -0.2642
13955W        W18355  23.194   1.815  13.752 -0.0718 -0.1871 -0.1650
13956W        W18356   9.047   5.462  15.246  0.1549  0.0186  0.0200
13957W        W18357   8.939   6.313  10.166 -0.0417 -0.1089  0.2256
13958W        W18358  17.748   4.729  23.766 -0.0466 -0.0234 -0.1808
13959W        W18359  22.554   2.879  11.208  0.1613  0.2144  0.0195
13960W        W18360  22.143   4.734  14.589  0.0951  0.0273 -0.2088
13961W        W18361  11.941   2.719   6.303 -0.0226  0.3741 -0.4437
13962W        W18362   1.856   3.068  29.929 -0.0221 -0.0465  0.2423
13963W        W18363  25.510   3.131   3.205 -0.0608 -0.1123  0.1208
13964W        W18364  14.913   4.989  25.609  0.0909 -0.2754  0.2099
13965W        W18365   9.443   4.979  29.217  0.0541  0.1847 -0.5089
13966W        W18366  16.007   0.705  10.749 -0.0347 -0.0722  0.0839
13967W        W18367  14.948   2.235   1.257  0.1436 -0.2082  0.1157
13968W        W18368  23.757   1.468  29.346 -0.1234 -0.1121 -0.1307
13969W        W18369   3.784   2.788  21.515  0.2533 -0.3915  0.1874
13970W        W18370  19.546   5.083  30.091 -0.1289  0.0334 -0.0579
13971W        W18371  16.473   1.176  34.301 -0.2317 -0.3102  0.1045
13972W        W18372  11.140   5.086  12.363 -0.0383  0.1178  0.1233
13973W        W18373  15.547   2.082  23.869 -0.0834  0.1996  0.2559
13974W        W18374  16.477   3.531  25.521  0.0562  0.2763 -0.0318
13975W        W18375  10.390   5.353  35.783  0.4142 -0.2279  0.2155
13976W        W18376  16.614   0.780   2.330  0.1630  0.1531 -0.3499
13977W        W18377   6.275   0.705  27.786 -0.1723 -0.3078  0.1485
13978W        W18378   9.157   2.398  34.497  0.1906  0.0374  0.1826
13979W        W18379  25.122   5.212   7.788  0.0639  0.1535  0.3316
13980W        W18380   2.359   4.676   0.996 -0.0607  0.0071  0.0467
13981W        W18381  26.076   0.868  33.820  0.1612  0.1469  0.0984
13982W        W18382   1.187   6.454  28.215  0.1917 -0.1163 -0.0510
13983W        W18383  24.545   2.388  24.990 -0.0462  0.0004  0.0357
13984W        W18384  14.025   3.284  25.504  0.1905  0.0845 -0.0053
13985W        W18385  15.325   4.151  32.090  0.2567  0.0151 -0.2016
13986W        W18386  11.922   2.121  14.915 -0.0885  0.1863 -0.2190
13987W        W18387  18.158   5.501  27.705  0.0690  0.1064  0.3736
13988W        W18388   4.609   2.712  32.176  0.3246 -0.0676  0.0654
13989W        W18389  20.353   6.238   3.170 -0.1630  0.0836 -0.1562
13990W        W18390  11.648   0.516   7.006 -0.2122 -0.0563  0.2441
13991W        W18391  26.080   4.703  24.575  0.1328 -0.0148  0.1199
13992W        W18392  11.261   0.592  27.611  0.1651 -0.3136  0.0753
13993W        W18393  19.519   4.156  27.192  0.2083 -0.0776 -0.0459
13994W        W18394  15.047   4.173  30.528 -0.0143  0.4400  0.0486
13995W        W18395  25.626   6.042  26.721 -0.0150 -0.0480 -0.0954
13996W        W18396   1.913   4.303  34.820  0.0191 -0.2180  0.0381
13997W        W18397  26.039   6.599  32.309  0.0203  0.3989 -0.2119
13998W        W18398  21.836   4.176  23.401  0.1808  0.0511 -0.3801
13999W        W18399   2.885   3.284  12.188 -0.0853 -0.0846  0.1110
14000W        W18400  14.245   4.595  27.665  0.0970  0.2037  0.0875
14001W        W18401  21.167   0.461  34.321 -0.0930  0.1113 -0.1990
14002W        W18402  23.642   0.084  27.173 -0.1342  0.1765 -0.3757
14003W        W18403  13.997   0.264   9.014 -0.0321  0.2188 -0.2032
14004W        W18404   9.295   4.740   4.304  0.1378 -0.3143 -0.1576
14005W        W18405   1.154   4.023  11.341 -0.0478 -0.2285 -0.2563
14006W        W18406  12.078   5.359  24.925  0.1948 -0.1840 -0.1868
14007W        W18407  17.504   3.244   3.911 -0.0231 -0.0960  0.0007
14008W        W18408  10.330   0.593   3.517 -0.0368 -0.1178  0.1486
14009W        W18409  13.462   3.785  10.765  0.0647  0.2063 -0.1606
14010W        W18410  15.963   3.652  11.427 -0.0126 -0.1133  0.3574
14011W        W18411  14.614   0.558  14.199 -0.1497 -0.2790  0.1501
14012W        W18412   1.072   0.517  31.153  0.2180  0.0861  0.3698
14013W        W18413  18.740   2.875   6.487  0.1212  0.1145 -0.0740
14014W        W18414  20.946   4.414   2.077 -0.2943  0.1364 -0.0249
14015W        W18415   2.530   2.254  24.408  0.1015 -0.2220 -0.0178
14016W        W18416  24.284   2.466  25.345  0.1405  0.0359  0.1857
14017W        W18417  19.454   5.864  27.605  0.1607 -0.1662  0.2191
14018W        W18418  21.102   2.082   4.127 -0.1230  0.0347 -0.0763
14019W        W18419   3.050   6.305  10.914  0.2426  0.1728  0.1542
14020W        W18420  23.189   5.636  10.396  0.0984  0.0226 -0.1862
14021W        W18421  12.667   4.142  35.340 -0.2060  0.3201  0.4314
14022W        W18422  14.540   5.465  31.034  0.0834 -0.1093 -0.1274
14023W        W18423  26.187   2.994   9.169  0.2236  0.4075 -0.1417
14024W        W18424  19.213   4.054  12.806 -0.1032 -0.1869 -0.1755
14025W        W18425  26.329   4.864   0.044 -0.1916 -0.0646  0.3301
14026W        W18426   3.693   1.926  12.996  0.2432  0.0432  0.2176
14027W        W18427  22.310   3.286  23.613  0.3404 -0.1993  0.0213
14028W        W18428   8.036   4.320   1.325  0.2237  0.0729 -0.2093
14029W        W18429  14.577   1.795  13.186  0.0649 -0.1092  0.0960
14030W        W18430  11.748   1.141   8.810 -0.0286  0.1847 -0.0168
14031W        W18431   2.052   5.612  10.922 -0.1855  0.1517 -0.0018
14032W        W18432   1.069   3.612   1.587 -0.1155 -0.0075 -0.1981
14033W        W18433  21.969   5.802   5.133  0.1027 -0.2126 -0.1467
14034W        W18434   1.604   6.509  14.395 -0.2875  0.0437  0.1729
14035W        W18435  22.310   3.920   7.842 -0.2387 -0.1071  0.2704
14036W        W18436   1.248   2.180   3.033  0.1449  0.0188 -0.1678
14037W        W18437  13.295   0.375  29.216  0.0224  0.2027  0.1219
14038W        W18438  24.520   4.992   5.513 -0.0123 -0.0563 -0.2091
14039W        W18439   3.214   4.964  32.374  0.1693  0.0533 -0.1774
14040W        W18440  14.899   3.923  35.380  0.2628 -0.0950 -0.1434
14041W        W18441   6.958   4.085  29.613  0.2772  0.0678  0.0735
14042W        W18442   0.359   0.527  13.156 -0.0724 -0.0291  0.2145
14043W        W18443  18.176   5.248   9.758  0.2033 -0.1139  0.0657
14044W        W18444  13.029   6.051  24.677  0.0286  0.0453  0.1253
14045W        W18445  15.470   5.765  11.228 -0.2993 -0.0811 -0.1740
14046W        W18446  24.202   3.721  27.636 -0.1707  0.2882 -0.1386
14047W        W18447   5.177   4.747   0.568  0.0441 -0.1429 -0.0586
14048W        W18448  25.463   0.330   2.633 -0.2245 -0.0305  0.0797
14049W        W18449   6.975   3.501  33.363 -0.1428 -0.4615 -0.1878
14050W        W18450  12.127   0.411  35.778 -0.1267  0.1215  0.1457
14051W        W18451  10.030   1.234  33.119  0.0963 -0.0270 -0.0010
14052W        W18452  11.194   0.140  31.418  0.0005 -0.2641 -0.0789
14053W        W18453  19.996   4.688   3.954  0.1801 -0.0309  0.1875
14054W        W18454  13.759   0.148  30.838 -0.1208 -0.2289 -0.1332
14055W        W18455  10.797   2.828  29.791  0.2312 -0.2069 -0.1129
14056W        W18456   4.395   6.515  23.032  0.1927  0.2062 -0.1851
14057W        W18457   4.186   0.654  24.203 -0.1120  0.2584 -0.0146
14058W        W18458   0.522   5.215   9.143 -0.1014  0.2466  0.2508
14059W        W18459  24.639   1.094  31.080  0.3015 -0.0231  0.1772
14060W        W18460  16.520   1.869  30.688 -0.1705 -0.1169 -0.1233
14061W        W18461   5.067   6.215   3.504  0.1242  0.2376 -0.2993
14062W        W18462  13.397   1.202  23.854 -0.0916 -0.3303 -0.2015
14063W        W18463  22.669   2.006   3.568 -0.1028  0.1447 -0.0718
14064W        W18464  18.742   6.097   4.159 -0.4298  0.3206 -0.1431
14065W        W18465  23.774   4.544   6.604  0.1203  0.1695  0.1744
14066W        W18466   0.276   6.226  13.692 -0.1713 -0.1282  0.0868
14067W        W18467  15.567   0.363  27.734  0.2940  0.1741 -0.0840
14068W        W18468  26.089   1.215  31.540  0.0050  0.0171 -0.0164
14069W        W18469  15.519   0.225   4.143 -0.2763  0.2272 -0.0012
14070W        W18470  22.131   5.095  22.171 -0.1342  0.2984  0.1336
14071W        W18471   5.791   0.251  33.392 -0.0012  0.1356 -0.4350
14072W        W18472   5.408   4.208  31.824  0.0896  0.0869 -0.0961
14073W        W18473  11.429   3.617  22.802 -0.1008  0.1993 -0.5328
14074W        W18474   7.271   3.393  11.376  0.0151 -0.1699  0.2102
14075W        W18475  20.179   4.774   4.395 -0.0973  0.4424  0.0922
14076W        W18476  13.627   3.613  30.828  0.0382  0.3288  0.1536
14077W        W18477  25.418   2.128  34.048  0.2271  0.0281  0.3085
14078W        W18478  25.745   1.339  25.109  0.2367 -0.1856 -0.2027
14079W        W18479  23.131   5.477  29.263  0.0591  0.0825  0.3869
14080W        W18480  21.387   1.015   4.051  0.2509 -0.2018 -0.0212
14081W        W18481  25.142   5.714  13.103  0.0631 -0.0217  0.5380
14082W        W18482  15.187   3.532  13.140  0.2828  0.0014  0.0708
14083W        W18483   6.057   6.062  35.916  0.2318 -0.3542  0.0873
14084W        W18484  13.861   5.135  33.807  0.3931  0.2315 -0.0606
14085W        W18485  13.079   2.684   3.692 -0.0958  0.0656  0.0450
14086W        W18486   8.103   0.170  22.708  0.1938  0.1265 -0.2756
14087W        W18487  23.102   3.197   7.129 -0.0986 -0.0884  0.0147
14088W        W18488  17.634   0.181  23.511 -0.0324  0.0770 -0.0274
14089W        W18489  15.543   2.605  14.698  0.0509  0.0428 -0.3763
14090W        W18490  26.387   4.193  35.687 -0.0826  0.2006 -0.0346
14091W        W18491  22.952   5.092  30.941 -0.2183 -0.1497  0.0679
14092W        W18492  26.036   1.826  21.353 -0.0212 -0.1097 -0.0239
14093W        W18493  24.892   4.255  13.113 -0.1503 -0.2134  0.1673
14094W        W18494   4.017   2.940  35.507  0.0435 -0.2575  0.0774
14095W        W18495  11.856   2.901  28.975 -0.0384 -0.0023 -0.4030
14096W        W18496  22.036   0.456   0.746  0.1854  0.3875  0.0789
14097W        W18497  12.061   2.914  11.055 -0.0120  0.2193  0.2321
14098W        W18498   8.802   2.135   6.250  0.2665  0.0406 -0.0868
14099W        W18499  22.252   5.124   4.645  0.3297  0.1237 -0.0340
14100W        W18500  15.523   4.554   8.704 -0.2215  0.0674 -0.0277
14101W        W18501  12.445   3.918  23.487 -0.1590 -0.2134 -0.1522
14102W        W18502  21.547   0.789  32.588  0.2428 -0.1161  0.2515
14103W        W18503  16.734   6.193  34.554 -0.1231  0.0969 -0.1158
14104W        W18504  15.683   4.065  27.548  0.1153 -0.2096 -0.3701
14105W        W18505  19.445   1.823   2.436  0.2535 -0.2056 -0.1677
14106W        W18506  17.471   4.290  21.309 -0.0753 -0.1800 -0.0927
14107W        W18507  25.781   5.649   3.441 -0.0453  0.2715  0.0267
14108W        W18508  21.062   6.152   5.949 -0.0671 -0.0937 -0.2112
14109W        W18509  16.715   5.959  10.225 -0.4759 -0.0013  0.1645
14110W        W18510  18.620   3.224  31.368  0.0466 -0.0276 -0.0998
14111W        W18511   0.496   6.490  32.632  0.1047 -0.1127  0.1664
14112W        W18512  18.658   4.409  23.757 -0.0988  0.0582 -0.0416
14113W        W18513  22.635   1.681  24.473  0.0443  0.0036  0.1044
14114W        W18514  26.351   5.919  26.784 -0.2336 -0.0303 -0.0838
14115W        W18515  19.107   4.671   2.851  0.2269 -0.2480 -0.1548
14116W        W18516  25.746   4.811   3.690  0.0758 -0.0236  0.1537
14117W        W18517   4.864   2.887   4.931 -0.3214  0.1109 -0.0397
14118W        W18518   9.142   1.781  34.378  0.0364  0.0422 -0.0183
14119W        W18519   3.707   1.151  11.615 -0.0383  0.4137 -0.4692
14120W        W18520  14.430   3.636   3.212 -0.1923  0.2071 -0.1119
14121W        W18521   8.392   0.376   0.851  0.0496 -0.1465  0.1805
14122W        W18522  17.811   5.330  27.263  0.0978 -0.0246  0.1613
14123W        W18523  21.567   3.105  30.019  0.3011  0.1577  0.1417
14124W        W18524  11.133   1.728  15.689  0.0978 -0.0316 -0.2584
14125W        W18525   0.960   2.654  33.324  0.0336  0.0331  0.0777
14126W        W18526   7.029   3.309  31.240  0.2051  0.2541  0.0401
14127W        W18527   2.640   0.857  28.029 -0.1398 -0.0131  0.1389
14128W        W18528  25.507   3.335  10.221  0.0213  0.1586 -0.2180
14129W        W18529  16.430   2.637  27.217 -0.1610  0.0328 -0.1904
14130W        W18530  11.248   4.074  29.904  0.0862  0.3320  0.1204
14131W        W18531  20.053   2.261  24.314 -0.1206 -0.4173 -0.2772
14132W        W18532   9.378   0.966   9.803  0.1050  0.2157  0.0468
14133W        W18533  16.947   5.353  31.072 -0.2052 -0.1517 -0.1747
14134W        W18534   7.678   4.157  31.100  0.2711  0.0242 -0.2480
14135W        W18535   8.967   1.812   2.091 -0.4060  0.0430 -0.1666
14136W        W18536  22.590   0.985   0.436  0.1114 -0.2825 -0.1994
14137W        W18537   5.251   4.619  15.035  0.2231 -0.1403  0.0301
14138W        W18538   4.205   1.089  29.538  0.1336 -0.1797  0.2433
14139W        W18539   1.466   0.878  22.642 -0.0020  0.0478  0.2941
14140W        W18540   6.389   0.166   0.466 -0.3019  0.0551  0.0806
14141W        W18541   0.796   1.781   0.868  0.0617 -0.0341  0.1666
14142W        W18542  12.597   5.679  15.021 -0.2985 -0.3383  0.0230
14143W        W18543  22.065   3.241  27.266  0.1473  0.0351 -0.0704
14144W        W18544  14.101   2.592  35.586  0.2120  0.3052  0.0692
14145W        W18545  20.569   5.264  31.683  0.1663 -0.3491 -0.1668
14146W        W18546  18.436   0.313   6.391 -0.2478 -0.2036  0.2770
14147W        W18547   2.722   2.563  32.574 -0.1014 -0.0075  0.3373
14148W        W18548   1.636   0.451  35.972 -0.0770  0.1703 -0.0132
14149W        W18549   9.020   2.482  24.688 -0.2415  0.1861 -0.0415
14150W        W18550  19.726   5.069  35.281  0.1913 -0.1425 -0.2814
14151W        W18551  24.650   6.590  36.048 -0.0033 -0.0517  0.6270
14152W        W18552   8.540   1.891  29.507 -0.2271 -0.0331 -0.3477
14153W        W18553  10.786   5.742   8.849  0.0789 -0.1759 -0.0235
14154W        W18554  21.710   2.403  11.120 -0.0336  0.0905 -0.0016
14155W        W18555   4.563   1.428   6.078  0.0662  0.3362 -0.0269
14156W        W18556   5.474   2.624  32.347  0.1924  0.4044 -0.0116
14157W        W18557  20.494   2.133  12.055  0.1380 -0.1767  0.0175
14158W        W18558  16.419   5.713  12.804 -0.2884  0.2418  0.0724
14159W        W18559  11.133   4.488  26.262  0.0282 -0.0099 -0.0282
14160W        W18560  18.707   4.290  30.243  0.3698 -0.0650  0.2753
14161W        W18561  18.109   1.875  22.859  0.2750  0.0450  0.1435
14162W        W18562  15.453   3.661  31.919  0.1902  0.3188  0.0576
14163W        W18563   0.173   1.800  23.974  0.0824  0.0072 -0.2228
14164W        W18564  26.029   0.257   5.503  0.1601  0.0775  0.2002
14165W        W18565   6.283   0.995  28.399 -0.2654  0.0771  0.0048
14166W        W18566  23.144   1.560  32.814  0.0495 -0.1266 -0.0706
14167W        W18567  16.076   6.313   8.956  0.2450 -0.1149 -0.1273
14168W        W18568  25.382   1.160  30.447 -0.0721  0.0475 -0.0058
14169W        W18569  12.334   1.550   4.033 -0.1123 -0.0026  0.3170
14170W        W18570   4.532   2.842   4.516 -0.3468  0.1181 -0.0302
14171W        W18571  23.260   3.231  12.739  0.2462  0.0362  0.1552
14172W        W18572  21.279   0.394  32.329  0.0981 -0.3593 -0.0117
14173W        W18573  24.420   0.182  29.695 -0.1764 -0.0075  0.1282
14174W        W18574  23.310   0.027  13.890 -0.0024  0.3145  0.2656
14175W        W18575  17.197   3.420  28.933 -0.0720 -0.1606  0.1796
14176W        W18576  10.037   5.054   6.559 -0.0225 -0.2218  0.0672
14177W        W18577  10.434   3.587   6.577 -0.0071  0.2037 -0.3072
14178W        W18578  16.409   1.203  23.987 -0.0431 -0.1364  0.0589
14179W        W18579   0.212   4.776  22.929  0.0674 -0.2055  0.2491
14180W        W18580   0.063   4.711  34.731 -0.1204  0.1682 -0.0778
14181W        W18581   3.134   6.319  30.593  0.0801 -0.3345  0.3381
14182W        W18582   2.308   2.985  25.009  0.1653 -0.0448  0.0220
14183W        W18583  12.660   0.280  20.451  0.0627  0.0499  0.0624
14184W        W18584   0.404   4.235  26.443  0.3916  0.1824  0.1855
14185W        W18585   8.221   3.957  11.475  0.0424  0.1774  0.2129
14186W        W18586  12.111   0.383   4.700  0.1859  0.0971  0.1136
14187W        W18587  22.188   2.500  27.821 -0.3279  0.0358  0.0806
14188W        W18588  20.822   3.723  34.166 -0.3009 -0.0909 -0.2794
14189W        W18589  22.006   3.065   7.926 -0.2905  0.4473 -0.0012
14190W        W18590   5.322   5.307  11.903  0.0667 -0.1677 -0.0795
14191W        W18591   7.746   4.015  28.843 -0.0891  0.0459  0.3323
14192W        W18592   8.868   3.811  13.354  0.0080 -0.1629 -0.0536
14193W        W18593   1.678   0.368  14.868  0.3188  0.2515 -0.1088
14194W        W18594   5.341   0.446  34.352 -0.0129 -0.1240  0.1847
14195W        W18595  16.617   6.150  14.272 -0.1800 -0.1587  0.1095
14196W        W18596   1.459   0.118   9.506  0.0637 -0.0690  0.3001
14197W        W18597   8.651   0.277  25.257  0.1440  0.0677 -0.0574
14198W        W18598   2.612   4.523  35.092 -0.0318  0.1566  0.0440
14199W        W18599   8.511   2.775  27.585 -0.3740  0.2236  0.0644
14200W        W18600   6.907   0.948   3.606 -0.1097  0.0381 -0.0436
14201W        W18601  22.532   1.883  13.546 -0.2046  0.1830  0.2016
14202W        W18602  25.693   6.511   7.587  0.2308 -0.0777  0.1642
14203W        W18603  24.456   0.986   7.433  0.1999 -0.3101  0.1433
14204W        W18604  19.618   0.389   5.210 -0.0273  0.0554 -0.2043
14205W        W18605  25.353   4.257  13.453 -0.0559  0.3842 -0.1641
14206W        W18606   4.965   0.569   3.792  0.2797 -0.1488 -0.3908
14207W        W18607  12.310   1.649  22.388  0.1110 -0.1350  0.3097
14208W        W18608   8.801   0.752  23.769  0.1713  0.0900 -0.1498
14209W        W18609   9.633   2.725   3.890 -0.1145  0.1748 -0.2479
14210W        W18610   1.049   6.350   2.799  0.0925  0.1390  0.3028
14211W        W18611   8.685   1.514  24.025 -0.0036  0.0966 -0.0909
14212W        W18612  15.906   3.562  10.559  0.3242 -0.2405  0.2829
14213W        W18613  24.423   4.385  14.040 -0.1041 -0.1267 -0.3104
14214W        W18614   7.930   4.521  10.081 -0.0067 -0.1530 -0.1519
14215W        W18615   0.248   5.656   6.640 -0.1105  0.0711  0.0585
14216W        W18616   6.405   5.026  35.404  0.0987  0.1672 -0.1745
14217W        W18617   2.876   6.233  28.224  0.0549 -0.0939  0.2418
14218W        W18618  11.876   2.618  27.128  0.1488 -0.1793  0.3004
14219W        W18619  26.155   0.677  35.722  0.1620 -0.0397  0.0061
14220W        W18620  13.109   4.360   7.901 -0.0529 -0.0450 -0.0483
14221W        W18621  25.476   0.387   7.507 -0.2161 -0.0526 -0.2303
14222W        W18622  15.445   0.241  24.875 -0.2202 -0.2362  0.3386
14223W        W18623   6.516   2.610   7.558 -0.0823 -0.1169  0.1420
14224W        W18624  10.367   3.261   7.000 -0.2300  0.1743  0.0330
14225W        W18625   3.145   5.158   4.336  0.2878 -0.0879  0.0821
14226W        W18626  16.833   3.233   0.665 -0.2423 -0.2329 -0.2851
14227W        W18627  23.304   0.212   6.977  0.1232  0.3074  0.3169
14228W        W18628  21.485   0.606  13.160 -0.2156 -0.0478 -0.0191
14229W        W18629   3.309   4.679   4.077 -0.1721  0.2630  0.0950
14230W        W18630  11.614   1.529  31.579  0.1725  0.0315 -0.0973
14231W        W18631  11.617   4.300  30.513  0.0214 -0.0499  0.0548
14232W        W18632  22.330   5.013  12.309 -0.1531 -0.0287  0.0637
14233W        W18633  10.336   4.993   8.591  0.0593 -0.2532  0.0146
14234W        W18634   3.832   0.301  35.717  0.3888  0.0007 -0.1002
14235W        W18635   1.486   0.096   8.738 -0.0776  0.0333 -0.1462
14236W        W18636   0.278   6.073  33.801  0.1272  0.1787  0.2839
14237W        W18637  16.557   5.621  22.559 -0.0101  0.0590 -0.1233
14238W        W18638   9.226   4.318   7.544 -0.1901  0.3018  0.0050
14239W        W18639   9.733   2.471   4.668  0.0391 -0.0564  0.0414
14240W        W18640   2.836   4.610   6.212  0.0441 -0.1665 -0.1088
14241W        W18641  11.354   3.816  12.071  0.2222  0.3536  0.1107
14242W        W18642   4.459   5.626   5.309 -0.1488  0.1842  0.0512
14243W        W18643   0.244   3.060   4.946 -0.2481  0.0904 -0.0937
14244W        W18644   5.723   4.982  35.052  0.4546  0.0476  0.0050
14245W        W18645  20.592   0.046  13.980 -0.0014  0.1526  0.1364
14246W        W18646  11.388   6.326  10.931  0.0134 -0.0596  0.3209
14247W        W18647  23.708   0.322  25.455  0.0242 -0.2399 -0.0454
14248W        W18648  21.424   3.160  33.830 -0.1241  0.0252  0.2759
14249W        W18649  23.204   1.839   0.299  0.2354 -0.1360  0.4025
14250W        W18650   3.216   2.280  14.207 -0.2972 -0.1470  0.3706
14251W        W18651  12.591   2.181  11.144 -0.1931 -0.0576 -0.1381
14252W        W18652  24.312   1.029  26.175 -0.1918  0.1385  0.0570
14253W        W18653   4.622   6.374   2.291 -0.3204 -0.1256 -0.4205
14254W        W18654   9.677   0.462   5.708  0.1576  0.2659 -0.0724
14255W        W18655   2.534   5.588   7.213 -0.0584 -0.0928  0.1695
14256W        W18656  19.034   4.999  30.258  0.0114  0.2695 -0.0821
14257W        W18657   9.265   1.452   3.664 -0.1894 -0.1460  0.3189
14258W        W18658  26.119   4.301  24.199  0.1260 -0.0585 -0.2182
14259W        W18659  19.925   1.895  34.430  0.1791  0.0783 -0.1678
14260W        W18660  22.809   3.804   6.390 -0.1985 -0.1826  0.1215
14261W        W18661  15.107   5.461  14.815 -0.0905  0.0899  0.2945
14262W        W18662  26.402   6.077   5.451  0.0283 -0.0187 -0.0596
14263W        W18663   8.539   6.213  29.628 -0.1045  0.1155  0.0326
14264W        W18664  13.982   5.185   7.968 -0.0766  0.0516 -0.0816
14265W        W18665   2.176   3.390   8.885  0.0471  0.2382  0.2650
14266W        W18666  11.551   1.719   3.382  0.1746 -0.0450 -0.2075
14267W        W18667   0.246   3.163  21.346  0.0071  0.1399  0.1491
14268W        W18668  12.328   2.208  26.531 -0.1789 -0.0154  0.0932
14269W        W18669   1.856   1.069  22.892 -0.0157 -0.1071  0.3218
14270W        W18670   6.187   0.132   2.151  0.0659 -0.1870 -0.2070
14271W        W18671   8.117   5.173   1.848 -0.0941  0.0407  0.0008
14272W        W18672   9.577   1.346  21.522 -0.3411  0.0953 -0.0283
14273W        W18673   5.086   3.633  25.616 -0.0798  0.3100 -0.1850
14274W        W18674  11.654   5.372   9.008  0.0407  0.3638 -0.2261
14275W        W18675   5.326   1.802  24.371 -0.3691 -0.1405  0.0705
14276W        W18676   8.450   2.416   3.291 -0.0319  0.1486 -0.0837
14277W        W18677  23.991   4.559  33.361  0.3019 -0.0996 -0.1899
14278W        W18678   2.108   4.942   0.520  0.2697 -0.1611 -0.1457
14279W        W18679   4.774   3.148  30.694  0.0253  0.0580 -0.0852
14280W        W18680   0.670   5.296  33.297  0.1946 -0.0228  0.0298
14281W        W18681  15.646   0.990   8.564 -0.0910 -0.1231 -0.1031
14282W        W18682   2.032   3.764  34.726  0.0284  0.0978  0.3436
14283W        W18683   6.408   0.115  27.858  0.1087  0.0453  0.0121
14284W        W18684  20.210   1.670  27.675  0.0147  0.0814  0.0044
14285W        W18685   1.927   1.801  12.463 -0.3813 -0.1878  0.0799
14286W        W18686  14.859   2.450  32.865 -0.1309  0.2587  0.1945
14287W        W18687  15.479   3.358  30.340 -0.2405 -0.2722  0.3544
14288W        W18688  13.183   2.521   0.117  0.1223 -0.0693 -0.0071
14289W        W18689   6.207   3.456  10.903  0.3289  0.1137  0.0904
14290W        W18690  18.695   5.121  22.644  0.1224 -0.1986  0.3114
14291W        W18691   0.111   5.596  34.518  0.2352  0.2153 -0.0685
14292W        W18692  22.391   6.008  32.616 -0.0629  0.0060  0.1176
14293W        W18693   6.970   5.447  25.335 -0.0539  0.1777 -0.1563
14294W        W18694   6.043   4.194  22.526 -0.2847  0.0664 -0.0865
14295W        W18695  16.877   5.226   2.165 -0.3394 -0.2692  0.2267
14296W        W18696  15.236   1.741  24.097 -0.2640 -0.1040 -0.3563
14297W        W18697  12.071   5.633  35.205 -0.2350  0.3176  0.1108
14298W        W18698  15.170   6.277  23.524 -0.4554 -0.0041 -0.1040
14299W        W18699   1.900   3.222   1.239 -0.3382  0.0132 -0.1186
14300W        W18700   7.392   4.880  35.206  0.0615  0.3381  0.1256
14301W        W18701   8.022   0.604  34.594  0.2673  0.1823  0.2140
14302W        W18702  20.401   1.772   8.768  0.0135  0.1555  0.0393
14303W        W18703   6.212   0.927   5.510 -0.2281 -0.2808 -0.0115
14304W        W18704  21.811   4.957  15.006  0.0409  0.2273  0.0502
14305W        W18705   2.794   5.286  34.338  0.2896  0.1538  0.1371
14306W        W18706   3.852   1.533  11.291  0.1319 -0.0795 -0.0259
14307W        W18707  22.141   0.924  27.506  0.0737  0.0066  0.0058
14308W        W18708  15.475   0.843   0.780  0.1686 -0.0064 -0.2669
14309W        W18709   4.059   1.040   5.237  0.1905  0.0097  0.0775
14310W        W18710   1.884   5.623   7.430  0.2657  0.1645 -0.0476
14311W        W18711   3.717   1.487   9.487 -0.0162 -0.0447 -0.3708
14312W        W18712  19.419   3.031  23.442  0.1284 -0.2205 -0.0229
14313W        W18713  22.643   1.481  15.266 -0.3792  0.0947 -0.1226
14314W        W18714  23.383   5.350  29.650  0.2276  0.1609 -0.0602
14315W        W18715  20.249   0.368   7.040  0.0106 -0.1506 -0.1985
14316W        W18716  21.333   4.188   4.013  0.0461  0.4783  0.1228
14317W        W18717   4.892   0.924   8.575  0.1414 -0.0694  0.2285
14318W        W18718   2.420   0.471  24.929 -0.3499 -0.0936  0.0083
14319W        W18719  11.906   5.185  12.524 -0.3456 -0.2142 -0.1271
14320W        W18720  10.937   6.447  35.090 -0.0227  0.0309  0.0707
14321W        W18721  24.982   0.610  33.770 -0.2484  0.1523 -0.0071
14322W        W18722   5.047   2.471  29.432  0.3520  0.2122 -0.1037
14323W        W18723   7.892   1.203  33.170  0.3478 -0.1877  0.2333
14324W        W18724  23.310   1.153   8.598  0.0910 -0.1045  0.0776
14325W        W18725   5.377   6.474  25.762  0.0129 -0.0434 -0.1279
14326W        W18726   0.187   5.627  22.955 -0.2781 -0.0079  0.3095
14327W        W18727  25.466   1.555  29.602  0.1140  0.3016  0.0597
14328W        W18728  24.490   4.925   4.497 -0.2168 -0.0893  0.2079
14329W        W18729  13.861   3.832  31.536 -0.0714 -0.0759  0.0384
14330W        W18730  14.358   3.760  12.375 -0.2395 -0.1912  0.0302
14331W        W18731   4.332   5.133  26.216 -0.4479  0.0723 -0.0054
14332W        W18732  26.361   1.227  34.800  0.1498  0.3076 -0.0387
14333W        W18733  18.815   0.480  33.464 -0.0955 -0.3160  0.2006
14334W        W18734  21.045   0.567  31.525  0.2160 -0.0085  0.2500
14335W        W18735  14.473   0.889  34.519  0.2958  0.2653  0.0752
14336W        W18736  20.394   2.911  32.781  0.1323  0.1675  0.0175
14337W        W18737   1.335   3.632  34.336  0.2116  0.3995 -0.1234
14338W        W18738  18.840   4.595   3.576 -0.1942  0.0279  0.2386
14339W        W18739  26.005   4.574  26.610 -0.0164  0.2881 -0.0428
14340W        W18740  15.668   1.307  29.251  0.0680  0.1977 -0.1973
14341W        W18741  17.770   1.210   8.411 -0.2884 -0.0217  0.2714
14342W        W18742  24.513   4.489   9.840 -0.1137  0.0919  0.2858
14343W        W18743  16.180   6.171   7.826 -0.2311 -0.3084 -0.3171
14344W        W18744  19.983   5.457  27.510  0.0640 -0.3247 -0.3122
14345W        W18745   3.767   3.947  31.367 -0.1631 -0.1620 -0.3502
14346W        W18746  22.129   2.968  13.050  0.2149 -0.0704  0.2104
14347W        W18747   2.651   0.038  11.951 -0.1811  0.1390  0.5251
14348W        W18748   6.877   3.629  13.116 -0.0172 -0.0381  0.0455
14349W        W18749   9.103   4.782  36.161 -0.1441  0.2600  0.0902
14350W        W18750  18.686   3.201  15.463  0.0463  0.3032 -0.3652
14351W        W18751   5.316   0.587  29.803  0.1043 -0.0626  0.0587
14352W        W18752   8.975   1.932  33.507  0.1186  0.0661  0.2397
14353W        W18753  12.566   6.050   8.469  0.0326  0.2564  0.2407
14354W        W18754  22.675   3.538   4.082 -0.2289 -0.1539  0.0891
14355W        W18755   8.528   3.933   5.416  0.2603 -0.2673 -0.0608
14356W        W18756  20.433   2.582  23.330  0.4347  0.0384 -0.1467
14357W        W18757   3.114   5.911   3.917  0.2079 -0.1833  0.4479
14358W        W18758   3.929   2.963  33.430  0.0628  0.0493  0.0582
14359W        W18759   3.162   4.946   5.231 -0.3965  0.1951 -0.1369
14360W        W18760   3.539   6.132  33.154 -0.0940  0.2439  0.0639
14361W        W18761  10.875   1.139  24.191 -0.1027  0.2125 -0.1287
14362W        W18762  21.092   0.080  25.289 -0.0019 -0.3654 -0.0109
14363W        W18763   0.540   0.033  22.215 -0.0427 -0.3055 -0.0036
14364W        W18764  21.987   2.399   8.630  0.2519  0.4112  0.1782
14365W        W18765  15.144   3.031   1.723  0.0118  0.2822  0.2867
14366W        W18766  16.567   0.723   8.549 -0.2699  0.2245 -0.0779
14367W        W18767  15.539   4.750  21.315  0.0620  0.0466  0.0903
14368W        W18768  25.502   5.882  23.937  0.0023 -0.3795 -0.2364
14369W        W18769   2.697   6.174  27.731  0.0390  0.3082 -0.2300
14370W        W18770  11.367   4.529  26.855 -0.0023 -0.0604 -0.0117
14371W        W18771  23.721   3.106   5.390 -0.1177 -0.1839 -0.0583
14372W        W18772  26.045   4.340  32.944 -0.2756  0.1105 -0.0511
14373W        W18773  24.396   1.368  20.601 -0.1905 -0.0731 -0.0692
14374W        W18774  25.307   6.507  25.148  0.0614  0.4367  0.0702
14375W        W18775  24.137   1.774  12.201 -0.0087  0.2033  0.0701
14376W        W18776  17.473   5.666  33.610 -0.0594  0.1900  0.0557
14377W        W18777  13.014   3.924  22.599  0.2222  0.1986 -0.0804
14378W        W18778  14.710   0.765  22.877 -0.0278 -0.3104 -0.0014
14379W        W18779   4.236   2.055  30.326  0.0812 -0.0702  0.0866
14380W        W18780  23.916   2.238  23.466  0.0459 -0.0246 -0.0296
14381W        W18781   7.458   2.305  33.949 -0.1286  0.1116  0.0810
14382W        W18782   3.380   1.738  34.693 -0.0214 -0.0152  0.2244
14383W        W18783   5.479   6.195  27.676  0.1191  0.1368  0.1938
14384W        W18784   0.919   2.105  21.730  0.0880 -0.3684 -0.2174
14385W        W18785  10.797   2.238   6.725  0.1232 -0.0809  0.1964
14386W        W18786  22.812   0.079   0.051 -0.1155 -0.1276 -0.1342
14387W        W18787  19.360   0.529   8.978  0.0670 -0.2091  0.0732
14388W        W18788  12.875   0.844  25.557 -0.1563 -0.0854  0.2847
14389W        W18789  22.406   3.072  10.218  0.0638 -0.0152  0.2798
14390W        W18790  16.623   0.636   9.686  0.1340 -0.0036  0.0840
14391W        W18791   1.170   1.835  34.399 -0.1289 -0.0716 -0.0797
14392W        W18792  23.185   6.269   2.222  0.0830 -0.0202  0.0556
14393W        W18793  12.079   6.303   5.009 -0.3295  0.2117 -0.0523
14394W        W18794   9.040   5.672   8.276  0.0260 -0.1133 -0.0749
14395W        W18795   9.242   1.179  33.502 -0.0022 -0.3244 -0.1548
14396W        W18796  26.064   4.625  22.112  0.2737 -0.3857  0.0589
14397W        W18797  14.410   0.148  28.772 -0.0558 -0.0286  0.1656
14398W        W18798  20.758   1.161   3.021 -0.2453 -0.2580 -0.1734
14399W        W18799  21.550   1.594  14.170  0.3149 -0.0959 -0.0785
14400W        W18800  25.564   0.259   6.341  0.2315 -0.2376  0.2728
14401W        W18801  21.194   0.452  27.032 -0.1336  0.0161  0.0884
14402W        W18802  21.270   5.090   8.061  0.2520 -0.0593  0.0802
14403W        W18803  19.756   3.452  28.699 -0.0655  0.1465  0.2157
14404W        W18804  22.903   1.123  27.025  0.0148  0.2964 -0.1211
14405W        W18805   1.416   5.718  30.940 -0.2142 -0.0164  0.0769
14406W        W18806   7.640   2.270  29.257  0.3147 -0.0797  0.0018
14407W        W18807  11.495   2.180  31.540  0.1815 -0.1842  0.0359
14408W        W18808   9.223   6.209   6.199  0.0932  0.1106  0.1363
14409W        W18809   6.739   3.810  14.446  0.1002 -0.0852 -0.0304
14410W        W18810  22.106   6.236  12.310  0.2639 -0.0021  0.2982
14411W        W18811  21.271   3.345  32.928 -0.2300 -0.1757  0.1188
14412W        W18812  18.875   0.786  28.527 -0.0063 -0.0946 -0.3078
14413W        W18813  20.819   1.047  12.511 -0.1130 -0.2916 -0.0001
14414W        W18814  11.421   0.136  24.771 -0.2072 -0.2100 -0.0504
14415W        W18815   0.659   2.757  27.474 -0.2103 -0.3008  0.0009
14416W        W18816  26.200   3.663   6.061  0.0723  0.1958 -0.2502
14417W        W18817   5.072   5.673  26.091  0.1034 -0.0554  0.3826
14418W        W18818  17.981   0.123  13.405 -0.2016  0.1208 -0.2781
14419W        W18819   2.902   3.981   4.549 -0.1287 -0.0210  0.0082
14420W        W18820  14.089   1.170   1.752 -0.1283  0.1279  0.1210
14421W        W18821  20.016   5.648  25.910 -0.1959  0.1027 -0.1667
14422W        W18822  23.885   4.142  10.622  0.3567  0.1443 -0.1446
14423W        W18823   0.630   6.228  10.590  0.2787 -0.0078  0.2181
14424W        W18824  23.085   0.339  35.099  0.0868  0.1399 -0.3414
14425W        W18825  12.857   4.531   2.995  0.0369  0.0284 -0.4150
14426W        W18826   4.607   4.378  15.519  0.0143 -0.1644  0.0353
14427W        W18827  24.569   1.812  28.349 -0.1325  0.0209 -0.2098
14428W        W18828   6.818   1.569   4.393 -0.0277 -0.0720  0.5171
14429W        W18829  10.388   1.388   1.730  0.0479  0.2676 -0.3001
14430W        W18830  20.267   3.322  34.782 -0.0565 -0.1778 -0.3436
14431W        W18831   5.412   0.690  31.605 -0.1229  0.0144  0.1008
14432W        W18832  12.822   5.694  21.761  0.2020 -0.0100 -0.0775
14433W        W18833  26.299   6.551  29.224  0.2440 -0.0551 -0.1060
14434W        W18834  25.455   4.898  14.545  0.1324 -0.2189  0.0863
14435W        W18835  22.187   2.190  10.911  0.0473  0.1531 -0.1905
14436W        W18836   5.136   5.001  24.610 -0.0223 -0.0549 -0.0247
14437W        W18837  15.539   4.269   5.965 -0.0999 -0.3299  0.0317
14438W        W18838   6.572   6.562   4.374 -0.0608 -0.2233  0.0561
14439W        W18839  22.906   0.324  10.458 -0.2743 -0.2889  0.0973
14440W        W18840  25.991   0.250  23.119 -0.0507  0.0416  0.2458
14441W        W18841   6.184   1.134  10.001  0.1957 -0.1272  0.1992
14442W        W18842  23.032   5.885  22.652 -0.0252  0.2587 -0.3281
14443W        W18843   1.374   4.575  28.067  0.0391 -0.2465  0.0181
14444W        W18844  24.060   4.643  26.969 -0.1026 -0.0734  0.0989
14445W        W18845  13.658   3.380  10.423 -0.1568 -0.0217 -0.0350
14446W        W18846  25.649   0.281  11.032 -0.3469 -0.0265  0.0505
14447W        W18847  20.029   2.916   9.757 -0.0225 -0.3009 -0.0830
14448W        W18848  13.798   4.292  32.814 -0.0663  0.1553  0.1666
14449W        W18849  15.378   1.607  28.525 -0.0358 -0.0280 -0.1313
14450W        W18850  22.564   5.191   4.993 -0.1476 -0.1721 -0.4765
14451W        W18851  13.037   0.664   1.738 -0.2187  0.0787  0.4100
14452W        W18852   4.483   5.585   8.653  0.2988  0.1451  0.0704
14453W        W18853  13.197   5.384  11.020  0.1712  0.0187 -0.0755
14454W        W18854  10.811   4.599   6.843  0.1490  0.1836  0.1498
14455W        W18855   5.016   2.017   1.001 -0.0675 -0.1151  0.1399
14456W        W18856   4.171   0.075   7.053  0.0579 -0.1971 -0.2877
14457W        W18857  24.170   0.309  25.234  0.2059  0.0471 -0.0929
14458W        W18858  22.810   3.243  10.929  0.0548  0.1894  0.0947
14459W        W18859  21.487   1.981   9.405  0.1223  0.1286 -0.1123
14460W        W18860  22.055   1.628  28.281  0.1578  0.0856  0.3118
14461W        W18861  21.369   0.659  10.502 -0.1668 -0.0171  0.2555
14462W        W18862  21.795   0.015  34.672  0.3365 -0.1695  0.0052
14463W        W18863  24.623   2.087  13.995  0.2525  0.0963  0.1428
14464W        W18864   1.368   1.910  24.823  0.0313 -0.1481 -0.0306
14465W        W18865   3.710   0.793  27.018 -0.1029 -0.2532  0.0702
14466W        W18866  25.317   2.437  11.347 -0.2562 -0.0225 -0.0717
14467W        W18867   6.526   1.633  20.594 -0.0088  0.0037 -0.0241
14468W        W18868   0.793   5.889   2.577 -0.0419  0.0442  0.0343
14469W        W18869  10.811   4.698  35.905 -0.1943 -0.0306  0.2877
14470W        W18870  16.076   5.195  23.328  0.1759  0.0897 -0.1004
14471W        W18871   9.824   1.195  24.076  0.0567  0.0986  0.1406
14472W        W18872   3.932   4.815  27.093  0.2160  0.1441 -0.2662
14473W        W18873  25.748   2.198   3.316 -0.2148 -0.1167 -0.1634
14474W        W18874   1.339   2.149  10.962  0.1215 -0.2112  0.2814
14475W        W18875  12.042   0.278   6.804 -0.1753 -0.1237  0.1361
14476W        W18876  14.316   0.550  33.210 -0.0939  0.0428 -0.0607
14477W        W18877   5.902   4.690  15.151 -0.0410 -0.0290  0.0471
14478W        W18878  17.316   5.413  22.615 -0.1580  0.0285 -0.0769
14479W        W18879  15.862   2.767  24.797 -0.1956  0.1759 -0.0152
14480W        W18880   3.339   5.122  31.944 -0.1469 -0.1890 -0.1617
14481W        W18881   2.312   6.333   5.954 -0.0912 -0.0479  0.2689
14482W        W18882  14.494   5.418   1.923  0.0873 -0.0098  0.3592
14483W        W18883   8.816   0.742   4.665 -0.2888 -0.1293 -0.0048
14484W        W18884  12.980   1.570  27.549  0.0211 -0.0105 -0.0457
14485W        W18885  20.794   6.314  25.413  0.1221  0.1781  0.3609
14486W        W18886   4.158   4.334  33.098 -0.1237  0.3200 -0.1609
14487W        W18887  19.381   3.222  28.888  0.1714  0.0655 -0.1549
14488W        W18888  25.912   0.943  34.810 -0.0295  0.2992 -0.1713
14489W        W18889   6.263   4.982  11.895  0.1897 -0.0140  0.2139
14490W        W18890  18.373   2.778  34.133 -0.3158 -0.1441  0.0871
14491W        W18891   6.811   1.155  32.047  0.0700 -0.2983 -0.1566
14492W        W18892  24.624   4.962  25.413  0.0934 -0.1284 -0.2353
14493W        W18893  10.572   4.096  27.031  0.0936  0.0287  0.2276
14494W        W18894   4.388   6.326  23.967 -0.1210  0.1023  0.0878
14495W        W18895  13.449   3.810  22.797 -0.1730 -0.1628 -0.1239
14496W        W18896  18.062   6.377  36.124  0.1567  0.1190  0.0531
14497W        W18897  12.558   5.773  24.921 -0.5032 -0.1106  0.4092
14498W        W18898  22.567   3.391   8.739 -0.1090 -0.1769 -0.0619
14499W        W18899   2.167   6.053  30.761 -0.0282  0.2844  0.2934
14500W        W18900  16.571   0.368  29.926  0.1107  0.2054 -0.3030
14501W        W18901  20.890   3.566  33.310  0.2410  0.2802  0.2099
14502W        W18902   1.205   2.069  26.721  0.5650 -0.3404 -0.1652
14503W        W18903  12.155   0.941  27.572  0.3544 -0.0785  0.0588
14504W        W18904   9.812   6.220  25.533 -0.0259 -0.1547 -0.0517
14505W        W18905  13.392   3.056  36.007  0.1753 -0.0112 -0.0451
14506W        W18906  11.094   4.359  11.198 -0.0545  0.0288 -0.0249
14507W        W18907  10.223   5.917  15.495 -0.1383  0.2349  0.0378
14508W        W18908   1.247   5.497  23.422  0.1884  0.2673 -0.1896
14509W        W18909  17.911   5.195   3.219  0.3138 -0.0162 -0.1070
14510W        W18910   1.436   5.083  28.613  0.2770  0.3364  0.0798
14511W        W18911  15.833   1.028   4.904  0.0035 -0.0632 -0.0415
14512W        W18912   9.822   3.878  31.238 -0.1100  0.1420  0.2036
14513W        W18913  15.755   4.031  26.056 -0.0806  0.1271  0.0164
14514W        W18914   5.092   0.747  12.568  0.1684  0.2397 -0.0697
14515W        W18915   0.810   4.683  29.866 -0.0314 -0.2851 -0.1317
14516W        W18916   2.204   5.397  28.155  0.2559  0.0381 -0.0979
14517W        W18917  17.297   4.921   9.698  0.0861 -0.0520 -0.0332
14518W        W18918  17.230   6.493   5.693  0.1621  0.4095  0.2225
14519W        W18919  23.341   2.103   2.588 -0.0434  0.2268 -0.0584
14520W        W18920  22.028   2.350  10.231 -0.0396 -0.0841 -0.1035
14521W        W18921  23.611   3.224  23.563  0.0912  0.0657 -0.2574
14522W        W18922  21.905   0.622  36.180 -0.2657  0.0151 -0.1457
14523W        W18923  11.566   2.588  31.806 -0.1323  0.0778 -0.2569
14524W        W18924  19.140   2.150  30.722 -0.2501  0.1340  0.2054
14525W        W18925   8.996   1.819  13.282 -0.1670 -0.1777 -0.1564
14526W        W18926  19.543   6.099  23.669 -0.3908 -0.1154  0.3735
14527W        W18927  16.960   4.656  29.670 -0.0186  0.1926  0.0685
14528W        W18928   1.727   5.418  26.313 -0.2808  0.0657 -0.0365
14529W        W18929  15.944   1.259   8.871 -0.0128 -0.0054  0.0795
14530W        W18930  24.442   4.667  13.611 -0.1728  0.0651  0.3711
14531W        W18931   6.205   2.644  25.582  0.0144  0.2974  0.1756
14532W        W18932  24.846   0.429  20.264  0.0893 -0.0587 -0.0659
14533W        W18933  12.171   2.552  21.214 -0.0783  0.0389 -0.0359
14534W        W18934   3.558   6.153  32.585  0.2724  0.1741 -0.2191
14535W        W18935   3.102   3.810  24.616 -0.1939 -0.1991 -0.0733
14536W        W18936  10.566   4.694  25.088 -0.0021  0.0525 -0.0349
14537W        W18937  12.608   0.309   1.525 -0.0617 -0.2112  0.0136
14538W        W18938   9.623   3.759  35.691  0.0040  0.0969 -0.0073
14539W        W18939  10.474   5.645  34.877  0.2116  0.0095 -0.1934
14540W        W18940   4.129   1.564  28.586 -0.0141  0.1112  0.0349
14541W        W18941   0.556   1.657   0.041 -0.2660  0.0632  0.0937
14542W        W18942  22.562   4.785   0.343 -0.1893 -0.0466 -0.3373
14543W        W18943   1.247   3.920  30.753 -0.1714  0.0746  0.2053
14544W        W18944  10.210   1.809   5.625  0.1898 -0.3045 -0.1070
14545W        W18945  16.945   6.038   0.135  0.0015 -0.2649  0.0369
14546W        W18946   1.750   3.709   0.282  0.2311  0.2898  0.2670
14547W        W18947  23.595   1.719  20.800 -0.0003  0.2353 -0.0509
14548W        W18948  15.887   4.453  12.404 -0.2465  0.5344 -0.3143
14549W        W18949  11.086   4.326  31.415  0.2119  0.3045 -0.5231
14550W        W18950  21.331   1.373  31.809 -0.1374  0.3455 -0.0405
14551W        W18951   9.796   2.448  26.886 -0.1089 -0.0177 -0.0776
14552W        W18952   3.341   5.533   1.312 -0.0830 -0.1175  0.1000
14553W        W18953  26.304   0.943  28.841  0.3653 -0.0649 -0.0467
14554W        W18954  20.854   2.868   8.099  0.1148  0.3048 -0.3306
14555W        W18955   7.084   1.796  11.884 -0.1132 -0.2072  0.0855
14556W        W18956  10.857   2.059  14.892  0.0730  0.1087  0.0378
14557W        W18957   9.736   2.192  15.592  0.0138 -0.0884 -0.0918
14558W        W18958  24.864   1.926   6.876 -0.1044 -0.0318  0.1031
14559W        W18959  25.838   3.710   8.875 -0.1317  0.2684 -0.1188
14560W        W18960   0.365   3.842  25.486 -0.1209  0.0183  0.2260
14561W        W18961  11.254   4.088  21.963 -0.0024 -0.2228 -0.3711
14562W        W18962  12.247   1.664  13.143 -0.1777 -0.1071  0.0574
14563W        W18963   6.913   2.794  10.699  0.0782  0.1083 -0.1207
14564W        W18964  16.904   1.068   7.668  0.1228 -0.0348 -0.0426
14565W        W18965  24.167   1.495  22.772 -0.3398 -0.0170 -0.3407
14566W        W18966   5.289   0.780  13.555 -0.0683  0.0620  0.2701
14567W        W18967   8.665   3.669  24.195  0.0997  0.2571  0.6139
14568W        W18968  20.171   0.541   3.326  0.1601 -0.2819 -0.1075
14569W        W18969   7.941   6.135  29.266  0.2440  0.0626  0.0409
14570W        W18970   8.707   3.253  10.295  0.1342 -0.1880 -0.0640
14571W        W18971  19.725   1.152  35.576  0.0251 -0.1370 -0.2912
14572W        W18972  19.841   4.120  29.823  0.4590 -0.5546  0.0373
14573W        W18973  16.086   2.169  22.893  0.3106 -0.1987  0.1707
14574W        W18974  19.647   1.212  14.659  0.2795  0.2652 -0.3314
14575W        W18975  13.477   5.212   8.059 -0.0710  0.0361 -0.1255
14576W        W18976   4.392   3.212  23.260 -0.2802  0.0130 -0.0786
14577W        W18977  10.139   0.016   4.749  0.1828 -0.1171 -0.0338
14578W        W18978  23.039   2.553  21.905  0.4691 -0.0662 -0.0807
14579W        W18979  13.542   3.208  25.167 -0.2315 -0.3011  0.2557
14580W        W18980   2.919   1.882  33.315 -0.1882 -0.0379 -0.0810
14581W        W18981   8.874   6.047  23.685 -0.0650  0.1009 -0.1374
14582W        W18982  22.178   3.728   4.928 -0.0457 -0.2873  0.0004
14583W        W18983  22.820   5.096  10.232  0.0371 -0.2808  0.1501
14584W        W18984  20.277   5.577  31.332 -0.4143 -0.0865  0.3175
14585W        W18985   9.558   4.062   3.176  0.0634  0.1838  0.1011
14586W        W18986  26.179   4.269  28.605 -0.2273 -0.0485  0.0928
14587W        W18987   1.508   5.599  14.745 -0.2391  0.1195 -0.0766
14588W        W18988  19.390   0.439   7.099 -0.2130  0.1196  0.0854
14589W        W18989   9.718   5.626  29.121 -0.1637  0.0578 -0.0780
14590W        W18990  16.672   0.241   3.656  0.0145 -0.1949 -0.1858
14591W        W18991  10.433   5.958  35.922 -0.0848  0.0304 -0.0983
14592W        W18992  17.412   5.885   0.798 -0.0661  0.0190  0.0119
14593W        W18993  10.640   5.596   2.815 -0.0854  0.0089 -0.3486
14594W        W18994   3.714   3.409  22.331 -0.0050 -0.0180  0.1317
14595W        W18995   1.515   1.183  27.648 -0.0017 -0.2178  0.2189
14596W        W18996  10.832   4.666  26.644 -0.2819 -0.1952  0.2123
14597W        W18997  17.264   0.243   3.621 -0.0009  0.1603  0.0645
14598W        W18998  14.423   3.752  10.873 -0.3131 -0.0283 -0.1133
14599W        W18999   3.736   5.561   9.882  0.2096  0.0210  0.2523
14600W        W19000  23.798   0.072   5.713 -0.2699  0.1707 -0.1464
14601W        W19001  23.733   0.070  21.145  0.5130 -0.1556 -0.0221
14602W        W19002  24.530   1.202  11.583 -0.1335 -0.0097  0.2032
14603W        W19003   3.943   2.174  31.425 -0.0904  0.2150  0.0899
14604W        W19004  13.979   0.351   6.926 -0.2528  0.0812 -0.0248
14605W        W19005   8.366   5.451   3.188 -0.1504  0.0158  0.1375
14606W        W19006  12.562   2.071  30.904 -0.2781 -0.0438  0.1894
14607W        W19007  19.042   0.864  26.287  0.1498 -0.0557  0.0714
14608W        W19008   2.195   3.949  29.591 -0.1607  0.1070  0.3355
14609W        W19009   8.019   5.893  22.110  0.1421  0.0743 -0.3180
14610W        W19010  16.788   0.099  23.051 -0.2208  0.1071 -0.0474
14611W        W19011  18.801   6.013  33.129  0.0495 -0.1136  0.0391
14612W        W19012  11.966   0.697  31.009 -0.1849 -0.0123  0.1414
14613W        W19013  12.388   4.998   8.609  0.0882  0.0984  0.2442
14614W        W19014  17.763   4.273  25.721  0.0850 -0.0745 -0.0240
14615W        W19015  22.255   3.441  24.897  0.2365  0.2181  0.1555
14616W        W19016  25.986   1.563  25.680  0.4087  0.1688 -0.1444
14617W        W19017  17.982   5.135   0.442 -0.1701  0.0089 -0.1221
14618W        W19018  14.214   4.353  21.744 -0.0021 -0.2840 -0.1526
14619W        W19019   3.864   3.789   0.951  0.0668 -0.1296  0.3923
14620W        W19020  13.587   0.296  30.101 -0.0251  0.3645 -0.0610
14621W        W19021   9.398   1.908  25.465  0.1114 -0.1053  0.0028
14622W        W19022  20.700   3.398  13.724  0.3035  0.0870 -0.2118
14623W        W19023   6.057   6.182   9.330 -0.1876  0.0644  0.1348
14624W        W19024  10.449   6.384   7.249 -0.2376 -0.2558 -0.1018
14625W        W19025   1.515   5.982  28.184  0.1370  0.1511  0.0092
14626W        W19026   0.997   5.832  34.430  0.1701  0.0476 -0.0991
14627W        W19027  13.213   0.396   5.647  0.0800  0.3042  0.1718
14628W        W19028   7.253   1.553  10.351 -0.1298 -0.2037 -0.2187
14629W        W19029  16.194   1.025  31.948  0.2990  0.0919 -0.2371
14630W        W19030  23.671   1.125  31.900  0.1392 -0.0135  0.0548
14631W        W19031   8.048   2.335  32.560 -0.2911  0.4957  0.0656
14632W        W19032  22.601   4.587  26.919 -0.0438 -0.3012  0.2557
14633W        W19033  10.500   4.519  33.820 -0.1573  0.3218 -0.1030
14634W        W19034   8.731   1.122  11.948  0.1315  0.0181  0.0117
14635W        W19035  18.518   0.832  33.759 -0.1326 -0.0808 -0.0495
14636W        W19036  14.594   2.217  14.463  0.1948  0.1132  0.0365
14637W        W19037  23.254   2.315  35.951  0.2562 -0.1258 -0.1595
14638W        W19038  26.404   5.072  11.962  0.1136 -0.2005 -0.0978
14639W        W19039   6.009   4.923  24.914 -0.3157 -0.0646 -0.2402
14640W        W19040  25.266   6.401  31.579  0.0993 -0.0803 -0.2634
14641W        W19041  18.354   0.976  35.195 -0.0007 -0.0723  0.3086
14642W        W19042   5.924   6.215  21.147 -0.2255  0.0883  0.1469
14643W        W19043   0.423   2.206   6.274  0.0266 -0.0887  0.3135
14644W        W19044   7.239   6.243   0.898 -0.3872 -0.1017  0.0470
14645W        W19045  17.438   0.511  26.173  0.0226  0.0825 -0.0793
14646W        W19046  25.182   2.786  13.485  0.0050  0.2899  0.1449
14647W        W19047  17.059   3.323  12.118 -0.0167 -0.0591 -0.0351
14648W        W19048  19.647   2.657   2.415 -0.1701  0.0050 -0.4624
14649W        W19049  21.035   0.314   4.213 -0.1511 -0.0873 -0.0433
14650W        W19050   0.992   0.502   2.406 -0.0045  0.1208  0.0251
14651W        W19051  24.162   4.436  14.473 -0.3352 -0.0334 -0.2657
14652W        W19052   7.051   1.596  21.355  0.2766 -0.0593  0.3073
14653W        W19053  22.866   1.515  12.915 -0.3134  0.0311  0.3196
14654W        W19054  15.783   1.340  27.867  0.0848 -0.0203 -0.1693
14655W        W19055  14.398   5.890  32.998  0.0446  0.0724  0.0751
14656W        W19056   0.467   2.058  21.953 -0.1216 -0.0884 -0.1736
14657W        W19057  14.902   4.156  24.018  0.1656 -0.1062  0.0593
14658W        W19058   2.815   5.205  11.220  0.0667 -0.1854  0.2808
14659W        W19059  16.584   2.640  31.065  0.3576 -0.2772  0.1710
14660W        W19060   5.014   5.853  10.533 -0.0920 -0.0325 -0.0436
14661W        W19061   1.329   0.232   1.014 -0.0661  0.1818 -0.0804
14662W        W19062   4.491   4.853   0.129  0.0229 -0.0377 -0.0326
14663W        W19063   0.258   6.348  20.904  0.1002 -0.0734  0.3296
14664W        W19064   8.803   4.412   6.152  0.2871  0.1710  0.0278
14665W        W19065  15.747   4.961  26.638  0.0883  0.0225  0.0523
14666W        W19066   0.242   3.107  30.493  0.1004 -0.0478  0.0636
14667W        W19067  18.433   0.922  30.275 -0.1187  0.1755  0.1387
14668W        W19068   0.572   6.257  33.483  0.0596 -0.1601 -0.0110
14669W        W19069   3.963   2.678   4.150 -0.0208 -0.0429  0.1670
14670W        W19070  25.108   1.485  32.485 -0.1078  0.2839  0.1901
14671W        W19071  25.314   3.980  34.936  0.2116 -0.0256  0.1447
14672W        W19072  14.894   4.295  26.421 -0.2675 -0.0416  0.0904
14673W        W19073  20.255   5.594  23.888  0.1801  0.0223  0.0387
14674W        W19074  23.640   1.221  14.487 -0.2073  0.1586 -0.0925
14675W        W19075  22.822   3.703  27.702 -0.4297  0.0472 -0.2325
14676W        W19076   3.027   4.732   6.716 -0.0338  0.0724  0.1115
14677W        W19077  23.980   2.749   2.183 -0.1152  0.0513  0.2253
14678W        W19078   9.944   4.477  30.248 -0.1363  0.0369 -0.1553
14679W        W19079   6.340   0.172   2.653  0.0089  0.4315 -0.0519
14680W        W19080  21.789   4.276   3.307 -0.0101 -0.2618 -0.1187
14681W        W19081  17.939   1.844  24.277 -0.1035  0.0784 -0.0263
14682W        W19082   4.861   6.220  34.496  0.2760 -0.0161 -0.2094
14683W        W19083  20.624   1.768  10.425 -0.0874  0.1535  0.2257
14684W        W19084   4.754   5.481  33.045 -0.3155  0.1431  0.0372
14685W        W19085  21.849   2.484  35.275  0.3015  0.1820 -0.4104
14686W        W19086  12.413   0.884  27.087 -0.2772  0.4632 -0.0229
14687W        W19087   4.867   0.685  35.225  0.0611 -0.0413 -0.2670
14688W        W19088   3.605   2.386  32.176 -0.2166  0.1876  0.0440
14689W        W19089   8.582   3.289  29.023 -0.2796  0.0882  0.0556
14690W        W19090  10.690   2.160   3.087  0.2945 -0.0789 -0.1966
14691W        W19091   8.323   3.658   6.514  0.2901  0.3687 -0.1653
14692W        W19092   0.036   5.270  35.922  0.0167  0.0224 -0.1173
14693W        W19093   6.359   4.032  15.069 -0.0996  0.0952  0.2181
14694W        W19094  17.484   0.720  20.836  0.3641 -0.0744  0.3600
14695W        W19095   3.343   5.335   3.392  0.0709 -0.1081  0.4258
14696W        W19096  17.847   0.619   2.992  0.3233 -0.2414  0.2202
14697W        W19097  17.690   2.378  12.588 -0.1247  0.0693  0.1429
14698W        W19098  14.203   4.284  33.544  0.2942 -0.1703  0.0881
14699W        W19099   4.231   1.571   3.523 -0.1497  0.1560  0.0451
14700W        W19100   3.041   3.913  31.697  0.0489 -0.0027 -0.1719
14701W        W19101  18.411   4.062   3.901 -0.1318 -0.3190 -0.1973
14702W        W19102   8.404   3.064  22.585  0.2291  0.0827  0.1278
14703W        W19103   9.748   4.692  28.357 -0.0920  0.1510 -0.0833
14704W        W19104   6.932   6.259  29.315  0.2263  0.0254  0.1064
14705W        W19105  21.903   6.018  23.307  0.3621 -0.0590  0.0061
14706W        W19106   8.893   6.445   6.847  0.1362  0.0947 -0.4304
14707W        W19107  16.606   4.574  26.154  0.1586 -0.0545 -0.3735
14708W        W19108   6.886   6.431   3.038 -0.2306 -0.0059  0.2986
14709W        W19109   1.612   1.052   0.659 -0.1316  0.0559  0.0436
14710W        W19110   8.938   0.164   8.353 -0.0330 -0.1477 -0.2179
14711W        W19111  12.244   6.305   5.880 -0.1770  0.0486 -0.0606
14712W        W19112   6.308   3.315   8.304 -0.1007  0.0923  0.0163
14713W        W19113   6.604   4.778  26.223  0.0698 -0.0116 -0.1257
14714W        W19114  14.937   3.406  12.703 -0.0698  0.0955 -0.1918
14715W        W19115  21.005   2.423   2.498  0.2621 -0.1571 -0.1222
14716W        W19116   6.546   0.698   1.365  0.0843 -0.0648  0.0964
14717W        W19117   0.566   4.583  34.686  0.0731  0.1386 -0.0176
14718W        W19118   5.881   0.203  21.746  0.0257  0.2349 -0.0652
14719W        W19119   7.167   4.406   7.626  0.0952 -0.1278  0.1073
14720W        W19120   8.491   0.697   9.777  0.0975  0.1530 -0.0052
14721W        W19121   2.047   0.374   8.104 -0.0215 -0.1503  0.4701
14722W        W19122  12.851   6.370   0.689  0.0034  0.2415  0.0400
14723W        W19123  10.825   3.287   1.692 -0.1729 -0.0266 -0.1266
14724W        W19124  21.640   5.535   9.384  0.0718 -0.0627  0.0680
14725W        W19125   2.087   2.479   6.429  0.2953 -0.1086 -0.1372
14726W        W19126  15.684   5.328  33.621  0.2325 -0.3059  0.2962
14727W        W19127   3.659   5.599   0.516 -0.1662 -0.1402 -0.2479
14728W        W19128  13.391   3.821  25.740 -0.1046  0.1420  0.1869
14729W        W19129   0.564   3.234  11.301 -0.0504 -0.2407  0.2921
14730W        W19130  19.786   2.802   0.625 -0.2454 -0.2378 -0.0852
14731W        W19131  19.563   5.020   2.211  0.1139  0.2494 -0.0397
14732W        W19132  22.725   3.557   0.100 -0.1120 -0.2452 -0.1615
14733W        W19133  18.416   2.936  23.716 -0.2402  0.1353 -0.0671
14734W        W19134   3.353   0.956   1.511 -0.0397 -0.0531 -0.1893
14735W        W19135  19.307   2.584  13.030 -0.0163 -0.0637 -0.1172
14736W        W19136  19.332   2.127  24.930 -0.0688  0.1018  0.0086
14737W        W19137  13.053   1.966  35.422  0.2788 -0.0290 -0.0962
14738W        W19138  18.918   0.451  30.740  0.1539 -0.1657  0.1682
14739W        W19139   4.837   1.184  23.624 -0.2196  0.2289  0.1475
14740W        W19140  24.012   2.988  32.445  0.0386  0.2034  0.2319
14741W        W19141  12.026   4.195  23.307 -0.2398  0.3242 -0.0420
14742W        W19142   4.992   2.235   2.372 -0.0653 -0.1140  0.1197
14743W        W19143  13.515   4.092  11.151 -0.1098  0.2632  0.1618
14744W        W19144  18.637   5.044  35.351 -0.3046 -0.0547 -0.0350
14745W        W19145  20.433   2.590  33.494  0.2221 -0.0860  0.0287
14746W        W19146  25.795   2.990  22.530 -0.1755 -0.1332  0.1464
14747W        W19147  20.108   3.495  36.020  0.3730 -0.1475  0.0965
14748W        W19148  17.728   5.858  14.858 -0.0829  0.1095 -0.1537
14749W        W19149  12.597   2.372   5.200 -0.0352  0.0089  0.0783
14750W        W19150  19.095   1.184  24.617 -0.1621  0.0319 -0.0615
14751W        W19151  25.511   4.545  33.665  0.1917 -0.1537 -0.0759
14752W        W19152  21.130   4.600  15.661 -0.2066  0.2288  0.0533
14753W        W19153   5.804   3.682  11.352 -0.2388 -0.2969 -0.3821
14754W        W19154  11.550   3.645   9.437  0.1941 -0.1952  0.0169
14755W        W19155  24.166   1.024  30.051 -0.0435  0.4022  0.1148
14756W        W19156  11.887   6.195  26.810 -0.0660  0.2575 -0.1368
14757W        W19157  11.673   1.585   9.575  0.1853 -0.0938  0.1799
14758W        W19158  17.422   0.734   0.497 -0.0232  0.0194  0.0567
14759W        W19159  19.399   3.736   1.036 -0.0794  0.3388  0.0450
14760W        W19160  19.973   0.689   6.729 -0.1430  0.1160 -0.0645
14761W        W19161   4.902   5.117   1.942 -0.0364  0.0416  0.0872
14762W        W19162  26.125   4.799  12.730 -0.0931  0.0546 -0.1313
14763W        W19163  12.675   6.334  29.004  0.0249  0.2903  0.1708
14764W        W19164   9.285   2.051  12.834 -0.0519 -0.0402  0.0381
14765W        W19165  16.714   1.515  26.817  0.0434 -0.2407  0.0674
14766W        W19166   5.466   0.983   0.625 -0.1879  0.0110 -0.2023
14767W        W19167  21.311   2.304  30.791 -0.1943 -0.1525  0.1767
14768W        W19168  15.239   4.037  34.435 -0.1666 -0.0128 -0.0758
14769W        W19169  12.484   1.418  10.911 -0.0976  0.2584  0.0566
14770W        W19170  15.323   4.700  10.106  0.0611  0.2316  0.1905
14771W        W19171   2.082   4.075  13.197  0.0148 -0.2674  0.1642
14772W        W19172  11.432   6.200   9.409 -0.2131 -0.2212  0.2222
14773W        W19173   2.110   5.835  28.822 -0.1050  0.0006 -0.0728
14774W        W19174  15.225   3.502  31.465 -0.0859  0.2422 -0.1285
14775W        W19175  24.692   1.426  25.013  0.3397 -0.3013 -0.1025
14776W        W19176  19.477   4.945   3.989 -0.2635 -0.2255  0.1087
14777W        W19177  12.784   3.665   4.181  0.1283 -0.0689 -0.1061
14778W        W19178  16.821   2.173   7.274 -0.1202  0.2391 -0.0656
14779W        W19179   2.522   2.376  10.677  0.1131 -0.0049  0.4690
14780W        W19180  18.223   3.249  23.073  0.2031 -0.2090 -0.2025
14781W        W19181   3.585   1.429  22.743 -0.2758  0.0747  0.1827
14782W        W19182   5.959   2.817  20.853  0.0265  0.0251  0.0264
14783W        W19183  11.273   3.590  29.746  0.2605 -0.1673 -0.3064
14784W        W19184  18.309   5.415  35.452 -0.0406 -0.0501 -0.2279
14785W        W19185  13.840   2.032   7.837  0.0044 -0.3698  0.0729
14786W        W19186  16.137   0.722  36.169 -0.1061  0.0656  0.2283
14787W        W19187  16.021   2.085   1.175 -0.0902  0.1184  0.0976
14788W        W19188   7.193   5.796  29.466 -0.0808 -0.0942  0.0699
14789W        W19189   3.916   1.890  14.017  0.3210 -0.2782  0.0135
14790W        W19190  23.742   2.551   1.771 -0.0855  0.2821 -0.0071
14791W        W19191   0.543   2.267  23.943 -0.0931  0.4172  0.0091
14792W        W19192  15.319   3.904  33.148 -0.2261  0.2225 -0.2337
14793W        W19193  14.610   4.899   3.594  0.0412 -0.2447  0.0491
14794W        W19194  26.316   6.306  21.558  0.0083 -0.1044  0.0682
14795W        W19195   8.997   0.706   0.291 -0.0507  0.2252  0.1027
14796W        W19196  19.213   1.566   1.182  0.1463 -0.4087 -0.0739
14797W        W19197  12.175   1.733   5.990 -0.0588 -0.0610 -0.2034
14798W        W19198   3.388   0.314   5.835  0.1067  0.1870  0.0292
14799W        W19199  26.399   1.473   9.775 -0.0339  0.2372 -0.0508
14800W        W19200  22.128   1.407   0.690  0.0083 -0.2326 -0.2863
14801W        W19201  18.802   3.537  12.644 -0.0839 -0.3437 -0.2503
14802W        W19202  16.674   4.896  30.735  0.3896  0.0034 -0.0049
14803W        W19203   2.088   3.319  24.232  0.0644  0.0509  0.0896
14804W        W19204   5.280   5.573  27.808  0.0106 -0.1603 -0.2255
14805W        W19205  21.435   4.516   4.405 -0.0447 -0.0707 -0.1664
14806W        W19206   3.630   5.498   4.511 -0.2915  0.1901  0.3929
14807W        W19207   4.652   3.047  13.974  0.2584  0.1740 -0.0310
14808W        W19208  11.335   3.654  25.170 -0.0336  0.0108  0.1035
14809W        W19209   8.316   0.750  14.897  0.0840  0.0173 -0.0796
14810W        W19210   2.273   0.960   8.651  0.3015 -0.2880 -0.0946
14811W        W19211   6.536   4.093   2.010  0.1371  0.2704  0.0733
14812W        W19212   4.259   4.772  26.654  0.2069 -0.0506  0.0692
14813W        W19213   4.421   0.801  15.012  0.2424  0.1948  0.0305
14814W        W19214  20.444   0.261  31.745  0.0349  0.1437 -0.0204
14815W        W19215  14.525   2.184   3.929 -0.1713 -0.0276  0.0312
14816W        W19216  24.407   1.107   1.340 -0.1679 -0.0041 -0.0959
14817W        W19217   8.090   1.559  35.052  0.0473 -0.1420  0.2116
14818W        W19218  23.490   4.181  31.809  0.3812 -0.3307  0.1747
14819W        W19219  12.072   1.719   0.462 -0.0715 -0.1663  0.1386
14820W        W19220   4.798   6.430  11.130  0.0537  0.0610 -0.0167
14821W        W19221  25.363   3.947  22.872  0.1171 -0.0001 -0.0919
14822W        W19222  26.357   3.052  10.742  0.1800 -0.2524  0.0502
14823W        W19223  24.233   0.948  32.440 -0.0604 -0.0112  0.1691
14824W        W19224   5.319   0.570  35.440 -0.0881 -0.2416  0.2329
14825W        W19225   7.373   4.041  35.083  0.0368  0.1075 -0.2623
14826W        W19226  22.024   3.924   3.568 -0.1502  0.0456 -0.1993
14827W        W19227  25.366   1.052  28.374 -0.1165 -0.1576 -0.1358
14828W        W19228   1.090   0.913  30.144  0.0283  0.1889  0.1872
14829W        W19229   0.155   3.214  23.978 -0.0047  0.3259 -0.2733
14830W        W19230  13.397   5.775  22.500  0.1163  0.2670  0.0214
14831W        W19231  13.058   4.875   4.948  0.1674 -0.2353 -0.1120
14832W        W19232   5.930   5.675   6.820  0.0792 -0.1361  0.0644
14833W        W19233   5.676   5.774   3.226 -0.0960 -0.0077 -0.2975
14834W        W19234   7.221   5.848  33.797  0.1650 -0.1213  0.0869
14835W        W19235   9.392   5.654  21.919 -0.0076  0.0113  0.0860
14836W        W19236  10.458   5.106  14.527  0.0290  0.1701  0.0604
14837W        W19237  14.160   6.001  21.275 -0.0488  0.3064  0.0313
14838W        W19238  17.840   2.706   6.560  0.0382  0.3570 -0.0648
14839W        W19239   4.998   3.965  31.929  0.2598  0.1138 -0.0774
14840W        W19240  14.667   5.847  34.388  0.0888  0.0886 -0.0666
14841W        W19241  24.384   4.643  33.048 -0.0105  0.0150  0.2120
14842W        W19242  11.014   2.895  33.536  0.3085  0.3159 -0.1224
14843W        W19243   7.567   0.933   8.977  0.2906  0.1906 -0.0094
14844W        W19244  19.163   4.185  11.359 -0.0440  0.0393  0.1732
14845W        W19245  17.421   1.186   0.230  0.2158 -0.3476  0.0370
14846W        W19246   7.220   3.860  24.566  0.0097  0.3752 -0.0881
14847W        W19247  21.913   2.969  35.276 -0.1112  0.2636 -0.1179
14848W        W19248  21.182   5.379   9.470  0.3450  0.3049 -0.1287
14849W        W19249  16.691   2.549  27.869  0.1274 -0.0085  0.1270
14850W        W19250   8.117   3.789   0.134  0.0072 -0.1740 -0.0971
14851W        W19251  19.883   3.922  26.274  0.2495  0.1032 -0.0153
14852W        W19252  26.087   1.908  14.452  0.0222  0.0409 -0.0642
14853W        W19253  19.716   1.701  31.984 -0.0093 -0.0464  0.0054
14854W        W19254   1.566   2.123  22.729 -0.1840 -0.3972  0.1500
14855W        W19255  15.672   3.354   0.339  0.0659 -0.0613 -0.0145
14856W        W19256  13.310   2.587  12.835  0.0453 -0.3198  0.2670
14857W        W19257  15.991   0.682  33.615 -0.2483 -0.1148 -0.1522
14858W        W19258   3.951   4.877   8.833 -0.2109 -0.0379 -0.1874
14859W        W19259  12.458   0.908  23.266 -0.1649 -0.2576 -0.0437
14860W        W19260  23.862   1.144   3.453  0.1809  0.3360 -0.0856
14861W        W19261   1.782   4.141   6.672  0.3663 -0.1626  0.1305
14862W        W19262  19.912   5.814  21.015 -0.0284 -0.3538 -0.1548
14863W        W19263  24.716   0.013  10.112 -0.0976  0.1799  0.1159
14864W        W19264  21.762   5.218   3.712  0.0615  0.3526 -0.1156
14865W        W19265  10.530   0.200  25.710  0.0350  0.0816 -0.1186
14866W        W19266  19.125   1.328  27.765  0.2590 -0.1234 -0.1902
14867W        W19267   8.118   4.910  25.179  0.1917  0.1913  0.1083
14868W        W19268  15.442   2.029   7.427  0.3594 -0.0397  0.3062
14869W        W19269   3.181   3.017  26.940 -0.1488  0.0669 -0.1985
14870W        W19270  21.941   0.874  14.758  0.0254 -0.6345 -0.0155
14871W        W19271   9.666   1.946  16.055 -0.0900  0.2123 -0.1870
14872W        W19272  17.079   5.667  28.837 -0.0063  0.2438  0.3194
14873W        W19273  22.610   4.974  20.664 -0.0331  0.2086  0.0273
14874W        W19274   3.792   2.173  30.623 -0.0172  0.0456 -0.0065
14875W        W19275  23.521   5.899  21.215 -0.1087  0.2248  0.1123
14876W        W19276  14.107   5.891  34.350 -0.0970 -0.1576  0.2472
14877W        W19277  22.564   4.776   3.801 -0.1004  0.0331 -0.0738
14878W        W19278   2.099   1.175  35.609  0.0261 -0.2457 -0.2004
14879W        W19279   6.141   3.839  24.513 -0.1133 -0.0127 -0.0352
14880W        W19280  21.912   3.009  29.593  0.0614 -0.1918  0.1391
14881W        W19281   2.502   4.822   2.640  0.0416  0.0471  0.1147
14882W        W19282  17.025   4.864   6.943  0.2027  0.2090  0.2845
14883W        W19283   4.647   5.028  11.144  0.2009  0.0581 -0.2028
14884W        W19284  12.740   4.029  23.121  0.1392  0.0850  0.3514
14885W        W19285  11.281   0.953  21.365 -0.2225  0.1246 -0.1596
14886W        W19286   4.416   3.875   5.230 -0.1138  0.1076 -0.1635
14887W        W19287  24.620   6.392  21.916  0.1400 -0.3220  0.0296
14888W        W19288  20.847   4.668  14.718  0.2580  0.1764  0.1846
14889W        W19289   3.074   4.349  35.444 -0.3784  0.2523  0.1081
14890W        W19290  14.280   2.994   5.757 -0.3636  0.4024 -0.2490
14891W        W19291  17.083   3.052  27.844  0.0381 -0.0702  0.1495
14892W        W19292   9.455   5.981   3.864  0.2555  0.0805 -0.4659
14893W        W19293  24.607   4.270   5.769  0.1652 -0.1707 -0.0985
14894W        W19294  10.666   5.186  32.735  0.0132 -0.0052  0.0100
14895W        W19295  19.781   0.611  13.849 -0.0296  0.0978 -0.0618
14896W        W19296  11.886   3.073  28.498  0.1326 -0.1985 -0.0136
14897W        W19297   1.250   5.076  33.159 -0.1485  0.3129  0.2031
14898W        W19298   2.203   6.483   9.882  0.1341  0.1395  0.3027
14899W        W19299  17.756   2.479   5.478  0.0515  0.0611  0.0576
14900W        W19300  13.420   4.186  28.719 -0.2305 -0.0613  0.0869
14901W        W19301   7.669   1.920  11.241 -0.2498  0.1601  0.3322
14902W        W19302  20.407   2.069  21.427  0.1025  0.2637 -0.1074
14903W        W19303  16.848   3.167   6.880 -0.4520 -0.2652 -0.2302
14904W        W19304  22.334   0.708  31.393 -0.2832  0.2804  0.4582
14905W        W19305  23.400   3.699  33.611  0.1125 -0.1623  0.0928
14906W        W19306  20.332   6.195  28.890  0.1237 -0.0373  0.1016
14907W        W19307  16.438   0.687  21.689  0.0287 -0.2058  0.1035
14908W        W19308  22.061   4.209   0.941  0.0918 -0.2568 -0.1814
14909W        W19309  19.353   1.860  23.286  0.0746  0.0262 -0.0945
14910W        W19310   2.782   1.114   4.579  0.1243 -0.1384 -0.3538
14911W        W19311  15.994   1.835  27.883 -0.3454  0.0828 -0.1298
14912W        W19312  21.954   2.257  12.311 -0.1888 -0.0076  0.0924
14913W        W19313  24.616   2.403  35.629  0.0069  0.0929 -0.0200
14914W        W19314  20.553   1.545  35.597 -0.0106 -0.1069 -0.0860
14915W        W19315   3.701   1.866   3.270  0.0336  0.0177 -0.1127
14916W        W19316  12.618   1.310  12.983 -0.0825  0.0403 -0.5145
14917W        W19317   8.774   1.022  27.057 -0.0194 -0.2741 -0.1616
14918W        W19318  20.456   5.383  32.944 -0.2263  0.0731 -0.0438
14919W        W19319  12.695   1.434   4.345  0.0104  0.4563  0.3237
14920W        W19320   7.264   5.868  25.454 -0.0601 -0.5171  0.0788
14921W        W19321  12.418   4.139  30.113  0.0676  0.0945 -0.2786
14922W        W19322  25.972   3.747  29.870 -0.0580 -0.1761  0.4893
14923W        W19323   2.628   5.836  23.558 -0.0935  0.4432 -0.3689
14924W        W19324  16.043   6.009   9.628 -0.1917  0.3136 -0.0259
14925W        W19325  26.318   4.984  25.237  0.0627 -0.0749  0.4809
14926W        W19326  15.424   2.412   4.622  0.0790  0.0022 -0.1744
14927W        W19327   7.760   4.635  12.324 -0.1218 -0.1162 -0.1805
14928W        W19328   9.501   1.323   6.211 -0.1234  0.0510  0.0831
14929W        W19329  18.646   3.562  32.770  0.0298 -0.1435 -0.1544
14930W        W19330   3.044   3.499  31.398  0.0294 -0.4013  0.1535
14931W        W19331   6.087   0.492  30.752  0.0885  0.0878 -0.1055
14932W        W19332   7.680   5.955  22.568  0.2638  0.2537  0.0027
14933W        W19333  24.709   4.555  21.009 -0.0611 -0.0801 -0.0407
14934W        W19334   3.899   5.600  26.253 -0.1521 -0.0804 -0.0118
14935W        W19335  24.481   5.075   2.260 -0.0173 -0.0289 -0.1232
14936W        W19336  19.175   3.483  29.949 -0.2641 -0.1296  0.2468
14937W        W19337  10.248   5.655  14.545 -0.3939  0.2335  0.2387
14938W        W19338   7.662   4.728   7.938 -0.0901  0.2975  0.0310
14939W        W19339   9.233   4.183  31.980  0.0854 -0.2209  0.0024
14940W        W19340  13.683   0.000  22.064 -0.2615  0.1625 -0.0673
14941W        W19341  14.619   1.321   5.016  0.2734  0.3772 -0.2401
14942W        W19342   6.872   0.861  20.840  0.0158 -0.3129 -0.1793
14943W        W19343  16.869   5.174  24.570 -0.2471 -0.1092  0.2463
14944W        W19344  14.365   6.180   0.014 -0.0467  0.1578 -0.0764
14945W        W19345   8.944   2.898  22.476  0.0665  0.0728  0.2646
14946W        W19346  10.373   5.920  28.465 -0.2605 -0.1070  0.0929
14947W        W19347  21.289   2.927   4.421  0.0713 -0.0901  0.0895
14948W        W19348   2.058   5.322  33.254  0.2071  0.0429 -0.2152
14949W        W19349  22.802   2.158  22.662 -0.1141  0.0719  0.0406
14950W        W19350   0.548   4.319  29.078  0.0727 -0.0559 -0.0393
14951W        W19351   9.684   3.504  23.457 -0.0222  0.1451  0.3354
14952W        W19352  17.873   1.331  24.143 -0.2578 -0.4718 -0.3549
14953W        W19353  14.497   3.197   9.094 -0.4002  0.0937  0.1115
14954W        W19354  21.409   4.104  25.992  0.2004  0.0955 -0.0868
14955W        W19355  16.781   0.045  14.196 -0.0946 -0.0780  0.0700
14956W        W19356  12.728   2.254  24.852 -0.3137 -0.1102  0.3091
14957W        W19357  23.009   3.141  35.346  0.2376  0.3411  0.1738
14958W        W19358  13.599   0.477  35.833 -0.3072  0.2247 -0.0922
14959W        W19359  10.905   3.661  27.340  0.2878 -0.0148 -0.1773
14960W        W19360  23.833   1.455  28.831  0.1001 -0.0598  0.1332
14961W        W19361   6.876   3.633  21.947 -0.1830 -0.2292  0.1491
14962W        W19362   5.532   3.007  31.178  0.1440  0.1877 -0.1539
14963W        W19363   3.180   4.234  26.078 -0.0176  0.0051 -0.1070
14964W        W19364   7.998   1.282   8.855  0.0562  0.1291  0.0379
14965W        W19365   4.169   5.033   9.269  0.3661  0.2610  0.1167
14966W        W19366  23.724   0.793   3.005  0.3262 -0.2335  0.0286
14967W        W19367   4.249   5.868   1.185 -0.0981 -0.0190 -0.1476
14968W        W19368  14.117   0.079   3.612  0.0199 -0.2290  0.0728
14969W        W19369  18.321   5.522  26.233 -0.2082  0.1557 -0.0307
14970W        W19370   2.686   3.441  22.385 -0.2768  0.3470  0.3696
14971W        W19371   9.577   0.283  15.615 -0.2266 -0.4122  0.1900
14972W        W19372  14.885   5.689   5.931 -0.1206 -0.2531 -0.1453
14973W        W19373   8.904   1.164   9.881 -0.0915  0.0207  0.2794
14974W        W19374   7.228   5.430  10.740 -0.1589  0.2864  0.2206
14975W        W19375   7.064   3.165  10.974  0.0622  0.0917  0.1533
14976W        W19376   9.979   2.265  31.607 -0.2174 -0.0631  0.0435
14977W        W19377  18.114   1.676  21.525  0.2520 -0.1962 -0.0200
14978W        W19378  14.867   2.441  15.058 -0.1346  0.0770  0.0252
14979W        W19379   9.333   1.099  24.126 -0.1330 -0.1676  0.0139
14980W        W19380  13.316   2.412  34.630  0.0571 -0.0938  0.0082
14981W        W19381  22.296   6.322  26.102 -0.1264 -0.1371  0.1496
14982W        W19382  21.741   2.185  22.268 -0.4315 -0.1718  0.1137
14983W        W19383   4.715   1.905   8.953  0.1495  0.0650  0.0343
14984W        W19384  17.157   4.371  13.509 -0.1270 -0.0044  0.0751
14985W        W19385  10.088   0.723  29.795  0.1356 -0.2236 -0.0005
14986W        W19386   9.224   4.026  15.127 -0.2397  0.1568  0.0896
14987W        W19387   0.882   6.307  11.896 -0.2150 -0.2239  0.1082
14988W        W19388  19.706   1.033  28.438  0.0996 -0.0089 -0.2284
14989W        W19389  24.986   2.319  13.688  0.1064 -0.0393  0.0735
14990W        W19390   7.304   2.086  35.642  0.1985  0.0347 -0.3639
14991W        W19391  14.177   3.143  13.183 -0.0120  0.2611  0.1955
14992W        W19392  24.408   1.349  27.079 -0.0136 -0.2785 -0.0344
14993W        W19393  24.737   1.689   9.354 -0.2247  0.2759 -0.0352
14994W        W19394   8.996   5.961  25.280  0.0568  0.1297  0.1458
14995W        W19395   7.630   1.000  30.012  0.5130 -0.2206  0.3469
14996W        W19396  26.120   2.834   0.898 -0.0606  0.1878  0.0355
14997W        W19397  15.643   3.517  21.655 -0.0554  0.0720 -0.1323
14998W        W19398  15.165   5.347   8.106 -0.0339  0.0882  0.3125
14999W        W19399  14.569   1.340   6.117  0.0817 -0.0184 -0.0408
15000W        W19400   7.713   3.719  32.186 -0.1290 -0.2450  0.0700
15001W        W19401  24.481   2.238  11.725  0.1623  0.2399 -0.0896
15002W        W19402   3.130   5.906   1.609 -0.0542 -0.0106  0.0440
15003W        W19403   3.457   0.919  30.187 -0.0649  0.0071 -0.1149
15004W        W19404   6.045   1.638  25.128  0.1630 -0.0919  0.0964
15005W        W19405   7.048   6.557  33.356  0.2619  0.0586 -0.2440
15006W        W19406  18.416   4.643  14.054  0.0229 -0.1103 -0.0549
15007W        W19407  21.862   5.228  12.363  0.0227  0.1483  0.2883
15008W        W19408  16.371   3.917  11.254  0.0045 -0.1483 -0.0646
15009W        W19409   4.733   1.728  33.416  0.2257  0.3536 -0.0101
15010W        W19410   9.162   5.281  22.294  0.1923  0.2153  0.0108
15011W        W19411  21.918   2.856   7.277  0.1163  0.0475 -0.0984
15012W        W19412   6.393   6.263  35.473  0.0752 -0.0877  0.0588
15013W        W19413  23.258   3.983  13.608  0.1564  0.0537 -0.1364
15014W        W19414   1.112   1.118  25.542 -0.1209  0.1303 -0.3147
15015W        W19415   1.049   5.238  14.831  0.1102 -0.1788  0.0997
15016W        W19416   4.064   3.217  26.968  0.0412  0.1315  0.2059
15017W        W19417  14.216   4.609   0.734  0.0932 -0.1675  0.0912
15018W        W19418   9.390   2.737   1.534 -0.2269 -0.1334  0.2947
15019W        W19419  14.464   4.032   0.100 -0.2761 -0.0486 -0.4792
15020W        W19420  22.600   6.487  11.243 -0.2676  0.2768  0.0927
15021W        W19421  18.152   3.595   5.550 -0.1088  0.0406 -0.0066
15022W        W19422  17.196   2.566  12.513 -0.2530  0.3538  0.1432
15023W        W19423   3.356   3.605  34.737  0.1146  0.0378 -0.0582
15024W        W19424   3.525   6.138  11.859 -0.5282 -0.1269 -0.0459
15025W        W19425  16.413   1.456   9.427 -0.0477  0.0001 -0.1274
15026W        W19426  23.661   5.585  12.446  0.0335 -0.1909  0.1034
15027W        W19427   1.716   1.470  26.239 -0.1037 -0.3435  0.0390
15028W        W19428  10.543   1.513  33.580 -0.3860 -0.1766 -0.0181
15029W        W19429   2.451   2.501  34.033  0.3380 -0.0198  0.3738
15030W        W19430   1.748   2.262   3.027 -0.0720 -0.0006  0.0975
15031W        W19431   8.073   3.981   6.871 -0.3677 -0.1371 -0.0928
15032W        W19432  16.420   5.577  11.706  0.1336 -0.0537 -0.0637
15033W        W19433  18.160   5.248   4.807  0.2044 -0.0358  0.1400
15034W        W19434  14.436   0.709  15.434  0.0280  0.2705  0.1719
15035W        W19435  21.248   4.210  29.314 -0.1303  0.2745  0.1305
15036W        W19436   2.413   0.409  14.546 -0.2371  0.0845 -0.0898
15037W        W19437  10.930   3.842   4.750 -0.0898 -0.0493  0.2361
15038W        W19438  17.817   5.573  14.304 -0.1215 -0.1952  0.0171
15039W        W19439  15.274   4.310  14.471  0.2266 -0.0704  0.2893
15040W        W19440   5.100   0.770   0.132 -0.2406 -0.0175 -0.2556
15041W        W19441   9.221   1.920  30.780  0.3803  0.0538 -0.0026
15042W        W19442   8.630   4.867  32.694  0.0511 -0.0009  0.3080
15043W        W19443  18.695   5.284   1.022  0.3007 -0.0379 -0.1097
15044W        W19444   6.834   0.443   9.964  0.1184  0.1406  0.1955
15045W        W19445   6.994   0.132  10.298  0.0857  0.0406  0.3419
15046W        W19446   8.235   4.812   0.585 -0.2292  0.4504  0.1059
15047W        W19447  19.943   4.409  14.557 -0.1503  0.3427 -0.2781
15048W        W19448  18.143   4.749   0.665  0.0195 -0.2138 -0.0731
15049W        W19449  22.743   1.902  28.238 -0.0802  0.2800 -0.0732
15050W        W19450  10.236   4.801   0.223  0.3891  0.0165 -0.1635
15051W        W19451   8.109   0.929   2.992  0.2260 -0.0006 -0.0219
15052W        W19452  10.053   6.236   9.379 -0.3162  0.2113  0.1780
15053W        W19453   4.860   4.691   9.470 -0.0578  0.1033  0.0443
15054W        W19454  25.653   5.336   3.947 -0.2329 -0.0040 -0.0088
15055W        W19455  14.459   6.352  25.980 -0.1579 -0.3197  0.0152
15056W        W19456  21.794   0.127  29.203  0.1814 -0.1712  0.0510
15057W        W19457  24.877   3.188  20.938  0.0220  0.1931 -0.4385
15058W        W19458  14.804   1.718   3.971  0.1112  0.2315 -0.0551
15059W        W19459  10.910   4.974  35.386 -0.3528  0.3464  0.0776
15060W        W19460  25.564   0.597  21.585  0.2365 -0.1002 -0.1153
15061W        W19461   5.546   1.209   3.667  0.0960  0.2169  0.0496
15062W        W19462  16.432   2.220  29.879  0.1837 -0.1202 -0.0180
15063W        W19463  23.944   3.506  23.260 -0.0411  0.2746 -0.0798
15064W        W19464   2.574   1.681  26.277 -0.2886  0.4097  0.3032
15065W        W19465  25.594   6.043  20.108 -0.0832  0.0732 -0.2208
15066W        W19466   4.930   3.712   9.161  0.0471 -0.1952 -0.1016
15067W        W19467  11.156   1.914  15.244 -0.3251 -0.0040 -0.1732
15068W        W19468  19.189   1.384  14.586  0.1424  0.0426  0.0446
15069W        W19469  22.181   0.132  30.668  0.2873  0.0672 -0.2974
15070W        W19470   2.984   1.763  28.482 -0.1184  0.1799 -0.1023
15071W        W19471   2.484   4.142  12.603 -0.0749 -0.1314  0.2365
15072W        W19472  12.139   3.968  11.182  0.0526  0.2490  0.0229
15073W        W19473   9.742   6.142   1.699  0.0965 -0.1479 -0.0268
15074W        W19474   6.894   2.198  23.847  0.0894  0.1555  0.1102
15075W        W19475   4.833   0.202  10.820 -0.0137  0.0395  0.2293
15076W        W19476  22.998   6.200   6.711 -0.0133 -0.0226 -0.0971
15077W        W19477  11.229   4.867   2.021 -0.0898  0.0933  0.0969
15078W        W19478   3.723   6.545  32.945 -0.0227 -0.0621 -0.1316
15079W        W19479  16.345   3.613  13.425 -0.1369  0.2377 -0.3329
15080W        W19480  11.085   1.775  11.479 -0.0403  0.0037  0.0353
15081W        W19481  16.519   3.731  13.946  0.1288  0.5143  0.0777
15082W        W19482  14.567   4.640   3.051 -0.0334  0.2034 -0.0429
15083W        W19483  16.335   6.045   3.019 -0.1606 -0.0924  0.1257
15084W        W19484   4.338   4.457  13.669  0.2032  0.1783  0.0205
15085W        W19485  18.693   1.116  10.679 -0.0779 -0.0906 -0.0370
15086W        W19486  26.064   1.555  22.207  0.0089 -0.0108 -0.3392
15087W        W19487  20.527   4.438   4.561  0.2273 -0.1202 -0.4126
15088W        W19488  20.866   4.926  12.059  0.2317 -0.0947 -0.0253
15089W        W19489  17.600   3.607   9.192  0.0289  0.0666 -0.2100
15090W        W19490  15.741   0.502  33.257  0.1717  0.0850 -0.0586
15091W        W19491   8.734   5.690   7.388 -0.1763  0.1837  0.1126
15092W        W19492   7.016   1.400   0.223 -0.1244 -0.1593  0.0334
15093W        W19493  18.004   0.839  14.186  0.4824  0.1025 -0.0057
15094W        W19494   4.187   0.573  35.285  0.0052  0.4038  0.2256
15095W        W19495  24.262   4.826   9.486  0.0336 -0.2887 -0.2279
15096W        W19496  16.985   0.936   8.233  0.0361  0.1290  0.3836
15097W        W19497  17.250   0.569  21.237  0.2205 -0.1578 -0.1892
15098W        W19498  25.709   5.265   7.645  0.3348  0.2388 -0.1523
15099W        W19499  21.540   1.956   8.868  0.0864 -0.0777 -0.2505
15100W        W19500  19.389   2.445  25.736  0.0190 -0.2425 -0.1379
15101W        W19501  19.730   2.700  13.253 -0.0176  0.0652 -0.0596
15102W        W19502  22.976   2.284  21.144  0.2635  0.0627 -0.2819
15103W        W19503   8.343   2.283   9.474  0.0046 -0.2296  0.2072
15104W        W19504   2.997   3.525   6.106  0.1554 -0.2904  0.1280
15105W        W19505  11.945   2.698  27.611  0.1989 -0.4372 -0.2020
15106W        W19506  25.082   3.308   3.078 -0.0731 -0.1017  0.2103
15107W        W19507  10.197   0.730  27.903  0.1048  0.3890  0.1388
15108W        W19508  24.116   1.470  25.940 -0.0225 -0.1099  0.0310
15109W        W19509   4.382   5.629  32.146 -0.1232 -0.3205 -0.2473
15110W        W19510   6.239   6.400  10.432  0.1359 -0.0520 -0.0781
15111W        W19511  25.601   4.103  33.978  0.0247  0.3908  0.4117
15112W        W19512   2.961   1.923  35.982 -0.2652  0.2209  0.0221
15113W        W19513  25.131   5.627  24.153 -0.2969 -0.0797 -0.1481
15114W        W19514  17.535   2.039  35.176  0.2638  0.0961  0.0135
15115W        W19515  22.753   4.964  22.787 -0.1331  0.0278  0.3225
15116W        W19516   3.188   1.180   8.010  0.3471  0.0861 -0.0388
15117W        W19517  16.763   2.988  11.872 -0.1770 -0.2291 -0.0157
15118W        W19518   8.408   5.255   2.649 -0.1275 -0.1553 -0.0077
15119W        W19519  15.469   1.933  28.022  0.1164 -0.1152  0.1529
15120W        W19520  16.456   3.620  30.135 -0.2096  0.2108 -0.0021
15121W        W19521  24.307   6.464   5.664 -0.1060 -0.1127 -0.1019
15122W        W19522  17.551   4.508   0.776 -0.3592 -0.3029  0.0452
15123W        W19523   1.625   3.358  26.939 -0.0476  0.0583 -0.0065
15124W        W19524   6.791   2.133  20.407  0.1487  0.0633  0.1690
15125W        W19525  16.405   5.350   0.419  0.2457  0.0515 -0.5747
15126W        W19526   6.072   6.043   2.010  0.2703  0.0220  0.2055
15127W        W19527   5.168   5.876   8.876  0.1217 -0.2301  0.2455
15128W        W19528   1.625   5.448  24.834  0.1052 -0.0750  0.0563
15129W        W19529  19.802   3.833  15.184 -0.1094 -0.2577 -0.0669
15130W        W19530   7.744   3.576  23.093 -0.0673  0.2456  0.1233
15131W        W19531  21.174   1.263  28.358  0.1397 -0.1036  0.0707
15132W        W19532   6.864   6.165   2.545  0.1535  0.0731 -0.1477
15133W        W19533  19.178   6.020  13.864  0.1027  0.1828 -0.1388
15134W        W19534   9.877   0.825   3.238  0.3717 -0.0257  0.1071
15135W        W19535   5.291   4.817  21.349 -0.0072  0.0539  0.0784
15136W        W19536   8.643   2.689  11.519  0.3758  0.3389  0.0159
15137W        W19537   6.433   6.351  32.275 -0.0571 -0.1035 -0.2112
15138W        W19538   8.065   6.219  12.355  0.1326 -0.1970 -0.3491
15139W        W19539   8.254   6.464   9.571 -0.0012  0.1170  0.0097
15140W        W19540  24.532   2.889   2.992  0.1504  0.0021  0.1770
15141W        W19541  22.034   2.459  32.711  0.0918  0.1399  0.1357
15142W        W19542  24.364   2.211  29.446 -0.3466 -0.0727  0.0677
15143W        W19543  22.211   3.240  32.528  0.1223  0.0308 -0.1414
15144W        W19544  19.166   3.215  29.429  0.1348 -0.0134  0.0352
15145W        W19545  19.775   1.394   9.683 -0.0452 -0.0207 -0.1327
15146W        W19546  14.128   0.952  26.323  0.1669 -0.1230  0.1266
15147W        W19547   2.256   4.074  28.911  0.0177  0.0801 -0.0303
15148W        W19548  19.657   4.437  28.454 -0.0911 -0.0904  0.0108
15149W        W19549   3.719   6.314  21.994  0.5218  0.2501 -0.0010
15150W        W19550  24.177   0.985  33.265 -0.1013  0.1184 -0.1912
15151W        W19551   8.895   2.681   3.105  0.1583  0.1563  0.2117
15152W        W19552  10.920   3.229   8.842  0.2818 -0.0558  0.0016
15153W        W19553   7.349   0.597  30.636 -0.0144  0.0244  0.2553
15154W        W19554  10.586   5.297  10.640 -0.0756  0.0749 -0.0394
15155W        W19555   0.610   3.588  10.596 -0.0149 -0.0732  0.1261
15156W        W19556   2.848   5.067   1.940  0.0385 -0.1345 -0.0465
15157W        W19557   9.581   4.698   7.936 -0.2797  0.0040  0.0710
15158W        W19558  23.837   5.375  33.039 -0.0234 -0.0530 -0.2058
15159W        W19559  10.661   6.052  11.461  0.2661 -0.0859  0.2473
15160W        W19560   7.836   4.906  26.962 -0.0101 -0.2968  0.0552
15161W        W19561   0.197   3.530   3.974  0.0117 -0.1244  0.1100
15162W        W19562  23.517   0.241   4.602  0.2584 -0.0841  0.1865
15163W        W19563  15.622   2.773  27.798  0.1551  0.2820  0.1741
15164W        W19564  18.471   1.890   6.499 -0.0064  0.0636  0.2273
15165W        W19565  23.532   5.066  12.299  0.2224 -0.1990  0.1694
15166W        W19566  14.618   1.226  27.557  0.0803 -0.0492  0.2863
15167W        W19567   7.723   2.290   1.700 -0.1817 -0.0543  0.0146
15168W        W19568  10.644   5.454  29.152 -0.3389  0.2260  0.0935
15169W        W19569  20.765   4.910  30.712 -0.2371 -0.1097 -0.1578
15170W        W19570  21.873   1.479   1.718 -0.1245  0.2337  0.2390
15171W        W19571  10.018   5.915   0.301  0.0243  0.3854 -0.2720
15172W        W19572  17.367   5.927  23.479 -0.2501 -0.0478  0.4640
15173W        W19573  19.840   0.313   3.617  0.3247  0.3568 -0.3307
15174W        W19574  10.984   2.083  11.041  0.1404 -0.0763 -0.0751
15175W        W19575   1.139   1.479  11.751  0.2011 -0.1542  0.2141
15176W        W19576   6.558   0.951  23.400  0.2228 -0.0947 -0.3845
15177W        W19577  12.264   4.040   7.588 -0.2900 -0.0982  0.0246
15178W        W19578   2.589   0.456  29.543  0.0491  0.2516  0.1218
15179W        W19579   1.277   2.120  14.565 -0.1533 -0.3736  0.1708
15180W        W19580  13.674   6.479   8.715 -0.0962  0.0642 -0.2005
15181W        W19581  15.678   2.897  36.181 -0.0092 -0.0556 -0.1489
15182W        W19582   2.798   4.807  23.940 -0.3033  0.2100  0.0138
15183W        W19583  25.865   2.765  25.130  0.1192 -0.2646 -0.0644
15184W        W19584  23.641   6.256  32.162  0.0760 -0.3233  0.0822
15185W        W19585   7.728   2.611  24.732  0.0122  0.0488 -0.2915
15186W        W19586  13.854   1.897  27.178  0.1538 -0.0158  0.3357
15187W        W19587  15.242   5.550  29.001 -0.0985  0.0787 -0.0774
15188W        W19588  10.309   2.489   9.965 -0.2381  0.0545  0.1849
15189W        W19589  17.808   1.008  24.447  0.1292  0.1908  0.0078
15190W        W19590   7.169   6.427  25.652  0.0268 -0.1059 -0.1347
15191W        W19591   1.984   5.188  14.119  0.1496  0.1851  0.0216
15192W        W19592   3.274   2.993  30.281 -0.0035 -0.0185  0.0927
15193W        W19593  21.335   5.228  26.287 -0.4054  0.0985  0.2703
15194W        W19594  11.664   0.922   2.336  0.1551 -0.1063 -0.1646
15195W        W19595   3.553   4.401  23.253 -0.3426 -0.0565 -0.1592
15196W        W19596  13.500   0.857  24.804 -0.1622 -0.1399 -0.1899
15197W        W19597  10.226   2.938  24.669 -0.2791 -0.2329  0.0607
15198W        W19598  22.754   1.284  33.596  0.1328 -0.0593  0.2783
15199W        W19599  14.030   2.424  10.588  0.0591  0.2180 -0.3881
15200W        W19600  21.056   0.755  23.214 -0.2802 -0.1264  0.0801
15201W        W19601  12.283   3.010  29.409 -0.1513 -0.0509  0.1328
15202W        W19602  10.625   3.636   9.193 -0.0583 -0.2736 -0.0593
15203W        W19603  20.625   0.236  35.187 -0.2718 -0.0532 -0.1198
15204W        W19604  20.641   4.843   4.768 -0.1683 -0.0508 -0.3172
15205W        W19605   9.599   3.756   9.997 -0.0554  0.0642 -0.0087
15206W        W19606  21.195   4.715  33.637 -0.1439  0.2596  0.0474
15207W        W19607  17.275   6.094   4.983 -0.1609  0.0650 -0.1184
15208W        W19608   4.917   4.785  34.877  0.2083  0.2724  0.0172
15209W        W19609   3.606   4.280   1.662  0.2659 -0.1720 -0.0627
15210W        W19610  25.586   2.056  32.983  0.2527 -0.0034  0.2156
15211W        W19611   0.980   5.802  31.197 -0.1565 -0.0142  0.3045
15212W        W19612  11.732   2.815   3.902 -0.2831  0.3756 -0.2207
15213W        W19613   2.661   6.568  26.408  0.3328 -0.1209  0.0670
15214W        W19614  23.151   3.368  32.951  0.1637  0.1315 -0.0111
15215W        W19615  10.792   3.648   3.680 -0.0703 -0.0312 -0.0917
15216W        W19616  22.504   6.389   7.438 -0.1956 -0.0606  0.0357
15217W        W19617  16.864   4.664  13.079 -0.2510 -0.0681 -0.1481
15218W        W19618  26.373   1.270  24.014 -0.0973  0.4341 -0.0709
15219W        W19619  20.422   3.569  13.116 -0.1311 -0.1021 -0.1149
15220W        W19620   3.039   6.064  27.317 -0.0229 -0.2701 -0.0038
15221W        W19621   7.398   0.020  23.742 -0.2119  0.0751 -0.1455
15222W        W19622   7.981   3.707  23.544  0.1931 -0.1255  0.2174
15223W        W19623  24.010   1.318  14.805 -0.1674 -0.0944  0.0285
15224W        W19624  18.484   4.885  23.644 -0.2387  0.2293 -0.0731
15225W        W19625   7.706   0.139  28.964 -0.1798 -0.0762  0.0864
15226W        W19626  19.839   5.551  11.746 -0.0325 -0.1291 -0.0465
15227W        W19627   1.018   5.448  32.921  0.1443  0.0523  0.2722
15228W        W19628   6.146   1.166   8.540 -0.2167 -0.0710 -0.0869
15229W        W19629   5.791   0.191  30.965  0.1912 -0.0922  0.0685
15230W        W19630   8.193   3.603  26.494 -0.0928  0.0396 -0.1568
15231W        W19631  17.707   0.373  21.209 -0.0274  0.0487  0.0567
15232W        W19632  18.177   4.772   5.131 -0.0803 -0.0754 -0.0822
15233W        W19633  13.744   1.383  35.526  0.2945 -0.2486 -0.2681
15234W        W19634  21.748   3.024  20.688 -0.0772  0.0012 -0.1012
15235W        W19635  12.468   3.068  13.147 -0.1792  0.3634  0.0500
15236W        W19636  10.726   1.298  34.982 -0.1006  0.0522  0.2201
15237W        W19637  20.600   4.283  10.371  0.1590  0.1807 -0.2429
15238W        W19638  13.953   4.140  35.648  0.2101  0.1322 -0.2508
15239W        W19639   1.797   5.338  34.702 -0.3624  0.2644 -0.0361
15240W        W19640  24.877   3.114  27.001  0.2064  0.1281  0.0953
15241W        W19641   8.762   2.120  29.002  0.1773 -0.0593  0.0315
15242W        W19642   2.300   6.022  21.541  0.2395  0.1252 -0.1314
15243W        W19643  15.792   4.263  35.633 -0.4659  0.0040  0.1179
15244W        W19644   1.604   5.158  33.506  0.2321 -0.3345  0.0446
15245W        W19645  25.679   6.404  20.514  0.1610  0.0402  0.0232
15246W        W19646  14.899   4.531  29.793  0.0428  0.1168 -0.2640
15247W        W19647   8.064   5.904   9.316  0.2925  0.1366  0.0158
15248W        W19648  15.875   5.539  13.468 -0.1093 -0.0970 -0.4209
15249W        W19649  20.733   6.127   0.490 -0.0584 -0.1815 -0.0378
15250W        W19650  15.467   0.851  24.782 -0.1488  0.1774  0.0917
15251W        W19651   4.830   2.767   5.947 -0.4124 -0.0599 -0.1459
15252W        W19652  20.630   2.320   4.292  0.1691 -0.2004 -0.2286
15253W        W19653   8.780   0.325  13.636 -0.0048 -0.0024  0.1790
15254W        W19654  16.355   0.908  14.188 -0.1500  0.0573 -0.3753
15255W        W19655  12.649   0.579   7.459  0.2381  0.1324  0.0501
15256W        W19656  12.930   0.310  22.734 -0.2820 -0.0216 -0.1045
15257W        W19657   0.083   6.566  27.579 -0.2007  0.0062  0.1408
15258W        W19658  11.909   4.611  11.331  0.0740  0.0370  0.1881
15259W        W19659  12.790   5.151  35.916  0.4349 -0.0724 -0.0242
15260W        W19660   6.867   4.292  27.186 -0.0077  0.0368 -0.0735
15261W        W19661   9.017   1.515   2.989 -0.0284  0.0220  0.0262
15262W        W19662   0.349   3.432   5.894 -0.1372  0.3103  0.1474
15263W        W19663  21.552   4.783  28.005  0.0913  0.0635  0.0730
15264W        W19664   3.381   5.742  26.359  0.2072 -0.1727 -0.1739
15265W        W19665   9.981   0.367  23.564 -0.3015  0.2222  0.2450
15266W        W19666  18.280   2.263  24.680  0.0187  0.1158  0.1632
15267W        W19667  15.912   4.777  23.540 -0.0746 -0.1653  0.1160
15268W        W19668  19.457   6.542   2.868 -0.1862  0.1158 -0.0745
15269W        W19669   7.977   3.390  14.522  0.3669 -0.1064  0.1314
15270W        W19670  19.382   0.230  30.444  0.0454  0.2525  0.0625
15271W        W19671  20.551   4.864   2.111 -0.0025  0.1868  0.2038
15272W        W19672  26.234   6.409  20.462  0.0693 -0.1039 -0.2024
15273W        W19673   3.085   0.124  28.237  0.3011 -0.1278  0.0286
15274W        W19674  25.095   5.764   8.171  0.2292 -0.0429  0.0172
15275W        W19675  21.756   3.921  35.173 -0.1070  0.0801 -0.2980
15276W        W19676   3.141   3.489  10.692 -0.2552  0.0161 -0.1690
15277W        W19677  18.255   3.829  34.390 -0.2972  0.2465  0.0856
15278W        W19678  15.941   3.765   6.000 -0.0212  0.1179 -0.3089
15279W        W19679  14.072   2.866  14.911  0.1878 -0.1857  0.0152
15280W        W19680  12.520   0.237   4.309 -0.2593 -0.1620 -0.2600
15281W        W19681   2.517   6.094   1.289  0.2651 -0.0058 -0.0706
15282W        W19682  13.188   3.001  22.648  0.0199 -0.1018 -0.1487
15283W        W19683   3.896   1.607  35.497 -0.4287 -0.0673  0.1487
15284W        W19684  12.255   4.417  10.993 -0.1531 -0.0716 -0.0161
15285W        W19685  26.165   5.840   1.633  0.2029  0.0081  0.0954
15286W        W19686  17.859   4.310   2.467  0.1051  0.0086  0.0672
15287W        W19687   5.834   2.317  23.711 -0.1537  0.2998 -0.1504
15288W        W19688   6.679   1.582  35.174  0.0262 -0.1060  0.0417
15289W        W19689   6.954   4.528   3.867 -0.1644  0.0199  0.0987
15290W        W19690   9.280   2.323  14.763  0.2364  0.1029  0.0732
15291W        W19691  11.342   6.402  13.664 -0.2344 -0.2487 -0.1133
15292W        W19692   3.369   2.616   2.582  0.0494  0.0189  0.2262
15293W        W19693  17.111   1.426  29.207 -0.1433  0.4264 -0.1579
15294W        W19694  17.977   0.561   1.775 -0.2247 -0.2250 -0.1464
15295W        W19695   7.649   0.264  35.530 -0.3343  0.1257 -0.3641
15296W        W19696  18.350   3.961  35.822  0.2233  0.1268 -0.0724
15297W        W19697   4.191   0.387  31.810  0.1943  0.2240 -0.0591
15298W        W19698  17.077   0.880   2.512 -0.2130 -0.2695  0.0425
15299W        W19699  13.722   3.674   8.368  0.1246 -0.2650 -0.1042
15300W        W19700  20.697   2.181  23.497 -0.2813  0.1146 -0.0650
15301W        W19701  10.498   5.486  33.615 -0.0451 -0.0364  0.2323
15302W        W19702   9.531   2.552  25.891 -0.2077  0.1646 -0.2208
15303W        W19703  12.221   5.912   8.139  0.1391 -0.0943  0.2518
15304W        W19704   8.644   0.270   0.404 -0.0474 -0.1343  0.2624
15305W        W19705   0.252   5.834  24.755  0.0450 -0.2766 -0.0928
15306W        W19706  23.210   2.902   6.651 -0.3377  0.1296 -0.1132
15307W        W19707  15.612   1.243   5.996 -0.0199 -0.0168 -0.2907
15308W        W19708  25.553   4.895   8.509  0.0420  0.2099  0.1044
15309W        W19709  21.857   1.221   4.973  0.2190  0.1365  0.1133
15310W        W19710   5.161   0.745  14.743 -0.0687  0.1722 -0.1010
15311W        W19711  20.416   4.989  12.393 -0.1012 -0.4141 -0.2897
15312W        W19712  15.071   2.328  13.315 -0.1957  0.1813  0.1664
15313W        W19713  20.253   1.561   0.834  0.1170  0.2797 -0.1641
15314W        W19714   2.266   5.222   4.482 -0.0590  0.1530  0.0235
15315W        W19715  21.534   2.094  10.705 -0.1164  0.0623 -0.0786
15316W        W19716   1.399   4.025  14.430  0.0280  0.0468  0.0568
15317W        W19717  14.853   0.933  12.000  0.1602  0.1361  0.0689
15318W        W19718   2.109   3.036   4.669  0.0544 -0.1194 -0.2089
15319W        W19719   8.472   3.816   9.214  0.1570 -0.0294  0.0340
15320W        W19720  25.681   1.138  31.882  0.2613  0.0251  0.1992
15321W        W19721  26.399   3.341  25.998 -0.3571 -0.1901  0.0905
15322W        W19722   7.449   3.006  21.136 -0.1628 -0.0102 -0.2356
15323W        W19723  10.024   1.471  15.017  0.2212 -0.0146 -0.0798
15324W        W19724  26.310   2.466  31.138  0.0052  0.0553  0.1536
15325W        W19725   2.621   1.470   6.522 -0.1414 -0.0042 -0.0232
15326W        W19726  17.932   1.469   3.525 -0.0930  0.0264  0.0843
15327W        W19727   5.024   4.490  24.023  0.1177 -0.0324  0.0332
15328W        W19728   9.042   1.537  28.124  0.3057 -0.0006  0.0269
15329W        W19729  13.359   4.723  22.458  0.0571 -0.0949 -0.2111
15330W        W19730   6.710   5.499  12.610  0.0733  0.2504 -0.0594
15331W        W19731   7.779   1.961  13.686  0.2283 -0.0406 -0.2768
15332W        W19732  16.796   0.613  24.347  0.2477 -0.0930  0.0134
15333W        W19733  18.305   0.540   1.392  0.1311 -0.1321 -0.2895
15334W        W19734  18.523   4.976  35.831  0.0813  0.1117  0.2588
15335W        W19735  21.188   4.405  14.018  0.0364 -0.2015 -0.0805
15336W        W19736  14.293   4.296  25.619 -0.1477  0.2729  0.0418
15337W        W19737   0.743   2.248  27.577  0.0383  0.0178 -0.1128
15338W        W19738  13.538   1.110  24.335 -0.0427 -0.4398  0.4223
15339W        W19739  25.676   6.107  11.373 -0.0728  0.2022  0.4265
15340W        W19740  20.760   4.340   8.378  0.1704 -0.0112  0.2894
15341W        W19741   1.730   0.096   7.240 -0.0759  0.0325  0.0664
15342W        W19742   3.744   1.729  27.035 -0.3189 -0.1860  0.2111
15343W        W19743   2.593   2.733   2.664  0.0770  0.3503  0.1692
15344W        W19744  13.107   6.298   4.977  0.2991 -0.0035 -0.3289
15345W        W19745   8.139   6.194  26.367 -0.2929 -0.0783  0.2227
15346W        W19746  12.158   2.769   6.779 -0.0020 -0.0408  0.1256
15347W        W19747  19.140   1.690  11.936  0.4407 -0.2254 -0.0508
15348W        W19748  24.416   4.177  30.201 -0.1731 -0.1753  0.0838
15349W        W19749  23.783   0.305   2.882  0.0578 -0.0851 -0.0272
15350W        W19750  19.534   0.132  13.450  0.3334  0.1388  0.0082
15351W        W19751  19.311   5.203  20.947 -0.1211  0.1528 -0.1023
15352W        W19752  14.097   6.189   9.019 -0.0876 -0.0617 -0.0311
15353W        W19753  16.980   6.416  24.591 -0.1209  0.1532  0.0324
15354W        W19754  24.713   1.486   1.238  0.0502  0.1144 -0.0047
15355W        W19755  18.567   6.593   9.866  0.2925  0.0320  0.2382
15356W        W19756  19.908   2.040   2.408  0.0705 -0.2863  0.3901
15357W        W19757  26.373   5.729   8.060 -0.1271  0.1375 -0.1343
15358W        W19758  24.818   4.007  24.515 -0.1034  0.1585 -0.2731
15359W        W19759   1.362   5.119  13.554 -0.0846  0.1689 -0.6011
15360W        W19760   1.255   1.763  28.851  0.1656  0.3255 -0.4197
15361W        W19761  10.484   1.930  30.564 -0.0074  0.1097 -0.0536
15362W        W19762  21.906   2.525   7.801 -0.0364 -0.2422  0.0764
15363W        W19763  25.374   3.302   0.551  0.0829  0.0866  0.0508
15364W        W19764   6.738   0.360   8.227 -0.1116  0.0614 -0.0033
15365W        W19765   3.648   3.341  27.982  0.2833 -0.0742 -0.2534
15366W        W19766   8.595   5.010  11.920 -0.1652  0.0479 -0.2743
15367W        W19767   7.505   4.651  34.518 -0.1205  0.0429  0.0450
15368W        W19768  15.879   5.545  22.178 -0.0620 -0.2643  0.1009
15369W        W19769  21.226   0.992  24.215 -0.0470 -0.0853 -0.6485
15370W        W19770  12.138   4.977  15.229  0.0933  0.0850  0.1812
15371W        W19771  24.907   4.469  13.688 -0.0160 -0.2159  0.0162
15372W        W19772   5.741   0.412  29.655 -0.1853 -0.1675  0.1999
15373W        W19773  11.935   3.595   6.787 -0.0636 -0.0104 -0.3031
15374W        W19774  19.963   6.132  25.813  0.2033 -0.1049  0.1279
15375W        W19775  24.168   3.172  11.589 -0.0576  0.0374  0.2022
15376W        W19776   0.623   2.861  15.108  0.1658 -0.3225  0.1043
15377W        W19777  15.828   4.862  33.592 -0.0602  0.0081 -0.1387
15378W        W19778  12.669   5.194  22.867 -0.1199  0.1860 -0.2034
15379W        W19779  18.345   3.891   3.095 -0.2433  0.1787  0.1250
15380W        W19780  12.785   5.052   0.807  0.1863  0.3297  0.1041
15381W        W19781  23.284   3.071   9.854  0.0175  0.0020 -0.0874
15382W        W19782  15.153   0.195   2.415 -0.1886  0.0004 -0.1896
15383W        W19783  12.151   4.368  27.278  0.3632  0.0396 -0.0544
15384W        W19784  26.120   4.527  21.184  0.2557  0.0004 -0.0454
15385W        W19785   8.991   0.280  22.989 -0.0937 -0.1243  0.2281
15386W        W19786  15.072   2.942  14.720 -0.0723  0.1197  0.0987
15387W        W19787  11.353   6.234  21.145  0.3029  0.1836 -0.1073
15388W        W19788  24.993   6.416   0.228 -0.2278  0.1544  0.1707
15389W        W19789   3.016   1.558  35.550 -0.0187  0.1871 -0.0958
15390W        W19790   3.807   3.285  25.958  0.1651  0.0061 -0.0641
15391W        W19791  21.091   5.630  22.963 -0.1619  0.0928 -0.1724
15392W        W19792   8.192   5.077  29.941 -0.1867 -0.0054 -0.1915
15393W        W19793  20.692   6.498  10.593  0.0775  0.2337  0.1333
15394W        W19794  18.206   6.600  20.705  0.1920  0.2307 -0.2376
15395W        W19795  22.593   4.245   8.431  0.2669 -0.1565  0.0357
15396W        W19796   0.523   4.536  31.742  0.1303 -0.0346  0.0030
15397W        W19797  21.993   5.894  31.792 -0.0434 -0.2015 -0.0664
15398W        W19798  14.357   1.887  25.780  0.0688  0.0183 -0.2166
15399W        W19799  15.783   1.893   2.152  0.4782  0.2179 -0.3646
15400W        W19800  18.241   3.608  33.028 -0.2410 -0.1205 -0.1068
15401W        W19801  21.109   2.144  14.744  0.2015 -0.2018 -0.2124
15402W        W19802  25.067   5.202  23.412  0.3079  0.3184 -0.0514
15403W        W19803  13.889   0.970  30.283  0.2990  0.2376 -0.0046
15404W        W19804  21.119   2.220   9.172  0.2311 -0.1124  0.1454
15405W        W19805  22.465   2.381  15.043 -0.1214 -0.3075  0.1283
15406W        W19806   6.034   5.754  14.314 -0.2781  0.2349 -0.0575
15407W        W19807   8.522   2.985  24.412 -0.0080 -0.1959 -0.1191
15408W        W19808  15.206   5.821   4.921  0.0771  0.2259 -0.2180
15409W        W19809  17.654   4.008  27.483  0.0608 -0.0419 -0.0482
15410W        W19810  21.859   1.618   6.777  0.0742 -0.2348  0.3894
15411W        W19811   5.182   6.317  35.565 -0.1936  0.0692  0.3755
15412W        W19812   6.757   0.906   9.772  0.2262  0.0085  0.2478
15413W        W19813  18.942   2.257  25.808 -0.3692  0.3121 -0.1136
15414W        W19814   3.141   5.096  28.905  0.0691 -0.1607  0.1288
15415W        W19815   6.624   5.286   2.204 -0.1527 -0.0449 -0.0325
15416W        W19816   9.671   5.049   2.334  0.1831  0.1633  0.3044
15417W        W19817  19.921   5.447  26.850  0.1728 -0.0030 -0.1214
15418W        W19818  13.350   0.604  26.881  0.0794  0.0296 -0.3883
15419W        W19819  23.334   5.405  21.683 -0.0699 -0.1320  0.0491
15420W        W19820   0.184   2.914   9.422 -0.2402 -0.0289  0.2816
15421W        W19821   4.078   1.895  27.565 -0.2121  0.2738  0.2425
15422W        W19822   9.502   6.308  26.052  0.1408 -0.0242  0.1276
15423W        W19823  22.318   3.439  32.065 -0.2161  0.0961 -0.1278
15424W        W19824  19.082   0.056  29.028 -0.2500 -0.0076  0.1652
15425W        W19825  19.935   3.275  10.070 -0.0299 -0.1753  0.1376
15426W        W19826  11.447   2.219   1.092  0.1928  0.0822 -0.0065
15427W        W19827  11.819   3.026  34.640 -0.1213 -0.0187 -0.1793
15428W        W19828  21.615   1.244  35.897 -0.0621  0.1561  0.1531
15429W        W19829  20.431   1.893  35.259 -0.0448  0.1010 -0.0380
15430W        W19830   6.120   6.521   6.530 -0.1602 -0.2002  0.0252
15431W        W19831   0.535   3.603   7.987  0.2185 -0.1372  0.2705
15432W        W19832   2.726   3.295  22.826  0.0627  0.0190 -0.0947
15433W        W19833   6.041   4.334  14.841  0.1175 -0.0363  0.0624
15434W        W19834  18.963   4.121  22.056 -0.1336  0.0897  0.2040
15435W        W19835  12.582   2.622  10.635  0.0003  0.0727  0.0124
15436W        W19836  12.439   6.017  29.848 -0.2742  0.0620  0.0830
15437W        W19837  13.070   4.681  11.829  0.0387  0.1655 -0.3100
15438W        W19838  13.371   1.160  22.839 -0.0490 -0.0805  0.1148
15439W        W19839  16.519   5.777  34.473 -0.1719  0.0260 -0.3588
15440W        W19840   5.997   2.916   5.450 -0.2344 -0.1204  0.0478
15441W        W19841   9.376   3.880  23.619  0.3081  0.2746  0.0587
15442W        W19842   2.735   4.888  31.327 -0.2657  0.1560  0.0488
15443W        W19843  25.602   1.158   2.417 -0.0729 -0.1325 -0.1971
15444W        W19844  17.783   0.942  35.155 -0.3428 -0.0667 -0.0695
15445W        W19845   7.947   1.318  34.142  0.0340 -0.1148 -0.0199
15446W        W19846  22.487   1.099  13.675  0.1650 -0.1605  0.1092
15447W        W19847  11.885   0.903  28.968  0.3810  0.1731  0.2773
15448W        W19848   3.473   4.408   6.439  0.1171  0.2201 -0.0076
15449W        W19849   4.181   1.115  14.639  0.1467  0.1504  0.0105
15450W        W19850  25.883   2.479  28.913 -0.0966  0.1887 -0.0715
15451W        W19851  18.408   6.434  34.874  0.0568 -0.1550  0.1077
15452W        W19852   9.462   5.458   8.404  0.0273  0.1008 -0.0643
15453W        W19853   5.413   3.150  31.681 -0.1785 -0.3963  0.0513
15454W        W19854  19.413   3.978  22.785 -0.1077 -0.4540 -0.0036
15455W        W19855   8.155   4.211  13.656 -0.1149 -0.0242 -0.0698
15456W        W19856  23.461   1.580   9.616  0.0176 -0.3741  0.1152
15457W        W19857   9.261   0.594   1.171 -0.0822  0.2114  0.1761
15458W        W19858  18.771   5.926  28.481  0.2601  0.1256  0.0586
15459W        W19859   2.654   2.737   3.675  0.0701 -0.2645 -0.2730
15460W        W19860  13.880   1.678   1.473 -0.2023  0.1873 -0.0118
15461W        W19861  16.049   2.840  24.265  0.1390 -0.2689 -0.2277
15462W        W19862  13.852   5.937  12.096 -0.1527 -0.2355 -0.0846
15463W        W19863   9.474   5.903  35.016  0.1424 -0.1670 -0.0088
15464W        W19864  24.066   1.414   2.663 -0.1702 -0.1762 -0.1450
15465W        W19865   4.200   1.260   7.807  0.3101  0.3735  0.0545
15466W        W19866   0.869   4.218   5.532 -0.1270 -0.2300 -0.1382
15467W        W19867   3.429   5.119  23.909  0.0400  0.2400 -0.1590
15468W        W19868  10.997   1.067   5.811 -0.1265  0.1407 -0.0602
15469W        W19869  20.258   0.990   3.159  0.0789  0.1842  0.5120
15470W        W19870  13.999   1.463  28.390 -0.2175  0.0606 -0.2136
15471W        W19871  12.334   6.235  11.927  0.0996  0.0877  0.0873
15472W        W19872  25.596   0.714  10.731  0.0239 -0.0900 -0.1477
15473W        W19873   8.829   5.437  27.785 -0.3012  0.1256  0.2969
15474W        W19874  12.743   6.474   9.095 -0.1467 -0.2220 -0.1184
15475W        W19875  22.240   3.350  30.485 -0.3828 -0.1886  0.0953
15476W        W19876  22.252   1.768   3.304 -0.4527 -0.0059  0.1924
15477W        W19877  22.889   3.875   0.758 -0.0233  0.1349 -0.0940
15478W        W19878   7.171   0.680  12.881  0.2514 -0.1025  0.0807
15479W        W19879  20.240   0.957  13.164 -0.1229  0.2681 -0.1085
15480W        W19880  16.109   0.763  30.714  0.0425  0.0164  0.0980
15481W        W19881  19.908   1.547  20.525  0.0907  0.0906 -0.3782
15482W        W19882   1.794   1.532  11.967 -0.0431 -0.0981  0.0479
15483W        W19883   9.180   6.355   8.365  0.3919  0.1581 -0.0450
15484W        W19884  10.888   6.070  27.270 -0.1099  0.0694 -0.1773
15485W        W19885  16.393   5.087   4.599  0.0184  0.2717 -0.0918
15486W        W19886  16.463   1.776  28.834  0.0978 -0.1541 -0.2895
15487W        W19887   8.670   0.300   7.246 -0.0895 -0.1382  0.0202
15488W        W19888  13.826   4.504  23.838  0.1917  0.0767 -0.3103
15489W        W19889  12.809   0.618  28.493  0.0244  0.3368  0.0269
15490W        W19890  18.210   4.960  21.336  0.0138 -0.0640 -0.0512
15491W        W19891   4.508   4.279  32.689  0.0349  0.1008 -0.0335
15492W        W19892  16.670   5.140  10.717 -0.0663  0.1976 -0.0554
15493W        W19893  25.021   1.785   0.792 -0.0202  0.3983 -0.1113
15494W        W19894   2.989   3.632   1.462  0.1336  0.2948 -0.1159
15495W        W19895  12.916   5.943  10.345  0.0178 -0.0271 -0.2161
15496W        W19896  25.992   1.164   3.361  0.1449  0.0939  0.1335
15497W        W19897  14.835   0.610  25.274  0.2001  0.1706  0.1004
15498W        W19898  14.027   1.117   6.529 -0.0210 -0.1228  0.4006
15499W        W19899  13.748   6.208  33.961 -0.1805  0.1471  0.0921
15500W        W19900  16.587   2.620   3.196 -0.2189 -0.0329  0.2454
15501W        W19901  15.899   3.865   5.528  0.0099  0.1184 -0.1512
15502W        W19902  15.360   5.539  30.784  0.1574 -0.1744 -0.0134
15503W        W19903   5.138   1.455  33.717 -0.0081 -0.3624 -0.1651
15504W        W19904  17.570   2.596  21.996  0.2130 -0.1634  0.0090
15505W        W19905  16.558   2.394   6.479  0.1545  0.1803  0.1115
15506W        W19906   5.025   6.326  10.701 -0.3574 -0.0385 -0.4513
15507W        W19907  25.217   2.018  29.971 -0.2851  0.1052  0.1688
15508W        W19908   8.457   4.364   7.006 -0.0922  0.1107  0.2447
15509W        W19909  21.235   2.407  21.199  0.2873  0.1839  0.0069
15510W        W19910   3.667   0.831  21.713 -0.1069  0.1551 -0.0454
15511W        W19911  10.322   5.306  27.092 -0.0363  0.0258  0.2932
15512W        W19912  12.793   5.654  25.572 -0.0268  0.2959  0.0935
15513W        W19913  15.994   2.131  11.501 -0.2778  0.0298 -0.0561
15514W        W19914  22.375   3.136  35.191  0.1424 -0.0762 -0.0309
15515W        W19915  15.061   4.781   0.076  0.0779 -0.2069 -0.0650
15516W        W19916  23.227   4.836   5.175 -0.1274 -0.3195  0.0295
15517W        W19917   6.079   0.480   3.836 -0.1386  0.1763  0.0598
15518W        W19918  13.895   2.343  27.310  0.0679  0.0415  0.1837
15519W        W19919   7.702   6.372  25.515 -0.2611 -0.1651  0.1493
15520W        W19920  26.091   2.495  35.265  0.1103  0.4807  0.0529
15521W        W19921  21.334   1.781  13.241  0.2081  0.1779 -0.2157
15522W        W19922  20.849   5.041   1.095 -0.0182 -0.4059  0.1062
15523W        W19923  17.651   0.181  14.354 -0.0890  0.0299 -0.2069
15524W        W19924   8.059   2.645   8.221  0.1427 -0.1537  0.2007
15525W        W19925   5.873   5.631  33.998 -0.0579 -0.2209 -0.0051
15526W        W19926   6.604   1.906   5.671  0.3111 -0.2076  0.0702
15527W        W19927   8.230   3.707  30.350  0.1242  0.1049  0.0736
15528W        W19928  11.126   0.035   3.781  0.0783 -0.1109  0.0223
15529W        W19929   6.412   6.514  25.242  0.1371 -0.0223 -0.1794
15530W        W19930  26.397   4.719   2.016  0.0048  0.0543 -0.1814
15531W        W19931   2.696   2.246  33.633  0.2331  0.1491  0.1644
15532W        W19932  16.783   4.941   6.251 -0.0627 -0.0558  0.1020
15533W        W19933   8.745   5.099  35.287  0.1224 -0.0260 -0.1731
15534W        W19934  24.826   4.340  20.530  0.2353 -0.0025 -0.2221
15535W        W19935  22.327   2.189  35.253  0.0752  0.0950 -0.0920
15536W        W19936   4.262   1.567  27.168  0.0942  0.0957  0.3045
15537W        W19937  12.423   4.201   9.109 -0.0975  0.1568  0.0187
15538W        W19938  17.601   4.892   8.619 -0.0566  0.2567  0.1226
15539W        W19939  16.926   5.596  29.336  0.3963 -0.2547 -0.0509
15540W        W19940   2.645   4.262  28.598 -0.0940 -0.1089 -0.1409
15541W        W19941  19.166   3.811   3.350  0.0175 -0.1250 -0.2635
15542W        W19942  15.391   5.898  25.891 -0.1771 -0.2259  0.1074
15543W        W19943   6.307   0.090  31.964 -0.0162 -0.2823  0.0470
15544W        W19944  23.860   5.348   3.411  0.3434  0.1404  0.0991
15545W        W19945   3.883   2.204  24.831 -0.0624  0.0198  0.1371
15546W        W19946  18.473   1.606   4.181  0.3364 -0.3305 -0.1445
15547W        W19947  23.658   1.057   2.628 -0.0834 -0.0094  0.0755
15548W        W19948  14.967   3.288   0.020  0.0364 -0.0881 -0.0780
15549W        W19949  19.593   0.998   4.448  0.0699 -0.0981 -0.1313
15550W        W19950   1.077   1.015   3.268  0.1726  0.1234  0.5340
15551W        W19951   2.865   5.461   1.527 -0.0169  0.2079  0.1147
15552W        W19952  15.248   0.344  33.432  0.1611  0.2558  0.6556
15553W        W19953  21.406   0.425  31.817 -0.0082  0.3372  0.0004
15554W        W19954  24.495   3.785   4.341  0.0127  0.0069 -0.2530
15555W        W19955  24.461   5.047  32.353  0.1672  0.1396 -0.1286
15556W        W19956  11.660   4.162  11.111  0.1366 -0.1199 -0.1274
15557W        W19957   3.807   3.800   2.322  0.2716  0.1745  0.0747
15558W        W19958  24.059   2.278  31.307  0.0598 -0.2530 -0.2720
15559W        W19959   8.506   4.888  31.521  0.0053  0.1683  0.2105
15560W        W19960  15.568   5.144  10.330  0.0924  0.1481  0.1135
15561W        W19961  18.043   0.670  13.637 -0.0913  0.1903 -0.0201
15562W        W19962  15.562   0.199  25.648 -0.0325 -0.0002 -0.0657
15563W        W19963   4.582   3.092  24.304  0.0484 -0.0393 -0.1896
15564W        W19964  17.017   0.362  11.284 -0.2918  0.0147 -0.1833
15565W        W19965   6.657   5.373   5.527  0.2082 -0.1531  0.2828
15566W        W19966  17.395   2.737   1.217  0.0134 -0.1996 -0.0561
15567W        W19967  26.014   1.114  24.313 -0.1414  0.1149 -0.0543
15568W        W19968  24.171   5.366   4.129 -0.0361 -0.1163  0.0493
15569W        W19969  18.084   3.917  14.389  0.1876 -0.0654 -0.1154
15570W        W19970  18.744   3.765  33.388  0.0425  0.1246  0.3723
15571W        W19971  15.858   0.699  10.291  0.0784  0.0134 -0.0593
15572W        W19972   8.499   0.101  24.486 -0.1437  0.1632  0.1860
15573W        W19973  25.540   3.846  11.384 -0.0157 -0.2649  0.1465
15574W        W19974   1.320   1.180  28.958  0.0730 -0.1560 -0.1243
15575W        W19975  17.000   0.173  15.534 -0.1683  0.1015 -0.2630
15576W        W19976  11.246   2.352   2.721 -0.0084 -0.3042 -0.0780
15577W        W19977  23.679   1.335  24.891 -0.3552  0.1232 -0.1099
15578W        W19978  16.622   4.617  27.594  0.2775  0.1151 -0.0675
15579W        W19979   6.987   0.233  13.922 -0.0408 -0.2891  0.0157
15580W        W19980   2.001   1.150  26.567 -0.1574  0.1898 -0.2486
15581W        W19981  14.648   3.014  28.778  0.4100  0.1448 -0.2439
15582W        W19982   2.688   3.913  13.979  0.2699 -0.1116  0.0873
15583W        W19983  12.798   5.678  36.018 -0.0026  0.1296 -0.0219
15584W        W19984   0.511   5.281  32.129 -0.3781  0.1328  0.1487
15585W        W19985  23.978   2.341  22.847 -0.0565  0.2316  0.1290
15586W        W19986  24.879   2.704  34.376  0.2822  0.0743  0.0688
15587W        W19987   7.133   2.318   9.679  0.1023  0.1249  0.0681
15588W        W19988  14.324   1.482   0.150 -0.0935 -0.3032  0.2608
15589W        W19989  20.847   3.876  15.598 -0.2392  0.1073  0.1415
15590W        W19990  12.542   6.596  31.631 -0.2249 -0.2373  0.2649
15591W        W19991  21.046   2.810  12.904 -0.0697  0.0735 -0.0216
15592W        W19992  13.500   0.403  33.509 -0.0022 -0.1856 -0.0882
15593W        W19993  14.271   3.518  34.733  0.0333 -0.0791 -0.0080
15594W        W19994   6.154   2.386  10.369  0.2032 -0.3301 -0.1859
15595W        W19995   4.217   5.087   7.944  0.2429  0.0112  0.0362
15596W        W19996  16.447   1.022  29.404  0.0441  0.0084  0.1948
15597W        W19997   8.309   3.957  13.175 -0.1376 -0.0965  0.2319
15598W        W19998  14.960   3.693  30.296  0.2907 -0.2996  0.0281
15599W        W19999  22.369   6.349  30.333  0.2096  0.1471  0.0497
15600W        W20000   4.880   3.994  26.637 -0.0449  0.2169  0.1494
15601W        W20001  18.055   4.761   7.057  0.0917  0.0411  0.3740
15602W        W20002  21.431   4.670   2.211  0.0398  0.2337  0.3501
15603W        W20003  14.039   5.071  28.305  0.1648 -0.0221  0.2567
15604W        W20004   6.181   2.474  13.669 -0.2365  0.0226  0.0241
15605W        W20005  16.146   5.127  30.812 -0.0282  0.2275 -0.1196
15606W        W20006  23.857   4.103  24.502 -0.1177  0.3824 -0.1049
15607W        W20007   6.864   6.060   0.040 -0.4383 -0.0262  0.0665
15608W        W20008   6.659   3.956  15.479 -0.3105  0.3845  0.0236
15609W        W20009  26.300   2.886   4.704  0.0720  0.0459 -0.2483
15610W        W20010   5.621   2.015  27.737  0.0080 -0.1058  0.0818
15611W        W20011  15.208   6.256   7.656  0.2072  0.0088  0.1009
15612W        W20012   0.755   5.213  14.301  0.1280 -0.1635 -0.1306
15613W        W20013  12.829   6.507  24.441 -0.5964  0.4096 -0.1210
15614W        W20014  13.714   5.624  31.827  0.1659  0.0642 -0.1358
15615W        W20015   2.291   2.276  15.594  0.0837 -0.0451  0.0923
15616W        W20016  14.466   3.059  27.497  0.1538  0.1876 -0.0383
15617W        W20017   2.990   3.816  21.354  0.0174 -0.1047 -0.0847
15618W        W20018   9.181   0.698   1.976 -0.0439 -0.1607 -0.2138
15619W        W20019   7.696   0.018  28.252  0.1562 -0.0643  0.1317
15620W        W20020   9.878   3.286  35.629 -0.0334  0.2913  0.2123
15621W        W20021  24.042   4.605  10.369 -0.0069 -0.0314  0.2070
15622W        W20022   8.510   2.018   8.147  0.1455 -0.2189 -0.1336
15623W        W20023  26.043   1.567   1.486 -0.0737  0.1409 -0.1733
15624W        W20024   4.632   4.408   3.216  0.1118  0.2785  0.0169
15625W        W20025   3.369   5.911  24.673  0.0903  0.1418  0.1652
15626W        W20026  17.098   5.249  33.353 -0.2507  0.2194  0.0033
15627W        W20027  21.861   5.722   6.178 -0.2484 -0.3214 -0.3687
15628W        W20028  12.340   2.039  12.196 -0.0155  0.1305 -0.0080
15629W        W20029  21.403   2.357  12.375  0.3322 -0.0797 -0.1786
15630W        W20030   6.643   3.396  23.931  0.0333  0.1726  0.0568
15631W        W20031   2.344   3.721   3.469  0.0239  0.0566  0.1279
15632W        W20032  17.682   4.799  21.246 -0.2391  0.0281 -0.1261
15633W        W20033   8.178   2.644  21.333 -0.2942 -0.2740 -0.3085
15634W        W20034   1.567   2.741  28.191  0.2477  0.0832  0.0690
15635W        W20035   4.688   2.541  24.307  0.2323  0.0984  0.1258
15636W        W20036   6.816   1.137  36.028 -0.1502 -0.0443  0.0147
15637W        W20037  23.502   4.193   5.901 -0.1223 -0.0103  0.2491
15638W        W20038  20.808   6.043   9.131  0.0083 -0.0193  0.0344
15639W        W20039   4.118   2.152   4.048 -0.0063  0.2014 -0.0952
15640W        W20040  19.192   0.492  11.140  0.0067 -0.0642 -0.1759
15641W        W20041  24.614   5.148   6.318 -0.2232  0.1109  0.0715
15642W        W20042   8.500   1.461  35.357 -0.0609 -0.3029  0.1937
15643W        W20043  25.022   3.749  29.536  0.1373  0.1348  0.0066
15644W        W20044  13.008   3.717  22.165 -0.1435  0.2237  0.1971
15645W        W20045   8.961   1.249   1.309 -0.4938  0.0543  0.1570
15646W        W20046   1.499   0.741  29.746  0.4375  0.2450  0.0870
15647W        W20047  23.402   3.718   6.039 -0.2154 -0.1513 -0.3180
15648W        W20048  20.000   3.021  35.866  0.2520  0.1921 -0.3129
15649W        W20049  21.434   3.003  22.968  0.3251 -0.3647 -0.0963
15650W        W20050  21.816   5.101   9.483  0.2906  0.0029  0.0470
15651W        W20051  18.310   2.455  35.654 -0.0840  0.0910  0.0264
15652W        W20052  10.011   0.078   7.498  0.2261 -0.1847  0.0213
15653W        W20053  19.314   4.580   0.488 -0.2315 -0.1769 -0.1501
15654W        W20054   3.518   3.473  26.322 -0.1187 -0.0230 -0.1141
15655W        W20055  25.954   4.786   7.461  0.2121 -0.0512 -0.0064
15656W        W20056  13.281   2.404  13.322  0.0267 -0.0783  0.1195
15657W        W20057  19.669   2.459  29.076 -0.2621 -0.1426  0.0281
15658W        W20058  24.751   6.373   0.692 -0.1122  0.0457  0.2431
15659W        W20059  11.798   3.697  12.363 -0.0763  0.0960 -0.0013
15660W        W20060  25.745   0.495  25.878  0.3045 -0.0817  0.1140
15661W        W20061   0.183   4.138  26.003 -0.0899 -0.0495  0.2164
15662W        W20062   1.062   6.142  10.901 -0.0614  0.0548 -0.1598
15663W        W20063  18.118   2.759   7.037  0.3386  0.1437  0.1276
15664W        W20064   3.067   6.052   2.992 -0.0427 -0.0707 -0.1411
15665W        W20065  10.997   4.836  28.491  0.0803  0.3619  0.0093
15666W        W20066  12.755   6.521  12.857 -0.0590  0.1293  0.0063
15667W        W20067   2.706   2.011  28.156 -0.1856 -0.0431  0.2035
15668W        W20068  23.613   3.576   9.039  0.1773 -0.0020  0.0396
15669W        W20069  16.877   2.366  23.178  0.1626  0.2823 -0.0156
15670W        W20070  13.687   3.626  27.016  0.2092 -0.1510  0.0760
15671W        W20071  24.137   3.188  27.958  0.0163  0.1384 -0.3312
15672W        W20072  14.639   3.260   6.733  0.1656  0.3314 -0.0977
15673W        W20073  25.164   3.976   8.450 -0.0533  0.2517  0.2244
15674W        W20074  14.013   4.860   7.233  0.2020 -0.2634 -0.1196
15675W        W20075   4.186   5.980  26.042 -0.0903  0.1508  0.1640
15676W        W20076   1.104   6.467  14.010 -0.2998 -0.0600 -0.2055
15677W        W20077  19.582   0.105  29.378  0.1072 -0.0407 -0.0489
15678W        W20078  24.490   1.069   4.090 -0.2150  0.0677  0.1104
15679W        W20079   6.569   0.676  34.184  0.0819 -0.0303  0.0377
15680W        W20080  10.095   0.910  21.524  0.1473  0.0460  0.1222
15681W        W20081  26.140   0.634  22.744  0.2370 -0.1098  0.2036
15682W        W20082  14.690   2.279   0.006 -0.1305 -0.1547 -0.1992
15683W        W20083   1.806   2.310   4.566 -0.0101  0.1675 -0.0856
15684W        W20084   3.234   1.128  11.504 -0.1346 -0.0233 -0.0986
15685W        W20085   7.584   5.713  27.658  0.0837  0.2324  0.1096
15686W        W20086  10.648   5.416   0.456  0.2260 -0.1035  0.1310
15687W        W20087  20.676   1.088   5.162 -0.0617 -0.2532 -0.3734
15688W        W20088   2.885   3.497   4.745  0.0346  0.2572 -0.0623
15689W        W20089   0.296   0.045  20.437  0.1111 -0.2125 -0.1060
15690W        W20090  10.336   3.147   9.607 -0.1711  0.0779  0.4443
15691W        W20091  10.674   4.798   3.988 -0.1505  0.2712  0.2973
15692W        W20092   0.906   1.208  29.547  0.3047  0.2154 -0.0075
15693W        W20093   0.534   4.417   2.533 -0.1368 -0.0940 -0.0122
15694W        W20094  15.630   3.975  28.515 -0.1003  0.2772  0.1799
15695W        W20095  21.114   4.273   9.474  0.1552  0.1337  0.1587
15696W        W20096  13.470   5.082  11.333  0.0069 -0.0967 -0.0248
15697W        W20097   7.721   3.211  25.020  0.0735 -0.1434 -0.0237
15698W        W20098  14.640   0.327   0.663  0.1870 -0.0694 -0.1389
15699W        W20099  12.355   0.700  28.721  0.1871  0.0846  0.1525
15700W        W20100   2.166   0.885  33.604 -0.1501 -0.0938 -0.3557
15701W        W20101   9.188   4.749   6.697  0.1705 -0.0635  0.0925
15702W        W20102  22.112   5.207  14.720  0.2552  0.0392 -0.4647
15703W        W20103   0.381   4.493  35.514  0.1634  0.2120  0.1030
15704W        W20104   3.801   2.554  14.750  0.0867  0.0566 -0.2827
15705W        W20105  16.396   4.789  33.759 -0.1242  0.0490  0.1834
15706W        W20106  13.438   6.108   1.190 -0.1137  0.1146  0.0916
15707W        W20107  16.751   2.323   9.390 -0.1678 -0.1160  0.0612
15708W        W20108  11.442   1.908  33.934  0.0131 -0.0396 -0.2529
15709W        W20109  22.611   4.075  34.727 -0.2797  0.0228  0.1503
15710W        W20110  18.386   4.077  35.352  0.0685  0.2402 -0.2827
15711W        W20111  23.658   2.109   9.921 -0.2173  0.2763  0.1266
15712W        W20112  14.159   2.703  13.400 -0.1932 -0.2055 -0.1464
15713W        W20113   9.500   1.960  13.452  0.0881  0.1646 -0.2283
15714W        W20114   0.201   1.155   7.149  0.0032 -0.1324 -0.0726
15715W        W20115  21.296   4.391  12.186 -0.1550 -0.0574 -0.1360
15716W        W20116  13.997   1.827  35.519  0.1578 -0.0613  0.2165
15717W        W20117   1.829   3.418  11.692  0.2720 -0.0154 -0.2007
15718W        W20118  12.514   4.074  15.374  0.0111  0.1700 -0.1036
15719W        W20119   9.934   0.836  12.473 -0.1546  0.1964  0.0340
15720W        W20120   7.327   5.356  31.158 -0.0528 -0.1488 -0.0880
15721W        W20121   2.777   1.156  26.933 -0.1397  0.0672 -0.1384
15722W        W20122   8.677   6.044   8.412 -0.0340  0.0735  0.1108
15723W        W20123  16.630   1.424  13.649 -0.0668  0.1380  0.2179
15724W        W20124  23.065   3.749   7.308  0.2070  0.0306 -0.0070
15725W        W20125  24.353   3.534   7.212  0.1667 -0.1642 -0.1205
15726W        W20126  17.296   3.741  29.767 -0.0559  0.1784  0.0722
15727W        W20127   5.577   3.783  35.220 -0.3792 -0.0520  0.1738
15728W        W20128   2.350   3.795  10.703  0.0944  0.1272  0.0162
15729W        W20129  12.744   4.402  15.670 -0.1606  0.0572 -0.1841
15730W        W20130  13.515   0.953  15.580 -0.0930 -0.1133 -0.0878
15731W        W20131  17.425   2.846   7.452  0.1904  0.3101 -0.2950
15732W        W20132   6.874   1.500   8.775  0.0600  0.1302  0.0917
15733W        W20133   2.593   3.608  24.494  0.0835 -0.2007 -0.0755
15734W        W20134  21.985   3.279  14.130  0.1582 -0.2948  0.3357
15735W        W20135   8.365   2.245  29.998 -0.0850 -0.0851 -0.1982
15736W        W20136   3.440   2.028  28.509 -0.2489 -0.0960  0.1810
15737W        W20137   2.403   2.505  13.159 -0.0200  0.1955 -0.2285
15738W        W20138   2.027   2.056   8.678 -0.0338 -0.1811 -0.0860
15739W        W20139  20.366   5.440   6.298 -0.0776 -0.0698 -0.0798
15740W        W20140  13.065   4.752  24.200  0.0430 -0.1165 -0.0553
15741W        W20141   9.101   0.931  28.707 -0.1615 -0.2775  0.0286
15742W        W20142  12.169   5.878  27.132  0.1444 -0.0816 -0.0876
15743W        W20143  16.189   3.007   0.057 -0.1246 -0.0834 -0.2206
15744W        W20144   4.941   2.835  33.064  0.2234 -0.0370  0.0396
15745W        W20145   4.674   2.205   3.125  0.0357 -0.3595 -0.2952
15746W        W20146   2.269   4.273  14.649  0.1237 -0.0892 -0.0609
15747W        W20147  14.338   5.483   0.394  0.3019  0.2280  0.1649
15748W        W20148  10.164   4.548  25.337  0.0997 -0.3819 -0.1916
15749W        W20149  18.096   6.480   5.645  0.0855 -0.2968 -0.0962
15750W        W20150  14.253   2.110   5.523  0.0260  0.1414  0.2629
15751W        W20151  22.467   3.607  29.987 -0.0943  0.3367 -0.2756
15752W        W20152  19.705   2.689  32.270  0.3258  0.0471 -0.3810
15753W        W20153  22.495   0.203  26.401 -0.1397  0.0659  0.3187
15754W        W20154  12.845   5.875   1.505 -0.1417 -0.2935 -0.2802
15755W        W20155  20.497   3.734   9.689 -0.0055 -0.0742 -0.0577
15756W        W20156   8.237   3.560  25.161 -0.0420  0.3339  0.1803
15757W        W20157  23.665   1.439  30.483 -0.1128  0.0153  0.3127
15758W        W20158   6.066   3.086   9.731 -0.2166 -0.1572 -0.0284
15759W        W20159   8.426   2.005  22.672 -0.0828 -0.3138  0.2161
15760W        W20160  24.238   3.662   9.399 -0.0178  0.0037  0.2157
15761W        W20161  10.748   2.389   9.669  0.3010  0.0974 -0.0293
15762W        W20162   5.605   1.923  25.268  0.2569  0.1376  0.0568
15763W        W20163  11.881   6.171  13.658  0.1354  0.0848  0.0261
15764W        W20164  14.159   2.130  14.214 -0.0828  0.1133 -0.0620
15765W        W20165   2.863   3.059  21.318 -0.1525  0.0882  0.3755
15766W        W20166   0.950   2.170   1.930  0.1270  0.0586  0.3678
15767W        W20167  13.932   0.137   1.784  0.1059  0.1603 -0.0403
15768W        W20168  10.836   5.223  13.296 -0.1513 -0.1080  0.1607
15769W        W20169  15.610   1.236  30.069 -0.1378 -0.1439  0.1097
15770W        W20170  23.505   6.332   0.568  0.2913 -0.4300  0.0637
15771W        W20171  23.467   1.406   6.140 -0.0203  0.2215 -0.0355
15772W        W20172  23.559   3.378   3.838  0.1393 -0.1549 -0.0976
15773W        W20173  15.541   1.558  13.663  0.2282  0.0228  0.4399
15774W        W20174  23.265   3.002  24.336  0.0107 -0.2507 -0.0037
15775W        W20175  15.226   2.255   8.278  0.2504 -0.0838  0.2288
15776W        W20176  19.288   1.027  10.252  0.1773  0.2767 -0.2021
15777W        W20177  19.076   0.070  32.928 -0.2745  0.0240 -0.0749
15778W        W20178  14.629   4.279  28.523 -0.1113  0.3404 -0.0772
15779W        W20179   1.603   0.134  28.866  0.2161 -0.0294 -0.0700
15780W        W20180   4.017   5.223  26.557 -0.0169 -0.1339 -0.2755
15781W        W20181  25.930   2.793  10.954 -0.0163 -0.0352 -0.1914
15782W        W20182   8.845   3.935  28.285  0.0578 -0.1490  0.1554
15783W        W20183   3.965   3.446  34.170 -0.1643 -0.1087  0.0162
15784W        W20184  10.134   2.251  31.084  0.5611 -0.1397 -0.0783
15785W        W20185  16.439   3.822   5.344 -0.5066 -0.1519  0.2174
15786W        W20186   9.059   0.874   2.984 -0.0123 -0.0080  0.1204
15787W        W20187   4.434   3.494  21.111 -0.2152 -0.2137 -0.1993
15788W        W20188   4.629   6.548   7.153  0.0814 -0.0398  0.1941
15789W        W20189   8.532   3.326  35.303 -0.0585  0.1859 -0.3077
15790W        W20190  15.544   4.970  22.656 -0.3770 -0.1383  0.1980
15791W        W20191   2.154   3.400   9.719 -0.2134  0.1015 -0.2852
15792W        W20192  19.194   0.046   8.626 -0.1881 -0.2236 -0.1114
15793W        W20193  12.651   2.517  22.652 -0.0818  0.3425  0.4303
15794W        W20194   1.267   1.188   0.986 -0.0736  0.0688  0.1739
15795W        W20195  24.925   5.578   3.406 -0.0661 -0.1168 -0.0815
15796W        W20196  11.298   3.214   5.984 -0.0494  0.0324  0.1110
15797W        W20197  18.587   0.429  27.899 -0.1547  0.0600 -0.1021
15798W        W20198   2.704   4.688   1.490  0.0287 -0.2259 -0.1504
15799W        W20199   3.357   4.183  12.016  0.0194  0.1878 -0.1490
15800W        W20200   8.729   2.375  28.393 -0.0095  0.1800 -0.0600
15801W        W20201  16.447   2.317   5.675 -0.2988 -0.2304 -0.1293
15802W        W20202  16.533   4.077  33.358  0.3052  0.1297  0.1528
15803W        W20203   2.535   2.890  27.821  0.2262 -0.0034  0.1236
15804W        W20204  15.705   3.158  24.470  0.3179 -0.0553 -0.1261
15805W        W20205  19.703   2.903  28.826 -0.0374  0.2266 -0.1478
15806W        W20206   5.412   6.244   2.654 -0.0708  0.0268 -0.0110
15807W        W20207  21.051   1.853  14.365  0.2502  0.0986  0.1314
15808W        W20208  15.974   5.772  33.513 -0.1952  0.1000 -0.2658
15809W        W20209  13.160   1.674  15.528  0.1239 -0.0719 -0.0819
15810W        W20210  25.799   4.913   8.078  0.0956  0.1149  0.0840
15811W        W20211  15.735   2.752   2.316 -0.1362  0.2030  0.1154
15812W        W20212   5.451   5.972  10.749  0.1691 -0.0463  0.2178
15813W        W20213  18.378   1.754   0.724 -0.0422 -0.1532  0.1205
15814W        W20214   8.774   5.618  34.838  0.1227  0.0778 -0.2649
15815W        W20215  10.941   3.513  12.028 -0.3121  0.2496  0.1653
15816W        W20216  18.540   4.471  35.661  0.1791  0.0657 -0.1220
15817W        W20217   9.736   4.923  33.576 -0.1916  0.0392  0.3952
15818W        W20218  14.400   5.719  34.818 -0.0562 -0.0926  0.1848
15819W        W20219   0.716   2.566  32.894 -0.0696  0.1176 -0.0666
15820W        W20220  19.613   5.454   8.921  0.0897 -0.1267 -0.1251
15821W        W20221  14.322   2.010   9.066 -0.0494  0.0450 -0.1859
15822W        W20222  18.524   4.831  24.154 -0.2482 -0.0387  0.3161
15823W        W20223  17.120   0.033  11.995  0.2352 -0.1277  0.2588
15824W        W20224  22.048   5.658  34.446  0.0290  0.1827  0.0438
15825W        W20225  22.075   2.611  34.530  0.2768 -0.1410  0.1910
15826W        W20226  17.368   4.520   5.823 -0.3483 -0.1538 -0.0189
15827W        W20227   4.247   2.297  36.083 -0.1476  0.0529  0.2837
15828W        W20228  19.862   3.269  12.435  0.1550  0.0572 -0.0953
15829W        W20229  11.210   1.295  21.034 -0.0291 -0.1378 -0.2827
15830W        W20230  17.391   5.822  31.063  0.1348 -0.1958 -0.4171
15831W        W20231  14.461   6.017  24.594 -0.1414  0.0249  0.0408
15832W        W20232  24.737   3.535  21.243 -0.0178  0.0248  0.4126
15833W        W20233   4.695   3.091  35.110 -0.0711 -0.1493 -0.2718
15834W        W20234  25.023   4.742  26.337  0.1258  0.1132  0.1527
15835W        W20235  10.129   1.763  30.242  0.0367 -0.3137 -0.1154
15836W        W20236   5.309   3.448  14.170 -0.0473 -0.2328  0.2563
15837W        W20237  22.971   5.075   9.662 -0.0038 -0.0876  0.0414
15838W        W20238  13.407   0.807  27.368 -0.0365 -0.0775  0.0001
15839W        W20239   5.978   4.913   8.994  0.0286 -0.2535  0.1189
15840W        W20240  18.408   2.882  10.797 -0.1093  0.0292  0.4207
15841W        W20241   6.924   4.294  31.791 -0.1222 -0.0760 -0.0775
15842W        W20242   4.495   4.815   5.353 -0.1419 -0.2309 -0.1987
15843W        W20243  18.050   2.411  10.030  0.0254  0.2161  0.0530
15844W        W20244  25.187   6.106   0.687 -0.0401 -0.0064  0.0526
15845W        W20245  12.400   0.419  23.372 -0.0925  0.0757  0.0103
15846W        W20246   2.098   2.249  28.934 -0.2065  0.0071 -0.1383
15847W        W20247   7.330   1.488  27.536 -0.2495  0.0930 -0.1627
15848W        W20248   3.206   0.598  32.221  0.1868 -0.0971  0.0075
15849W        W20249   7.061   4.875  24.640 -0.0405 -0.2845 -0.0946
15850W        W20250  14.437   2.590   9.253  0.1276 -0.0226  0.1747
15851W        W20251   6.087   0.628  34.651  0.0841  0.1997 -0.1231
15852W        W20252   3.868   0.276   9.632 -0.0571 -0.1422 -0.4539
15853W        W20253   7.559   6.461  22.513 -0.0440 -0.0013 -0.2233
15854W        W20254  24.560   3.810  27.002  0.1229 -0.0056  0.5109
15855W        W20255  10.122   0.690  33.745  0.0787  0.1171 -0.0333
15856W        W20256  17.504   0.433  30.322 -0.1671  0.1559  0.2418
15857W        W20257  21.587   1.171  20.146 -0.2244  0.1453  0.0926
15858W        W20258  25.722   1.120  29.722  0.1836 -0.0143 -0.1778
15859W        W20259   9.534   1.869  36.061  0.0985  0.0338  0.3132
15860W        W20260   0.162   6.020  28.609  0.1845  0.0787 -0.0204
15861W        W20261   5.725   3.327   1.454  0.1653 -0.2089  0.1954
15862W        W20262  24.079   4.151   6.692 -0.0230  0.1507  0.1126
15863W        W20263   9.982   2.041  35.335 -0.2320 -0.0417 -0.2352
15864W        W20264   0.764   3.150  30.439  0.2190 -0.0195 -0.1089
15865W        W20265  23.406   2.504  27.743  0.1412 -0.1866  0.0404
15866W        W20266   0.866   4.053  27.251  0.2699 -0.0708  0.0699
15867W        W20267   4.754   1.937   7.366  0.0703 -0.0410  0.2451
15868W        W20268  22.646   5.402  35.496  0.1495  0.0306 -0.0834
15869W        W20269   4.072   6.541  15.024  0.1270 -0.0708 -0.1518
15870W        W20270  16.607   0.886  30.507 -0.0473  0.1521 -0.0032
15871W        W20271  22.400   0.016  25.739 -0.0512 -0.3320 -0.0178
15872W        W20272  20.532   4.793  29.759  0.1685 -0.1241  0.0967
15873W        W20273   9.313   5.910  29.401 -0.1776  0.2540 -0.0856
15874W        W20274  22.670   4.755  21.577  0.0046 -0.0438  0.1141
15875W        W20275   2.065   2.707   1.846 -0.0549  0.0089  0.2016
15876W        W20276   3.805   0.949  13.710 -0.0375 -0.0445 -0.0598
15877W        W20277  11.035   2.453  14.446 -0.1201  0.0075  0.1146
15878W        W20278  18.834   4.629  14.416 -0.0288 -0.0610  0.2601
15879W        W20279   7.112   4.843  10.054 -0.5680  0.1560  0.1256
15880W        W20280  15.956   3.710  22.002  0.3189 -0.1887  0.1412
15881W        W20281  18.041   3.114   2.525  0.1302  0.2853 -0.1086
15882W        W20282  20.103   4.478   2.481  0.4430  0.1730 -0.0172
15883W        W20283  12.767   5.784  26.546  0.1096  0.2274 -0.1577
15884W        W20284  25.537   0.038  11.741 -0.1214  0.0600  0.0610
15885W        W20285   2.472   4.484  13.265  0.0911  0.2069  0.1545
15886W        W20286  15.136   2.632  12.405 -0.0142  0.0189  0.0827
15887W        W20287  13.782   1.456  14.723  0.1396  0.0648 -0.3752
15888W        W20288   2.989   1.828  14.211  0.2799 -0.2662 -0.1512
15889W        W20289  12.064   0.266  13.398  0.0107 -0.0699  0.2343
15890W        W20290  11.971   4.844  14.699  0.1251  0.2678 -0.1493
15891W        W20291  15.661   4.265  28.040 -0.5372 -0.2999 -0.0441
15892W        W20292  24.701   2.475   6.329  0.4445  0.0537  0.0411
15893W        W20293   1.058   1.761  15.125  0.0676 -0.0520  0.2288
15894W        W20294  11.607   2.913  30.824 -0.0101 -0.0891  0.2141
15895W        W20295   5.684   0.996  26.762 -0.0173  0.1885  0.1421
15896W        W20296   9.433   3.564   9.371 -0.1019 -0.0931  0.1038
15897W        W20297   2.028   4.805  10.476 -0.2815 -0.1300  0.1716
15898W        W20298   0.475   5.499  25.625 -0.0139 -0.0787  0.2692
15899W        W20299  16.706   0.446   0.866  0.2596  0.0012  0.1423
15900W        W20300   4.190   3.025  27.425  0.1385 -0.0258  0.2207
15901W        W20301  14.465   4.414   5.971  0.0312  0.0882  0.0207
15902W        W20302   2.435   2.170   1.872  0.1860 -0.2516 -0.0807
15903W        W20303  20.629   5.438  12.770  0.1327 -0.2411  0.0650
15904W        W20304  18.516   1.164  25.533 -0.0769 -0.0020 -0.0468
15905W        W20305   2.080   5.814   6.966 -0.2117  0.2569  0.2423
15906W        W20306  19.924   5.266  22.541 -0.0058 -0.0938 -0.0265
15907W        W20307  17.836   2.754  24.123 -0.0977 -0.1822  0.1191
15908W        W20308  11.914   5.437  30.404 -0.3357  0.0627  0.1129
15909W        W20309  22.543   1.656   8.653 -0.1457  0.0281  0.1949
15910W        W20310   8.230   5.747  24.443  0.2849 -0.0309 -0.0121
15911W        W20311   2.863   0.885   1.829 -0.0487  0.1213  0.0077
15912W        W20312   7.611   5.776   0.410 -0.0015  0.0351 -0.2134
15913W        W20313  14.886   3.333  27.298  0.1425  0.2739 -0.0914
15914W        W20314  12.274   2.681   4.992  0.2401  0.0441 -0.0943
15915W        W20315  14.297   3.932   5.964 -0.1258 -0.0812 -0.1046
15916W        W20316  17.273   0.321  23.936 -0.1792  0.0240  0.2886
15917W        W20317  21.270   3.928  34.932 -0.0960  0.1640  0.2817
15918W        W20318  16.292   1.118   2.062  0.1625  0.0423  0.2046
15919W        W20319   5.842   2.178  11.320 -0.2619 -0.1175  0.0272
15920W        W20320  10.769   5.582  20.779  0.1698 -0.3560 -0.3695
15921W        W20321  20.160   1.714  29.034 -0.0401  0.2569 -0.2583
15922W        W20322  13.915   4.907  14.646 -0.0092  0.1356  0.1178
15923W        W20323   8.051   0.721  11.115 -0.1111 -0.1331 -0.0252
15924W        W20324  13.845   1.833  34.285 -0.1054  0.1650  0.0963
15925W        W20325  16.456   5.019  26.411  0.0788 -0.1452  0.0730
15926W        W20326  24.705   5.150  10.529 -0.2673 -0.0137  0.1220
15927W        W20327  13.504   4.653  32.959  0.2449  0.0248  0.1111
15928W        W20328  17.072   2.510  11.122  0.1305 -0.1247 -0.0454
15929W        W20329  14.530   2.403  33.848  0.0136  0.2221  0.0676
15930W        W20330   7.031   4.695  30.750  0.1041 -0.6361  0.3567
15931W        W20331   0.662   4.219  10.656  0.1597 -0.0981  0.0965
15932W        W20332  15.568   0.284  10.231 -0.1467 -0.1442  0.2229
15933W        W20333   6.662   1.064   1.623 -0.3841  0.0457 -0.2233
15934W        W20334   0.666   5.666  32.508  0.0522  0.3434 -0.0282
15935W        W20335  15.794   3.090  21.417  0.0647  0.3295 -0.2660
15936W        W20336  11.067   0.334  30.724  0.1368 -0.1675 -0.1583
15937W        W20337   4.262   6.205  29.421  0.1176 -0.3329 -0.0972
15938W        W20338  15.751   2.952   5.255  0.1075 -0.0984 -0.0682
15939W        W20339  21.886   1.504   0.236 -0.2006 -0.3169  0.1006
15940W        W20340  21.530   5.882  36.047  0.0460 -0.3100  0.0074
15941W        W20341   9.773   3.084  24.501 -0.0239 -0.0980  0.0250
15942W        W20342  12.475   1.032   2.802 -0.1084 -0.0684  0.0498
15943W        W20343   0.236   4.877  25.613  0.0227  0.0101  0.4531
15944W        W20344  17.471   1.462   8.028  0.0150  0.0706  0.1211
15945W        W20345  14.965   0.098  11.457 -0.0176 -0.1406  0.0857
15946W        W20346   3.505   1.688   0.915  0.0538  0.0798  0.0587
15947W        W20347  11.152   3.392  14.570  0.2541  0.1418 -0.2055
15948W        W20348  20.148   6.175  35.653  0.1006  0.1168 -0.2064
15949W        W20349  26.061   6.272   4.087 -0.0293  0.3013  0.2362
15950W        W20350  10.190   1.150   9.452 -0.1151  0.4290  0.0939
15951W        W20351   1.388   5.628  20.666 -0.2655  0.2147 -0.0897
15952W        W20352  24.631   4.559   9.379 -0.0803  0.0208 -0.1050
15953W        W20353   3.108   4.559   8.654  0.0473  0.0859  0.2595
15954W        W20354   9.110   5.266   4.020 -0.1277 -0.1658  0.0258
15955W        W20355   1.192   1.753   3.780  0.0773 -0.2652 -0.0115
15956W        W20356  16.162   1.516  13.780 -0.3235  0.0396  0.1431
15957W        W20357  16.037   0.482  28.829  0.3587  0.0655  0.0845
15958W        W20358   1.892   3.984   4.994 -0.1769 -0.1531 -0.1077
15959W        W20359  14.358   4.828   5.787  0.0755 -0.1657  0.1077
15960W        W20360  12.247   1.065  31.196 -0.0031 -0.1419  0.2096
15961W        W20361  22.333   2.292   1.519  0.1248 -0.0802 -0.2957
15962W        W20362   8.725   4.853   7.085  0.1498  0.0570 -0.2047
15963W        W20363  21.351   5.926  34.311 -0.1481  0.1004  0.0108
15964W        W20364  19.838   4.411  26.582 -0.1351 -0.0889  0.1331
15965W        W20365  23.587   1.865  24.756 -0.1361  0.1454  0.1181
15966W        W20366  24.495   4.944   7.669  0.1952 -0.0405 -0.1614
15967W        W20367  11.219   1.640  13.999 -0.0166 -0.1912 -0.0299
15968W        W20368  18.283   4.051  23.084  0.0296 -0.1747  0.0818
15969W        W20369  22.026   6.188   6.102 -0.1256 -0.1340 -0.1025
15970W        W20370  19.449   1.306  32.495 -0.1434 -0.2205  0.0892
15971W        W20371   1.945   6.557   8.379  0.1695  0.0721 -0.1452
15972W        W20372  18.378   5.644  22.500  0.0095  0.2130 -0.0071
15973W        W20373  13.112   3.837   0.352 -0.2610 -0.2271 -0.4123
15974W        W20374  20.137   1.699  30.041 -0.2890 -0.0075 -0.0916
15975W        W20375  11.469   5.794   0.555  0.0343 -0.0486 -0.1633
15976W        W20376  14.927   5.964  26.591  0.0208  0.0222  0.0311
15977W        W20377   9.630   0.509  25.808 -0.2092 -0.3186  0.1801
15978W        W20378   7.492   2.038  34.926  0.0061  0.1851  0.5451
15979W        W20379  17.941   4.891   6.378  0.0253 -0.0449  0.1907
15980W        W20380  16.216   4.480  20.246 -0.0757 -0.0776  0.2513
15981W        W20381  15.163   0.696   6.479 -0.1784 -0.0958  0.0334
15982W        W20382  25.624   0.628  13.251 -0.0895  0.0084  0.0652
15983W        W20383   1.417   2.793  29.871  0.0901  0.0170  0.1388
15984W        W20384   0.322   5.784  25.253  0.0135  0.2637 -0.0415
15985W        W20385  26.361   2.770  35.772 -0.0462 -0.1100  0.1191
15986W        W20386   3.243   0.698  35.299  0.1991  0.1897  0.5760
15987W        W20387  26.398   2.812  31.499  0.2216 -0.1604 -0.1068
15988W        W20388   9.176   0.130   3.261 -0.4434  0.0393 -0.0765
15989W        W20389  26.423   4.047  36.167 -0.1338 -0.2624 -0.0214
15990W        W20390  22.755   0.500  11.490 -0.3032 -0.0712 -0.1223
15991W        W20391  22.252   4.530  12.119  0.0841  0.0976 -0.1051
15992W        W20392   0.362   3.826  31.376  0.3445  0.2180  0.0901
15993W        W20393   6.810   6.391  27.843  0.1337 -0.4658 -0.1453
15994W        W20394  10.582   3.744   3.204  0.0420  0.2334  0.0124
15995W        W20395  18.306   6.427   2.487  0.0689 -0.1164 -0.2010
15996W        W20396  13.197   0.185  13.029  0.0216 -0.0746  0.1841
15997W        W20397  16.118   2.795  13.928  0.1736 -0.0011  0.3280
15998W        W20398  16.221   0.463   8.196 -0.0801 -0.1355  0.2187
15999W        W20399  18.507   1.049   4.277 -0.3843  0.0035  0.0840
16000W        W20400  22.974   2.626  11.409 -0.2719 -0.0664 -0.2603
16001W        W20401  14.178   4.856  23.774 -0.0489 -0.1804 -0.2051
16002W        W20402   9.319   1.262  29.782 -0.2443 -0.0951  0.1029
16003W        W20403  20.081   3.800   3.178 -0.1305 -0.0974 -0.0451
16004W        W20404  22.683   0.849   7.059 -0.1189 -0.1909  0.1711
16005W        W20405  14.055   3.412   1.138  0.1575 -0.0146 -0.1823
16006W        W20406  13.379   5.608  25.327 -0.4518 -0.1698  0.0746
16007W        W20407   5.296   3.789  24.715 -0.1359 -0.2708  0.1049
16008W        W20408  16.084   2.623   0.342  0.0759 -0.0824  0.0033
16009W        W20409  11.376   3.275  11.114  0.0847 -0.1986 -0.2019
16010W        W20410  25.702   0.694   7.187  0.0699 -0.1013 -0.3332
16011W        W20411  25.210   3.270  35.979  0.0839  0.2034  0.1105
16012W        W20412  20.662   4.628   0.108 -0.2812  0.0229  0.3807
16013W        W20413  11.714   4.022  27.338 -0.2182  0.0094 -0.2515
16014W        W20414   0.301   2.260   4.194 -0.2042 -0.0438 -0.0853
16015W        W20415   4.106   0.410  15.131  0.0142  0.0230 -0.0479
16016W        W20416  24.486   3.614   7.663 -0.1416 -0.4808  0.2578
16017W        W20417  17.650   2.770  25.826  0.0000  0.1762 -0.0895
16018W        W20418  14.566   3.904  31.858  0.0948 -0.2253 -0.3442
16019W        W20419   2.142   5.218  32.758 -0.0293  0.1363  0.0539
16020W        W20420  17.865   3.188  23.835  0.0248  0.2017  0.0398
16021W        W20421   3.798   1.498  34.550  0.0906  0.0591 -0.1041
16022W        W20422  20.868   0.588  20.603  0.3005  0.0399 -0.0490
16023W        W20423   9.983   2.222  29.850 -0.0278 -0.1105 -0.1238
16024W        W20424  15.524   3.540  24.730 -0.0143  0.1191  0.0832
16025W        W20425  15.408   1.488  10.505  0.1415 -0.3228  0.0753
16026W        W20426  22.434   0.774  21.449  0.1216 -0.2103 -0.0389
16027W        W20427  11.776   6.447  20.959 -0.1500  0.0996  0.2993
16028W        W20428  25.064   5.589  11.026  0.0595  0.0057 -0.2818
16029W        W20429   6.343   6.445  26.701  0.1508  0.2121 -0.1305
16030W        W20430  20.700   2.130  33.299 -0.0391  0.3049  0.2857
16031W        W20431  10.226   5.863   7.181  0.4539  0.0964 -0.2473
16032W        W20432  13.190   3.265  26.477  0.0303  0.0859 -0.1708
16033W        W20433  23.218   2.427  22.332  0.1859  0.3656 -0.2878
16034W        W20434   5.905   4.379   9.807 -0.0429 -0.2039  0.1408
16035W        W20435  21.722   4.662  13.697  0.0113 -0.0846 -0.0359
16036W        W20436  19.749   3.279  30.248 -0.1011 -0.0456 -0.6690
16037W        W20437   4.904   1.367  21.515 -0.0286 -0.1040 -0.0269
16038W        W20438  22.102   4.973   3.966 -0.2155  0.1936 -0.1477
16039W        W20439   9.258   3.949   4.915  0.0252 -0.1465  0.1896
16040W        W20440  14.947   4.379  35.607 -0.1341  0.2299 -0.1513
16041W        W20441   3.362   0.738  25.703  0.3062 -0.2280  0.0550
16042W        W20442  24.274   2.076  34.155 -0.1237  0.0728 -0.2083
16043W        W20443   1.649   6.226  13.226 -0.2492 -0.3217  0.0928
16044W        W20444   3.088   1.622   8.312  0.1798  0.0515 -0.2063
16045W        W20445   3.632   2.100  10.178  0.1054 -0.0531  0.2023
16046W        W20446  18.744   1.296   8.753 -0.1758  0.1434 -0.2129
16047W        W20447  18.147   3.315   1.420  0.0218  0.0449  0.1614
16048W        W20448  23.540   6.496  34.020 -0.0046  0.1494  0.0145
16049W        W20449   9.543   2.180   3.049 -0.2410 -0.2594 -0.0199
16050W        W20450  18.441   6.369  27.395 -0.0021 -0.3340 -0.1650
16051W        W20451  23.615   6.314   1.735 -0.0168  0.0020 -0.0067
16052W        W20452   1.225   2.099  27.284  0.0391  0.3064  0.2029
16053W        W20453   8.906   4.829   5.412 -0.2972  0.0318  0.0757
16054W        W20454  11.885   1.931  10.641 -0.0491  0.1903 -0.2207
16055W        W20455  16.444   3.036   8.749  0.2245 -0.1589 -0.0438
16056W        W20456  22.709   3.476  11.886 -0.1830 -0.0257  0.2390
16057W        W20457  23.293   1.848  21.323  0.1032 -0.1154 -0.0825
16058W        W20458   6.120   2.362  13.059 -0.1020  0.0179  0.0634
16059W        W20459   9.170   0.347  21.435 -0.0125  0.0323  0.1323
16060W        W20460  11.233   5.803   7.950  0.1162 -0.0950 -0.1673
16061W        W20461  14.331   3.829   9.683 -0.0965  0.1116 -0.0398
16062W        W20462   8.144   5.040  13.280 -0.1752 -0.1913  0.1192
16063W        W20463  24.252   2.620  32.708 -0.0761 -0.1295 -0.2355
16064W        W20464   4.888   5.139  13.665 -0.1525 -0.2177  0.1600
16065W        W20465  17.399   6.099  21.499  0.2527  0.0935 -0.2016
16066W        W20466  23.257   3.665  12.098 -0.0593  0.0967  0.0604
16067W        W20467   9.718   5.629  14.686  0.1692  0.0705  0.0608
16068W        W20468  20.409   5.228   1.244  0.0970  0.3341 -0.0953
16069W        W20469   6.887   1.241  33.100  0.0684  0.2060 -0.0745
16070W        W20470   6.822   2.584  24.149  0.1312  0.1325 -0.1876
16071W        W20471  25.769   1.618   2.178 -0.3706 -0.2514 -0.2146
16072W        W20472  11.260   1.335  34.255 -0.1732 -0.0017 -0.2547
16073W        W20473  16.187   1.305  32.948 -0.3362  0.1615  0.2613
16074W        W20474  12.987   1.131   2.959  0.0228 -0.2587  0.3270
16075W        W20475  19.231   3.868  26.844 -0.2905  0.1281 -0.0817
16076W        W20476   0.216   1.502  27.623 -0.2615 -0.1004 -0.0987
16077W        W20477  20.229   6.478   7.068  0.0659  0.0905  0.0911
16078W        W20478  15.890   1.069   0.981 -0.1632  0.2168  0.1508
16079W        W20479   4.883   6.123  11.762  0.0035 -0.0593  0.1219
16080W        W20480  25.639   0.670  31.403 -0.2407  0.0467 -0.0104
16081W        W20481   1.461   5.244  25.270  0.0208  0.1145 -0.3709
16082W        W20482   3.216   2.339   6.574 -0.4037 -0.1348  0.1435
16083W        W20483   7.411   1.343   6.208 -0.0138  0.0055  0.3278
16084W        W20484  14.629   2.991  23.766  0.1671 -0.1372 -0.0955
16085W        W20485  20.626   6.508   9.109 -0.0677  0.0532  0.1723
16086W        W20486   5.909   5.377  15.047 -0.1447 -0.1927 -0.2358
16087W        W20487   0.092   6.128   3.843 -0.1665  0.1425  0.2044
16088W        W20488   0.789   4.173   1.545  0.0400  0.1789 -0.0921
16089W        W20489  20.420   2.950  23.736  0.1449  0.0167  0.0904
16090W        W20490  11.273   3.892   5.078  0.1156  0.1762 -0.3062
16091W        W20491  23.806   5.044  34.886  0.1454 -0.0749  0.5062
16092W        W20492  10.402   1.285  32.762  0.3591  0.1880 -0.1948
16093W        W20493   0.492   1.072  29.785  0.0733  0.1865 -0.0315
16094W        W20494  14.888   1.092  34.978  0.2103  0.2791 -0.0852
16095W        W20495  10.656   4.543  31.360  0.0318  0.0053  0.5404
16096W        W20496   4.301   3.113  29.660 -0.1858  0.0014  0.0386
16097W        W20497  17.806   3.767  23.819  0.1700  0.2601  0.1523
16098W        W20498  26.412   0.665  28.389  0.0204  0.0779  0.0622
16099W        W20499   0.341   0.047  14.505 -0.1993  0.0683  0.2337
16100W        W20500   5.454   3.308  24.663 -0.0431  0.1461  0.1342
16101W        W20501  22.080   5.098  34.175 -0.0847 -0.1329 -0.0658
16102W        W20502   1.384   0.617  32.163 -0.1348 -0.3327  0.0163
16103W        W20503  18.890   2.725   4.746  0.1725  0.0797 -0.0235
16104W        W20504   9.092   5.762  28.040 -0.1328 -0.1150 -0.0646
16105W        W20505  24.945   6.599  11.084  0.3545  0.1836 -0.2764
16106W        W20506  17.912   1.665   8.167  0.1225 -0.0031 -0.1270
16107W        W20507   7.245   3.925   0.304 -0.0069 -0.1406  0.1682
16108W        W20508  10.777   0.394  10.867  0.0704  0.0062  0.1532
16109W        W20509  13.272   6.569   9.009 -0.1389  0.2595 -0.1756
16110W        W20510  25.347   5.557  25.627 -0.1649 -0.0044  0.1021
16111W        W20511   4.171   3.836  20.697 -0.0579 -0.0655 -0.0328
16112W        W20512  13.879   6.458   5.336  0.0918  0.2390  0.1370
16113W        W20513  25.574   5.795  14.569  0.1209 -0.0378 -0.1996
16114W        W20514   5.252   2.948  23.011 -0.0364  0.0086  0.4316
16115W        W20515  15.050   5.247   2.700  0.0077 -0.1540 -0.1279
16116W        W20516  21.855   6.455  29.888  0.1226 -0.1346  0.2317
16117W        W20517  19.730   3.396  34.053 -0.1019 -0.0947 -0.0207
16118W        W20518   1.094   6.220  27.242 -0.2589  0.1140  0.3069
16119W        W20519   4.874   3.027  26.664 -0.2501  0.0117  0.2029
16120W        W20520  20.124   5.708  35.840 -0.5091  0.0913  0.1005
16121W        W20521   7.036   5.838  30.499  0.0419 -0.1778  0.1790
16122W        W20522   5.113   3.098  27.580 -0.3193 -0.0212  0.1785
16123W        W20523  22.064   3.814  28.249  0.0636  0.0615  0.1299
16124W        W20524  23.697   2.926  31.985 -0.0180  0.0452 -0.4292
16125W        W20525   1.298   4.477  28.569  0.2008 -0.0577  0.0359
16126W        W20526   4.819   4.852  24.988  0.2119 -0.1096 -0.0140
16127W        W20527   9.639   2.551  34.690  0.0334  0.2042  0.0636
16128W        W20528  15.787   0.469   4.760 -0.3943 -0.1284 -0.3280
16129W        W20529  25.569   2.901  33.011  0.1988  0.2930  0.2932
16130W        W20530  13.685   3.576  11.643  0.0115  0.1073  0.2318
16131W        W20531   1.125   1.153  10.017  0.0720 -0.0064  0.1698
16132W        W20532  16.409   5.660  29.211 -0.2840 -0.1168 -0.0139
16133W        W20533   9.351   4.638   5.389  0.0478 -0.1283 -0.0373
16134W        W20534  13.045   6.125  33.327  0.1936  0.0397  0.0914
16135W        W20535   5.852   4.320  30.740  0.0497  0.0258  0.2432
16136W        W20536   8.814   4.585  12.136 -0.0564  0.1678  0.0369
16137W        W20537   1.307   1.828  20.476  0.0599 -0.3111  0.3071
16138W        W20538  25.479   2.436  22.483 -0.0414  0.3031 -0.1273
16139W        W20539   6.436   3.309  10.106 -0.3118 -0.2156 -0.0388
16140W        W20540  21.781   5.306  27.996 -0.1592  0.2194 -0.3059
16141W        W20541   6.352   1.674   5.281 -0.1265 -0.1013 -0.1209
16142W        W20542  11.745   3.811   8.435 -0.1240 -0.1871 -0.1190
16143W        W20543   8.145   1.056  22.569  0.0349  0.1259 -0.1002
16144W        W20544   0.344   3.507   2.583 -0.3534 -0.0520 -0.0617
16145W        W20545  20.712   1.033   2.471 -0.1429 -0.0584  0.0482
16146W        W20546  16.676   1.610   5.080 -0.0282 -0.4313  0.1814
16147W        W20547  17.241   4.174   2.350 -0.0225 -0.0201  0.2714
16148W        W20548  24.815   1.485  36.166  0.0694  0.0717  0.1305
16149W        W20549   4.051   3.162  10.231  0.1042  0.3968 -0.1849
16150W        W20550  16.485   3.333   1.354  0.0713 -0.0412 -0.2079
16151W        W20551  16.795   4.111  13.795  0.0635 -0.3645 -0.0522
16152W        W20552  17.046   6.481  25.487  0.3476 -0.0564 -0.1466
16153W        W20553   3.660   0.381  35.207 -0.0250 -0.0890  0.1217
16154W        W20554  17.531   6.341   8.574 -0.1165 -0.0415 -0.0930
16155W        W20555  11.353   1.164   0.957 -0.1090 -0.2543 -0.2898
16156W        W20556  10.681   2.144  14.165 -0.2464  0.0620  0.0721
16157W        W20557  10.502   0.228  24.144  0.0741  0.1150 -0.3227
16158W        W20558  20.265   4.970  30.766  0.1083  0.1125 -0.0169
16159W        W20559  24.702   0.275   0.328  0.2999  0.1448 -0.0828
16160W        W20560   1.732   2.950   5.061 -0.0340  0.0036 -0.0796
16161W        W20561   4.409   1.927  13.872  0.1266  0.1422 -0.1541
16162W        W20562   4.935   5.164  27.039 -0.1829  0.2234  0.4466
16163W        W20563   3.839   4.980   5.938 -0.2957 -0.1208  0.1815
16164W        W20564  15.895   5.550  30.827  0.3093  0.1796  0.0374
16165W        W20565  21.759   2.715  31.357 -0.1213 -0.4260 -0.2075
16166W        W20566   4.316   2.760  10.403  0.1992  0.0275  0.2399
16167W        W20567   7.423   2.784  22.984  0.1591 -0.0362  0.0128
16168W        W20568  16.096   0.666   4.380 -0.2428 -0.0032  0.0370
16169W        W20569   6.215   5.540  13.861 -0.0633 -0.3587  0.1015
16170W        W20570  21.327   2.883   9.046 -0.0459 -0.0942  0.0132
16171W        W20571  15.749   2.511  23.793 -0.1271  0.0976  0.2183
16172W        W20572   5.255   6.494  36.145 -0.0032 -0.3201 -0.0991
16173W        W20573  20.211   1.810  10.767 -0.1730  0.0142  0.0447
16174W        W20574  11.634   1.135  27.065 -0.1384  0.1033  0.0439
16175W        W20575   1.000   4.690  24.614  0.3924 -0.1867  0.3008
16176W        W20576  23.383   4.321  21.706 -0.2367  0.0277  0.1139
16177W        W20577  21.622   6.277  11.344  0.1269 -0.0044  0.0458
16178W        W20578   3.928   0.494   7.170  0.0879 -0.0930 -0.0729
16179W        W20579  19.788   1.455   1.569 -0.0144 -0.0470  0.1068
16180W        W20580  18.553   3.613  23.235 -0.0455 -0.2463  0.1781
16181W        W20581  26.260   6.008  13.528 -0.0329  0.0193 -0.0382
16182W        W20582  11.900   0.151  31.002 -0.3798 -0.0228  0.3281
16183W        W20583   4.325   2.607   0.832 -0.2236  0.1953  0.0743
16184W        W20584  19.637   2.882   5.985 -0.1146 -0.0048 -0.3197
16185W        W20585   4.544   5.134  35.826 -0.2416 -0.0279  0.0863
16186W        W20586   8.746   3.177  34.338 -0.1011 -0.0826 -0.0128
16187W        W20587  21.008   3.528  12.414  0.0361  0.0227 -0.1426
16188W        W20588  10.424   3.656  28.402 -0.0744 -0.0835  0.1437
16189W        W20589   1.819   4.347  28.749 -0.2780  0.0185  0.0345
16190W        W20590   0.488   0.765  21.674  0.0887  0.1762  0.0825
16191W        W20591   3.175   3.836  13.890  0.0857 -0.0169  0.3191
16192W        W20592   2.990   3.287  29.485  0.0552  0.0872 -0.1115
16193W        W20593  14.009   6.311  13.358  0.2562 -0.1427 -0.0794
16194W        W20594  20.761   4.003   9.195  0.1305 -0.0845  0.1999
16195W        W20595  15.604   6.112   6.660 -0.0684  0.0979  0.0916
16196W        W20596   6.302   1.216  32.941  0.0538  0.0365  0.0456
16197W        W20597  22.405   5.226  21.266 -0.0719  0.1641  0.0922
16198W        W20598   5.822   3.068  29.474  0.1943 -0.1591 -0.2492
16199W        W20599  13.415   2.333  31.058 -0.0270  0.0507  0.0091
16200W        W20600   5.466   6.066  36.003 -0.2533 -0.1364  0.0628
16201W        W20601   6.681   4.673  10.916 -0.0647  0.1080 -0.0347
16202W        W20602  12.224   3.833   2.226 -0.0010  0.0123 -0.0672
16203W        W20603   8.201   4.680   9.281  0.1197 -0.0451  0.0498
16204W        W20604  25.471   6.119   0.263  0.2231  0.1681 -0.2097
16205W        W20605  18.227   5.693   4.992 -0.3402 -0.0837  0.0013
16206W        W20606   0.512   5.910  31.243 -0.1164 -0.1046  0.0002
16207W        W20607  18.978   4.721   4.051  0.0989  0.2568  0.0545
16208W        W20608  10.746   5.079  15.686  0.4208 -0.0240  0.0427
16209W        W20609   9.854   3.549  11.503  0.2039 -0.1382  0.0081
16210W        W20610  24.494   1.579  31.577 -0.1132 -0.2593 -0.2358
16211W        W20611  14.775   5.496  23.058 -0.1027  0.2509 -0.3444
16212W        W20612   1.155   2.787   1.413  0.0558 -0.3867  0.0710
16213W        W20613   3.747   5.290  20.105  0.0464 -0.0731  0.0809
16214W        W20614  16.946   1.718   3.216 -0.2625  0.0295  0.3488
16215W        W20615   3.382   0.647  12.867  0.2153  0.0479  0.1761
16216W        W20616  20.498   2.668   8.990  0.1507 -0.2450 -0.0456
16217W        W20617  17.169   0.216   1.795  0.0776 -0.2644 -0.1083
16218W        W20618  10.031   5.405   1.640  0.1840  0.0985  0.2608
16219W        W20619  10.431   1.587  22.900 -0.1175  0.3531 -0.2253
16220W        W20620  16.607   5.185  26.978  0.2358  0.1658 -0.1225
16221W        W20621   3.758   1.511   6.490  0.0348  0.4512 -0.3174
16222W        W20622  13.869   2.909  36.015  0.0782  0.0885 -0.1535
16223W        W20623   7.796   4.445  23.972  0.0517  0.1040 -0.0552
16224W        W20624   2.747   2.289  14.547  0.2659  0.2896  0.2167
16225W        W20625   8.559   6.519  14.681  0.0092 -0.0546 -0.2253
16226W        W20626   3.892   5.557  22.160 -0.0998  0.4789  0.0159
16227W        W20627  14.912   1.705  12.795 -0.0572 -0.0044 -0.1245
16228W        W20628  17.358   4.934  21.657  0.0041  0.3091  0.1924
16229W        W20629  15.533   4.376  11.967 -0.1096 -0.0073 -0.1272
16230W        W20630  24.931   2.561  23.905 -0.0200 -0.1046 -0.0189
16231W        W20631  19.437   5.651   1.521  0.1794  0.0520  0.1416
16232W        W20632   1.024   5.518   7.474 -0.1477  0.1870  0.2448
16233W        W20633  24.336   3.690   5.718 -0.0765  0.3845  0.0874
16234W        W20634  16.630   0.310  14.684 -0.0427 -0.0996 -0.1000
16235W        W20635  10.387   1.455  28.293  0.1048 -0.0039  0.0193
16236W        W20636  25.520   0.345   1.768 -0.0711 -0.2032  0.0688
16237W        W20637   0.782   2.490  25.994 -0.0860 -0.0525 -0.3253
16238W        W20638   8.640   1.307  11.122 -0.1369 -0.0277 -0.1900
16239W        W20639   6.495   2.643  10.968 -0.0797  0.2342  0.2010
16240W        W20640   7.790   0.147   1.045  0.3731 -0.0873 -0.3090
16241W        W20641  17.936   0.460   4.935 -0.0122 -0.2520  0.2132
16242W        W20642   2.721   5.037  30.814  0.2851 -0.1854 -0.1548
16243W        W20643  15.592   0.497  30.978  0.1945 -0.1879  0.1056
16244W        W20644   6.404   4.419  32.763  0.2273  0.0457 -0.0392
16245W        W20645   6.608   4.888  10.122  0.1204 -0.2172 -0.1609
16246W        W20646  24.351   3.367  14.551  0.0460  0.0421  0.2643
16247W        W20647  22.771   3.822  21.272  0.0668  0.3292  0.2675
16248W        W20648   3.667   1.700  15.366 -0.0161 -0.0614  0.1716
16249W        W20649   5.456   0.912  28.819 -0.0510  0.0396 -0.1246
16250W        W20650  15.590   0.948  26.138  0.1138  0.0030  0.2679
16251W        W20651  11.702   2.275   9.680 -0.0298  0.0444  0.0775
16252W        W20652   4.852   3.392  13.264 -0.2385  0.1916  0.1504
16253W        W20653  16.000   1.232  25.315  0.1452  0.0415  0.0897
16254W        W20654   6.592   1.255  28.772  0.1058 -0.3792 -0.2026
16255W        W20655  24.605   3.085   8.304  0.0532  0.1282 -0.0032
16256W        W20656   5.551   3.962   1.974 -0.0923  0.1048 -0.1101
16257W        W20657  24.696   3.413  28.745  0.0026 -0.0491 -0.0986
16258W        W20658  15.802   0.776   8.149 -0.0472 -0.1390 -0.0694
16259W        W20659  24.945   5.171  12.280  0.0642  0.0798  0.0224
16260W        W20660  12.303   4.440  29.730 -0.2894  0.1052  0.1296
16261W        W20661  19.149   3.664  32.882 -0.0388  0.1103 -0.0307
16262W        W20662   6.061   4.882  25.443  0.0166 -0.3585  0.3536
16263W        W20663  21.385   6.504  30.015 -0.1167 -0.1130  0.1939
16264W        W20664  22.675   6.472  21.961 -0.3264  0.1693 -0.0697
16265W        W20665  10.435   0.504   5.044  0.3751 -0.1940 -0.1692
16266W        W20666  14.302   1.903  28.781 -0.0745 -0.1398 -0.0933
16267W        W20667   2.672   5.660  13.979  0.2391 -0.2254 -0.1023
16268W        W20668  21.184   4.719  14.373  0.1375 -0.0116  0.1302
16269W        W20669   4.319   0.369   7.420 -0.0546  0.0845 -0.1661
16270W        W20670  18.741   6.132   7.653  0.2188  0.1679 -0.0137
16271W        W20671   2.858   2.471  23.290 -0.0097  0.0523 -0.1076
16272W        W20672  21.971   4.469   0.459  0.0875  0.0126  0.1429
16273W        W20673  14.299   4.741  13.358 -0.1535  0.1695  0.0816
16274W        W20674  12.588   3.857  14.863 -0.2308 -0.0700 -0.0992
16275W        W20675   2.310   4.292   1.790 -0.1881  0.0616  0.0265
16276W        W20676  18.314   1.945  28.411  0.0398 -0.1623 -0.1933
16277W        W20677  25.075   2.678  27.269 -0.0675  0.1631  0.1800
16278W        W20678   6.372   2.647   9.424 -0.2456  0.0433  0.0633
16279W        W20679  19.146   5.196   3.095 -0.1705  0.0863 -0.2497
16280W        W20680  23.929   1.473  26.978  0.1411  0.1090  0.1580
16281W        W20681   3.745   3.447  12.531 -0.0383  0.1588 -0.1282
16282W        W20682  14.767   3.755  22.180  0.1147 -0.0945 -0.1942
16283W        W20683   5.728   1.995   8.239  0.0127 -0.0717 -0.3564
16284W        W20684   5.965   2.890  10.203  0.2050 -0.0039  0.2460
16285W        W20685  18.113   1.347   8.978 -0.2222  0.0247 -0.1836
16286W        W20686   5.341   6.465  23.138 -0.0549  0.3977 -0.2332
16287W        W20687   5.091   5.701  24.211  0.0710  0.0445  0.1797
16288W        W20688  14.459   4.125   6.464  0.1925  0.1925 -0.1731
16289W        W20689  10.628   3.691  35.429 -0.1143 -0.1740  0.3214
16290W        W20690  18.447   5.823  32.571 -0.2641  0.1372  0.3389
16291W        W20691  23.577   0.511  22.632 -0.0904  0.1121  0.2209
16292W        W20692   9.706   4.846  11.512  0.0294  0.0843  0.0167
16293W        W20693  24.828   6.494  21.121 -0.0665  0.0012  0.4784
16294W        W20694   2.170   3.579  11.302 -0.2073  0.1085 -0.1932
16295W        W20695  14.504   0.413  13.022 -0.5159 -0.0417  0.2671
16296W        W20696  23.246   6.409  35.019 -0.1016 -0.3787  0.2392
16297W        W20697  23.638   0.787  10.760 -0.0071 -0.1584 -0.3757
16298W        W20698   3.563   2.049  29.810  0.0463  0.2664 -0.0496
16299W        W20699  21.229   4.213  19.957  0.1421  0.2051  0.1637
16300W        W20700  21.407   1.568  10.883 -0.3167 -0.2510  0.1242
16301W        W20701   1.369   2.624   5.889  0.2944 -0.1239 -0.2251
16302W        W20702   4.363   4.329   4.008 -0.1580  0.0986  0.0503
16303W        W20703   0.810   3.503   2.734 -0.3232 -0.1997 -0.0385
16304W        W20704   2.609   0.354  28.067 -0.1632 -0.1028 -0.2029
16305W        W20705   1.590   2.858  22.318 -0.0036 -0.0621 -0.1742
16306W        W20706  18.066   6.114   7.413  0.1727  0.3962 -0.0185
16307W        W20707  15.967   4.306   5.098 -0.2939 -0.2624  0.2193
16308W        W20708  16.739   5.364   9.377 -0.0803  0.0778  0.1698
16309W        W20709  25.569   3.969  25.175 -0.3322 -0.1616 -0.0916
16310W        W20710  13.471   4.655  21.107  0.0938  0.1127 -0.0766
16311W        W20711  10.952   2.526   4.730 -0.3629 -0.1405 -0.0540
16312W        W20712  10.596   0.834  32.827 -0.1073 -0.0835  0.0216
16313W        W20713  18.967   1.682   3.514  0.3265 -0.0162 -0.1747
16314W        W20714  17.626   1.344   4.614  0.2539  0.1102 -0.1367
16315W        W20715  18.376   2.237   2.118  0.0672 -0.1587  0.1542
16316W        W20716  15.687   6.114   7.867  0.1704 -0.0256 -0.1179
16317W        W20717  19.683   0.778   2.317  0.0383 -0.2092 -0.1383
16318W        W20718  13.159   5.927   0.728 -0.2370  0.0673 -0.1902
16319W        W20719   6.254   0.947   0.934 -0.1319 -0.0797 -0.2130
16320W        W20720   1.534   4.785  27.120 -0.0047 -0.1366 -0.0550
16321W        W20721   8.170   3.570   1.913  0.1398  0.0947  0.2383
16322W        W20722  16.652   5.269   6.633 -0.4227  0.1571 -0.2218
16323W        W20723   6.735   2.278   9.250  0.0737 -0.0149  0.1334
16324W        W20724  21.980   6.559  20.558  0.0106 -0.2792 -0.1689
16325W        W20725   4.472   6.596   1.432  0.0761  0.1212  0.0870
16326W        W20726  15.920   3.740  22.989 -0.1039  0.1921 -0.0382
16327W        W20727  25.895   1.349   9.632  0.1244  0.3690 -0.2782
16328W        W20728   3.856   5.469  33.378 -0.1763  0.0006 -0.0689
16329W        W20729   2.609   1.790  24.634 -0.2725  0.0154  0.1392
16330W        W20730   5.652   2.807  15.371 -0.5024  0.0253  0.2366
16331W        W20731   4.948   6.178   5.385  0.4515  0.0425 -0.1371
16332W        W20732   4.966   5.036   9.106 -0.1617  0.1682  0.0156
16333W        W20733  14.557   1.540  16.377  0.0417 -0.2065 -0.0380
16334W        W20734   3.366   4.423  10.158  0.3945 -0.0989  0.0979
16335W        W20735  19.685   2.284   8.551 -0.2887 -0.0969 -0.3519
16336W        W20736   5.911   4.129  32.853 -0.0195 -0.1312  0.0719
16337W        W20737  22.936   1.462  31.403 -0.0802  0.1044 -0.1783
16338W        W20738  26.276   2.024  24.871  0.2275  0.1193 -0.2544
16339W        W20739   4.264   3.576  32.569  0.0182 -0.0866  0.0115
16340W        W20740  12.688   6.286  35.047 -0.1103  0.2501  0.3447
16341W        W20741  15.995   5.398  12.715 -0.0347  0.0681 -0.0919
16342W        W20742  20.439   0.635  21.746 -0.0640  0.3609 -0.0598
16343W        W20743   2.233   2.156  34.985  0.0339 -0.2698  0.1009
16344W        W20744  13.293   4.204  29.591 -0.0980 -0.0451 -0.1016
16345W        W20745   8.349   0.501  15.387 -0.1199 -0.0095  0.2067
16346W        W20746  20.716   1.287  21.829 -0.2011  0.1349  0.1399
16347W        W20747  25.871   5.510  28.451  0.0230  0.0023 -0.0644
16348W        W20748   5.523   4.122  14.621 -0.0259 -0.0820 -0.2463
16349W        W20749   1.363   1.640   4.293 -0.0979  0.0981  0.1205
16350W        W20750   7.685   3.792  32.796  0.2066 -0.1027 -0.1030
16351W        W20751  11.436   1.147  11.221  0.1792  0.0874 -0.1620
16352W        W20752   9.574   4.855  14.380 -0.1840 -0.3612 -0.5210
16353W        W20753   8.536   0.663  31.617  0.1232 -0.2066 -0.0757
16354W        W20754  12.474   3.230  14.095  0.0352 -0.1745  0.3013
16355W        W20755   2.376   0.935   5.042  0.0139 -0.0327 -0.1045
16356W        W20756  20.619   1.708  29.775  0.2904  0.1311 -0.1590
16357W        W20757  13.401   4.467  28.023 -0.1720  0.0804 -0.2572
16358W        W20758   8.363   0.768   3.373 -0.1143  0.2834 -0.0931
16359W        W20759   6.519   5.942  24.378  0.0108 -0.3262 -0.0547
16360W        W20760  11.732   0.969  30.553  0.2808 -0.1085 -0.0013
16361W        W20761  24.079   0.685   9.472  0.1153 -0.2978 -0.0215
16362W        W20762  23.225   0.426  14.202 -0.0202 -0.1495  0.1859
16363W        W20763   1.799   5.439  22.298  0.0288 -0.0297 -0.2932
16364W        W20764  24.607   2.183   9.360 -0.3114  0.0570 -0.3000
16365W        W20765  19.285   4.278  34.913 -0.0203  0.3296 -0.0472
16366W        W20766   0.769   3.945   7.396  0.2294  0.0828 -0.2111
16367W        W20767   0.361   3.401   5.363  0.1151 -0.2215 -0.1599
16368W        W20768  13.157   2.379  26.907  0.0951 -0.2025 -0.0629
16369W        W20769  25.245   0.378  25.904  0.1761 -0.0340  0.3284
16370W        W20770  18.439   1.552  22.136  0.0991 -0.1839  0.2283
16371W        W20771   7.880   6.100   6.763  0.1717  0.1501 -0.0281
16372W        W20772  11.715   0.951   6.101  0.1498  0.1146  0.1512
16373W        W20773  21.925   0.479  13.337 -0.0098 -0.2331 -0.1318
16374W        W20774   1.831   2.270   1.637 -0.1680  0.1415  0.1148
16375W        W20775  13.720   3.060  30.090  0.1373 -0.1814  0.1458
16376W        W20776   3.942   6.336   4.265  0.1392 -0.2294  0.0969
16377W        W20777   5.142   2.013   3.315 -0.0720 -0.1325  0.1965
16378W        W20778  13.074   5.631  13.763 -0.1016 -0.0378  0.1346
16379W        W20779  10.226   1.651   7.164  0.1059 -0.1294 -0.2843
16380W        W20780  22.353   1.168  32.195  0.2981  0.1269 -0.0995
16381W        W20781  21.550   3.270   7.762 -0.1668 -0.3073 -0.2884
16382W        W20782   5.231   4.376  21.652  0.1252  0.2443 -0.0161
16383W        W20783   8.450   4.879   5.718 -0.0581  0.1936 -0.1326
16384W        W20784   6.431   3.511   9.625 -0.0230  0.3223  0.0554
16385W        W20785  11.329   1.844  30.382  0.1291 -0.2444  0.1370
16386W        W20786  10.095   0.336  12.351  0.3151  0.0276  0.0167
16387W        W20787  24.038   5.499  12.010 -0.1300  0.1427  0.0921
16388W        W20788   3.628   4.211  32.185 -0.0172 -0.3645  0.0675
16389W        W20789  23.121   4.481  26.411 -0.1274 -0.1551  0.2807
16390W        W20790   0.789   4.427  15.016 -0.0522 -0.1738  0.0083
16391W        W20791  17.029   0.661   3.791  0.1219  0.0665  0.1692
16392W        W20792  23.476   3.543  34.674  0.1179 -0.2443  0.3064
16393W        W20793  22.020   0.015  22.916  0.0073  0.4325 -0.0741
16394W        W20794  19.738   2.286   3.351 -0.0139  0.1059  0.0481
16395W        W20795   4.195   2.844  11.376 -0.0344 -0.2434  0.0606
16396W        W20796  11.772   4.734  33.864  0.2360 -0.1208  0.2173
16397W        W20797  10.886   1.920  35.793 -0.1825 -0.1509  0.0431
16398W        W20798  18.738   2.522  34.399 -0.1078 -0.0279  0.2595
16399W        W20799  14.179   0.487  27.893 -0.0899 -0.4286  0.0840
16400W        W20800  11.944   5.916   0.668  0.0662  0.2056 -0.0865
16401W        W20801   0.683   0.448  14.631  0.1098  0.0571  0.0439
16402W        W20802   8.793   3.966   1.175 -0.3102 -0.1333 -0.4843
16403W        W20803  22.212   6.441   4.253 -0.0052 -0.2434  0.0060
16404W        W20804   5.992   0.690  11.850 -0.0665 -0.2600 -0.1877
16405W        W20805   7.498   6.105  10.024 -0.0852  0.0049  0.0271
16406W        W20806   5.196   4.612  10.436  0.3399  0.1761  0.1710
16407W        W20807  14.119   0.262  20.356  0.1279  0.1375  0.1211
16408W        W20808  26.430   6.150   9.723  0.0522 -0.1159 -0.1368
16409W        W20809  10.432   0.753  12.684  0.0768 -0.1547 -0.1299
16410W        W20810  12.551   1.482   6.883 -0.2390 -0.1527 -0.0063
16411W        W20811  14.347   1.874   8.537 -0.2208  0.0403 -0.1137
16412W        W20812  11.471   0.667  32.775  0.2533  0.0908 -0.1093
16413W        W20813  15.588   5.595  20.576 -0.1144 -0.0972 -0.0730
16414W        W20814  14.322   3.786  35.482  0.0234 -0.2398  0.4177
16415W        W20815   9.285   2.041   5.191 -0.0800  0.1157 -0.2995
16416W        W20816   2.532   0.034  13.128 -0.2638 -0.1789  0.0406
16417W        W20817  14.405   5.909   2.740  0.1665 -0.2002  0.2482
16418W        W20818  19.771   1.044  22.007  0.0105  0.1146  0.0409
16419W        W20819   5.775   4.221  22.961  0.2986  0.0331  0.0712
16420W        W20820   4.912   1.616  15.798  0.1973 -0.0019 -0.0841
16421W        W20821   8.573   5.974  30.073 -0.3729  0.0024 -0.2463
16422W        W20822  21.429   1.679   7.814 -0.1836  0.1870 -0.2374
16423W        W20823  13.399   0.433  23.166 -0.0012 -0.2216 -0.3624
16424W        W20824   3.574   6.001   7.886  0.0019  0.0764 -0.1440
16425W        W20825   1.813   2.944   6.312 -0.0213 -0.0709  0.4105
16426W        W20826  14.515   4.818  36.059  0.0034  0.0129 -0.1143
16427W        W20827   8.222   2.237  14.567  0.2487  0.0541 -0.2501
16428W        W20828  17.022   1.313  10.242  0.3549 -0.2182 -0.1992
16429W        W20829  18.131   2.231  31.455 -0.1129  0.1449  0.1799
16430W        W20830   6.271   1.819   7.454  0.0089 -0.0466  0.0439
16431W        W20831  21.642   2.534  29.485  0.2687 -0.2188 -0.0425
16432W        W20832   2.331   5.516   4.093  0.0837  0.1135 -0.0540
16433W        W20833   1.897   1.179   9.653 -0.3980  0.0953 -0.1077
16434W        W20834  21.116   1.170  13.647 -0.0696  0.0312  0.1417
16435W        W20835  25.114   3.420  31.891  0.4368  0.0943 -0.2771
16436W        W20836  22.200   3.770  32.449  0.0074 -0.2777 -0.0554
16437W        W20837  11.000   4.691  13.225  0.0962 -0.2644  0.0549
16438W        W20838   0.523   5.937  12.797  0.1142  0.4110 -0.4513
16439W        W20839  21.804   3.037   3.127 -0.1187  0.0492 -0.1268
16440W        W20840   0.601   6.074  24.964 -0.2080 -0.1172 -0.3713
16441W        W20841   9.167   1.108  12.443  0.0205 -0.2718  0.2269
16442W        W20842  13.933   3.423  31.146 -0.1162 -0.1745  0.3707
16443W        W20843   1.955   3.485  30.238 -0.0074  0.0194 -0.0017
16444W        W20844  21.230   0.265  11.047 -0.1794 -0.1633 -0.0361
16445W        W20845  14.487   0.350   7.076 -0.0162 -0.0647 -0.1623
16446W        W20846  21.403   1.176  10.500 -0.1866  0.1577  0.1416
16447W        W20847  17.719   5.629  12.807 -0.1697 -0.0775  0.1012
16448W        W20848  23.694   3.394  10.020 -0.1098  0.1978 -0.1712
16449W        W20849  19.244   2.739   5.662  0.1540 -0.0272  0.0579
16450W        W20850  21.091   1.666  29.600  0.1046  0.1157 -0.0605
16451W        W20851  14.400   4.248   2.762  0.1224  0.0204 -0.1393
16452W        W20852  19.064   3.077  20.087  0.2922 -0.2242 -0.1975
16453W        W20853  21.327   1.283  15.024  0.2819  0.2681 -0.0446
16454W        W20854   6.913   2.134  13.188 -0.3656  0.0248 -0.0128
16455W        W20855  20.541   5.059  10.230  0.1643 -0.1274 -0.2226
16456W        W20856  17.185   2.421   0.324 -0.1267  0.0879 -0.1968
16457W        W20857  11.545   1.475   9.104  0.0569 -0.0763 -0.1424
16458W        W20858  10.288   4.316   5.892 -0.0583  0.1969 -0.1217
16459W        W20859  11.802   1.559  22.549 -0.0119 -0.2085  0.0332
16460W        W20860  24.114   2.273  26.966 -0.1420 -0.0817 -0.0735
16461W        W20861  13.801   0.149   9.791 -0.1232 -0.1776 -0.0731
16462W        W20862  21.516   5.429  21.310  0.0350  0.1667  0.4026
16463W        W20863   7.537   5.503   6.098 -0.0961 -0.2059  0.2809
16464W        W20864   0.068   5.707  23.433  0.0993 -0.0812 -0.2282
16465W        W20865   8.163   3.821  26.054 -0.0438  0.3616 -0.0495
16466W        W20866   5.403   0.517  32.145 -0.1343 -0.0847  0.2878
16467W        W20867   2.009   6.342  20.627  0.1755 -0.0155  0.0880
16468W        W20868  10.369   6.243  15.126  0.1524  0.0542  0.0053
16469W        W20869  20.205   4.351  35.337  0.1469 -0.0410  0.1385
16470W        W20870  16.438   1.976  31.578 -0.1483 -0.0080 -0.0403
16471W        W20871  22.003   1.778  26.539 -0.1236 -0.2951 -0.1962
16472W        W20872   5.315   0.241  30.765 -0.2537  0.0539  0.0543
16473W        W20873  18.429   6.129  34.454  0.0641  0.2918 -0.1477
16474W        W20874  13.236   1.315  24.770  0.0210 -0.2063  0.4841
16475W        W20875  12.372   1.138  33.298 -0.0109  0.0833 -0.1058
16476W        W20876  20.051   1.027  33.795  0.1159  0.0780  0.1163
16477W        W20877   8.608   2.247  21.324  0.2258 -0.0134 -0.0683
16478W        W20878   3.683   0.768   2.720 -0.1124  0.0229  0.2031
16479W        W20879  22.003   4.614  28.812 -0.1929  0.0567  0.0720
16480W        W20880   6.105   3.193   4.510  0.1275  0.5187  0.1851
16481W        W20881   8.810   2.999  30.166 -0.3272 -0.1816 -0.1377
16482W        W20882   3.452   0.233   9.040 -0.0668 -0.1429 -0.0654
16483W        W20883   6.023   5.066  32.097 -0.2649 -0.1294 -0.1479
16484W        W20884   2.010   2.249   9.562  0.0422 -0.0208 -0.0863
16485W        W20885  21.159   4.109  24.659 -0.2718 -0.0854 -0.0264
16486W        W20886  19.995   4.744  12.718 -0.0391  0.3083  0.1090
16487W        W20887  24.196   5.597  32.041  0.0037  0.0062  0.1028
16488W        W20888  25.381   5.670  11.437 -0.2880 -0.2501  0.0231
16489W        W20889   3.830   0.170  29.012  0.1500  0.0259  0.0689
16490W        W20890  26.415   0.370  34.057  0.1100  0.0434  0.0118
16491W        W20891  17.372   4.054  11.561  0.1682 -0.1716 -0.3022
16492W        W20892  11.126   4.128  20.753  0.0370 -0.2222 -0.1289
16493W        W20893  10.759   4.803   0.304  0.2885  0.0711  0.0137
16494W        W20894   5.751   6.159  12.584  0.1592 -0.2343  0.1386
16495W        W20895  22.670   4.765  29.754 -0.1030 -0.1359  0.4191
16496W        W20896   2.117   1.067   4.654 -0.3274  0.1258 -0.0635
16497W        W20897   0.533   1.629   1.366  0.0794 -0.1498 -0.2979
16498W        W20898   9.485   5.503  21.435  0.1616 -0.0723 -0.3337
16499W        W20899  11.510   3.150  23.975  0.2495  0.0334  0.0843
16500W        W20900  23.050   4.439   4.846  0.0668  0.2687 -0.0087
16501W        W20901  11.203   6.225   8.274  0.0889 -0.0647 -0.1815
16502W        W20902  19.134   2.800   0.326  0.0294  0.1159 -0.0333
16503W        W20903   6.015   2.198  27.460  0.2524  0.0797  0.0172
16504W        W20904  12.311   5.614  26.350  0.0481 -0.5086  0.4888
16505W        W20905  14.240   3.072   0.299  0.0670  0.0807 -0.1588
16506W        W20906   9.873   1.239  29.651 -0.0062  0.0668 -0.3698
16507W        W20907  21.157   1.356  32.319  0.0522 -0.0447 -0.2554
16508W        W20908  18.268   0.461  22.860 -0.3576  0.1386  0.0894
16509W        W20909   9.874   1.875   8.073  0.2471  0.3994 -0.0177
16510W        W20910   7.454   3.702   9.101 -0.2797  0.0939 -0.2087
16511W        W20911   2.337   5.864  25.271  0.0889  0.0498  0.1159
16512W        W20912   0.947   1.990  34.862 -0.2114 -0.0283 -0.3126
16513W        W20913   5.832   0.510  10.913 -0.0477 -0.3482  0.0726
16514W        W20914  23.235   5.570  28.656 -0.0984 -0.0756  0.3146
16515W        W20915  11.717   0.654  21.272  0.2414  0.0048 -0.0887
16516W        W20916  24.170   3.917  35.388  0.0935 -0.2867 -0.1392
16517W        W20917  16.425   0.433  22.161  0.3859 -0.1584 -0.1890
16518W        W20918  15.061   3.659   4.917 -0.2303  0.1696  0.1162
16519W        W20919  12.115   5.892   4.412  0.0500 -0.1931 -0.3356
16520W        W20920   0.786   4.267  32.165 -0.1953 -0.0648  0.1418
16521W        W20921   2.449   5.701  24.792 -0.0941  0.1933  0.0383
16522W        W20922  17.719   1.735  29.690 -0.1517 -0.0108 -0.0433
16523W        W20923  12.176   0.213   5.679  0.0068  0.0895 -0.0106
16524W        W20924   7.345   4.876  12.585 -0.1491 -0.2461  0.2048
16525W        W20925   6.893   3.033   7.482 -0.0559 -0.0278 -0.0538
16526W        W20926  13.551   0.164  10.353 -0.2689 -0.2038 -0.2599
16527W        W20927  10.994   0.796  28.284  0.2073  0.2390  0.0016
16528W        W20928  12.033   0.570  29.908  0.0599 -0.0193  0.1545
16529W        W20929   0.871   4.915   3.190 -0.0351 -0.0986 -0.1883
16530W        W20930  16.722   0.052   5.502  0.0181  0.0308  0.2735
16531W        W20931   8.214   1.004  10.693  0.0799  0.3238  0.0543
16532W        W20932   5.519   0.502  10.130  0.1544 -0.3118  0.3017
16533W        W20933   6.111   0.476   0.746  0.1982 -0.1321 -0.2242
16534W        W20934   3.455   4.092  15.037  0.0643 -0.5064 -0.0481
16535W        W20935   9.244   3.980  31.540  0.2862  0.0549  0.0466
16536W        W20936   3.229   4.331   3.133  0.1070 -0.1250  0.1543
16537W        W20937   9.490   0.798  21.660 -0.0293 -0.0287  0.2217
16538W        W20938  23.076   1.681  24.877 -0.1010  0.0425  0.1672
16539W        W20939  21.930   3.446   5.941 -0.0019  0.2008  0.0456
16540W        W20940   7.124   5.609  14.131 -0.1139  0.4197  0.0343
16541W        W20941   8.332   5.217   8.172 -0.2435 -0.0568 -0.1619
16542W        W20942  11.373   1.729  29.351 -0.2393  0.1481  0.2842
16543W        W20943  12.371   0.520  21.990  0.1956  0.1052 -0.0026
16544W        W20944  21.267   1.820   8.284 -0.0188  0.1239 -0.1260
16545W        W20945  16.821   5.981  10.907 -0.2172 -0.1983 -0.0761
16546W        W20946  23.527   2.545  25.881  0.1383 -0.0085  0.0137
16547W        W20947  23.511   6.313   9.482 -0.3037  0.0953 -0.3452
16548W        W20948   5.954   3.130  23.335 -0.0174 -0.1299  0.3045
16549W        W20949  10.102   0.835  32.721 -0.0472 -0.0874 -0.1104
16550W        W20950  15.122   2.679  12.930 -0.0920  0.2788  0.2928
16551W        W20951   0.021   0.671   7.389 -0.0109 -0.2918 -0.1074
16552W        W20952  21.156   1.567  11.456  0.1469  0.2209  0.3143
16553W        W20953  15.516   0.197  13.670  0.2535  0.0990 -0.0966
16554W        W20954   8.697   3.314   8.017  0.0334  0.2642  0.3363
16555W        W20955   0.199   5.457  14.330 -0.0731 -0.2126 -0.1503
16556W        W20956  24.131   1.365  23.531 -0.0630  0.0132 -0.1737
16557W        W20957   3.191   5.915  22.115 -0.0869  0.1249 -0.4366
16558W        W20958  11.290   4.984  25.359 -0.2215 -0.0715  0.3942
16559W        W20959   1.601   1.227   4.597 -0.1853  0.1710 -0.1754
16560W        W20960   4.683   3.087  14.531  0.0982 -0.0200 -0.1183
16561W        W20961   2.531   2.061   0.081  0.1308 -0.0901 -0.0902
16562W        W20962  11.129   3.100   2.101 -0.4590 -0.1943 -0.2765
16563W        W20963  13.019   0.531  33.557 -0.0282  0.0956 -0.0039
16564W        W20964   0.878   5.183   6.519 -0.0518 -0.0572  0.0260
16565W        W20965   8.184   2.030  35.821  0.2361 -0.0503 -0.2132
16566W        W20966  13.213   1.711   1.579  0.0148 -0.0483 -0.3158
16567W        W20967  24.712   1.385  29.630 -0.1312 -0.3576  0.1009
16568W        W20968  19.814   6.419  35.242  0.0687  0.1394 -0.0926
16569W        W20969  25.603   5.622   4.680 -0.2493 -0.2863  0.0744
16570W        W20970  15.078   4.431  34.159  0.4848  0.1902 -0.1923
16571W        W20971   9.738   1.487  32.151 -0.1140  0.1910  0.0075
16572W        W20972   4.146   3.063  23.737 -0.1620 -0.1092 -0.0501
16573W        W20973  18.916   5.299  26.084  0.0499 -0.0162 -0.4076
16574W        W20974  19.097   4.646   4.625  0.0596  0.0848 -0.2277
16575W        W20975  10.473   5.242  12.949 -0.1623 -0.1380  0.1361
16576W        W20976   8.574   3.144   1.888 -0.3190 -0.0360  0.0278
16577W        W20977   4.720   1.446   7.155  0.3077  0.0410 -0.0856
16578W        W20978  18.744   2.802  29.473  0.0512 -0.0171  0.1359
16579W        W20979  24.179   4.513  21.963 -0.1307  0.2396 -0.2605
16580W        W20980   0.495   0.946  13.991  0.1278 -0.0032  0.5135
16581W        W20981  25.025   2.383  11.736 -0.1239  0.2891  0.0164
16582W        W20982  10.756   5.967  15.424 -0.0353  0.2440  0.0044
16583W        W20983  11.512   2.834   7.461 -0.3065  0.4399 -0.2464
16584W        W20984  21.404   6.295  34.775 -0.0198 -0.0756 -0.1174
16585W        W20985  23.068   2.725  29.610 -0.1263 -0.0352  0.0497
16586W        W20986   0.524   4.238  25.154 -0.1740  0.2715 -0.1271
16587W        W20987  14.941   0.977   2.780 -0.4209 -0.1156  0.1535
16588W        W20988   7.140   0.099   5.879 -0.0199 -0.1124 -0.1293
16589W        W20989  18.438   1.917  30.191  0.3838  0.1289 -0.0354
16590W        W20990   5.349   2.880  29.211  0.2582  0.1282  0.1124
16591W        W20991  18.597   0.959  34.751  0.1856 -0.1296  0.0379
16592W        W20992   9.360   0.563  31.277 -0.1253 -0.0986 -0.3277
16593W        W20993  17.806   1.444  35.276 -0.3078  0.1515  0.1435
16594W        W20994  11.536   2.729  28.565  0.1337 -0.0916 -0.0723
16595W        W20995   7.604   1.575  31.017 -0.2938 -0.0292 -0.1098
16596W        W20996  22.819   5.627   4.999 -0.0184  0.2786 -0.0218
16597W        W20997  20.241   1.477   3.375  0.0811 -0.0212 -0.1312
16598W        W20998   5.934   4.450   0.237 -0.2784  0.2970 -0.0523
16599W        W20999  19.845   3.140  10.590 -0.3108 -0.0627 -0.2302
16600W        W21000  21.281   0.131  25.998  0.1031  0.1231  0.1509
16601W        W21001  14.573   5.236  34.003  0.1376 -0.0095 -0.1472
16602W        W21002  25.085   4.857   9.251 -0.2031 -0.0995  0.0024
16603W        W21003  10.655   5.576  30.400 -0.3120  0.1471  0.1516
16604W        W21004  13.272   4.750   0.788  0.1259 -0.1405  0.1507
16605W        W21005   5.636   4.645  35.432  0.1561 -0.3076 -0.2501
16606W        W21006   0.468   3.257   6.367 -0.3804 -0.0159 -0.0118
16607W        W21007  18.689   3.023  23.206 -0.0642  0.2937 -0.1872
16608W        W21008   2.695   3.292  28.652 -0.1241 -0.1767  0.1860
16609W        W21009  15.284   4.897   8.439  0.0277  0.1194 -0.2742
16610W        W21010   5.160   1.717  31.420 -0.0536  0.0322 -0.1600
16611W        W21011  11.864   0.055  36.045 -0.0153  0.1127 -0.0651
16612W        W21012  10.996   0.152  25.442 -0.0180 -0.2204  0.1238
16613W        W21013  10.885   1.259   7.596 -0.2919  0.1870  0.2695
16614W        W21014  23.942   1.262  21.965 -0.0681 -0.3547 -0.0413
16615W        W21015  13.287   6.371  21.280 -0.2287  0.1696  0.0757
16616W        W21016   1.357   3.579  10.962  0.1912 -0.1062  0.1927
16617W        W21017  15.234   0.565  14.868  0.5665 -0.0801 -0.1649
16618W        W21018  17.615   5.474  32.087  0.2127 -0.0730 -0.1728
16619W        W21019  20.504   0.546   9.638 -0.1566 -0.1841  0.2114
16620W        W21020  25.976   6.291  12.429  0.0123 -0.0198  0.1787
16621W        W21021  20.261   5.365  25.009  0.2773 -0.1736 -0.1902
16622W        W21022  14.810   2.975   7.849  0.0339  0.1060 -0.4780
16623W        W21023   8.059   6.144   0.451  0.2420  0.2191 -0.1845
16624W        W21024   8.900   5.912  12.213 -0.0944  0.0067  0.2895
16625W        W21025   7.620   6.343  31.424  0.0833  0.0001  0.1170
16626W        W21026  18.687   4.663  24.698 -0.1908  0.1208  0.1179
16627W        W21027  12.156   2.606  14.965  0.1559 -0.2195 -0.1347
16628W        W21028  10.692   0.803  11.548 -0.2765 -0.1033 -0.3058
16629W        W21029  19.154   6.118  31.254  0.1074 -0.1750  0.0902
16630W        W21030   8.607   5.718  33.446  0.1027  0.4595 -0.1032
16631W        W21031   2.947   4.444  21.975 -0.2982 -0.0440  0.1924
16632W        W21032   2.632   2.271   3.994 -0.0148  0.0959 -0.1501
16633W        W21033  11.958   1.423  32.597  0.0185  0.0876  0.0658
16634W        W21034  26.408   4.410  31.904 -0.0360 -0.1587 -0.1312
16635W        W21035  15.061   0.324   1.932 -0.0845  0.3783 -0.2256
16636W        W21036  25.304   2.753   4.799 -0.0390 -0.0907 -0.1698
16637W        W21037  13.371   1.735   0.194  0.0481 -0.0270 -0.0542
16638W        W21038  18.143   4.492   9.270  0.0179  0.1029 -0.1244
16639W        W21039  22.787   2.259  35.184 -0.1634 -0.0264 -0.1466
16640W        W21040  14.341   5.908  25.110 -0.3303 -0.2243  0.0300
16641W        W21041  13.883   3.130  33.762  0.2708 -0.4211  0.1384
16642W        W21042  17.399   4.016   6.544  0.1408 -0.1742  0.0765
16643W        W21043   7.961   1.378   4.765 -0.0606  0.2039  0.0803
16644W        W21044  19.596   5.800  25.744  0.4210 -0.0846 -0.0311
16645W        W21045  18.606   2.608  26.122 -0.2266 -0.1451 -0.0897
16646W        W21046   6.263   1.605  10.199 -0.0491 -0.1743  0.0075
16647W        W21047  17.209   3.126  31.348 -0.0686  0.0107 -0.4082
16648W        W21048  19.991   0.948   5.886 -0.2377  0.3942  0.3478
16649W        W21049  13.668   5.154   7.085  0.0217  0.0645  0.0646
16650W        W21050   7.026   1.777  12.835  0.4053  0.1289 -0.0440
16651W        W21051   6.829   2.098  32.094  0.1236 -0.4723  0.2116
16652W        W21052   2.129   3.870  33.872 -0.0203 -0.2337  0.2452
16653W        W21053  12.834   1.762  11.264  0.5344  0.1463 -0.0776
16654W        W21054  11.560   5.512  34.570 -0.3441  0.1375  0.1523
16655W        W21055  25.349   6.208   7.889 -0.2746 -0.0796  0.2290
16656W        W21056  19.897   1.267  27.656 -0.0067  0.3822  0.0346
16657W        W21057   8.020   5.722  26.512 -0.3543  0.0425 -0.1005
16658W        W21058   3.481   3.186   9.131 -0.2345  0.0428 -0.0698
16659W        W21059   2.693   2.071   2.267  0.2725  0.1005 -0.0113
16660W        W21060   9.173   5.712  34.612  0.3593 -0.2381  0.1574
16661W        W21061  15.124   6.431   1.683 -0.1097 -0.2068 -0.2020
16662W        W21062   4.088   2.564   8.473  0.1905  0.0967 -0.0844
16663W        W21063   2.211   2.031   7.179  0.2692  0.3007 -0.1123
16664W        W21064  10.931   5.978  23.843 -0.0922 -0.0628  0.3097
16665W        W21065  16.839   0.346  10.606 -0.2614 -0.0362 -0.1365
16666W        W21066  22.734   3.893  34.250  0.3238 -0.1383  0.2435
16667W        W21067  21.060   5.411  15.157  0.2698  0.1892  0.1053
16668W        W21068  14.428   0.845   1.946 -0.0226  0.0870  0.0316
16669W        W21069   1.616   1.421  10.744  0.0614 -0.1435  0.1529
16670W        W21070   3.531   1.743   9.075 -0.1916  0.0629  0.0605
16671W        W21071   0.359   4.666  23.451 -0.2086 -0.2512 -0.1310
16672W        W21072  17.030   4.262  23.916  0.2455 -0.0546  0.0154
16673W        W21073  22.511   4.436   6.871 -0.2116  0.0490 -0.2143
16674W        W21074  18.893   4.841   6.447 -0.1605 -0.2966 -0.0168
16675W        W21075   3.399   1.849  33.011 -0.1023 -0.0755 -0.1532
16676W        W21076  25.122   1.085  20.950 -0.0969 -0.0796 -0.0807
16677W        W21077   3.841   0.478   8.685  0.0108 -0.0143 -0.1526
16678W        W21078   2.740   5.406  28.158  0.1206 -0.1874 -0.0709
16679W        W21079   6.059   4.441  26.861 -0.0692 -0.1069  0.1575
16680W        W21080  17.409   0.559   5.075 -0.1237  0.0672  0.2631
16681W        W21081  10.507   1.259   8.689 -0.0713  0.2580 -0.2233
16682W        W21082  11.182   1.564   9.520  0.0440  0.2196  0.1695
16683W        W21083   0.970   2.947  20.756 -0.1135 -0.1933  0.3532
16684W        W21084   2.518   4.143  33.485 -0.1396  0.3482 -0.1440
16685W        W21085  14.431   5.259  35.012 -0.2150 -0.1286 -0.1979
16686W        W21086  13.474   4.971  25.073 -0.1846 -0.1813 -0.0443
16687W        W21087  21.240   5.414  35.828 -0.0025 -0.2886  0.0515
16688W        W21088   4.354   6.371  26.343 -0.1513 -0.0491 -0.0963
16689W        W21089  22.622   0.777  10.677 -0.0000  0.2559  0.0622
16690W        W21090  14.363   0.947  15.002 -0.0553 -0.0677  0.2168
16691W        W21091  16.458   2.987  25.815  0.2111  0.0055  0.0686
16692W        W21092  23.121   6.329   2.910 -0.0501 -0.1128  0.1662
16693W        W21093  19.851   3.444   4.759 -0.3567 -0.2361 -0.0972
16694W        W21094   6.654   1.745   6.648 -0.0172  0.0495 -0.1458
16695W        W21095  16.700   5.339  20.471 -0.0478 -0.2858  0.0155
16696W        W21096   6.964   4.310   0.407  0.3440  0.1821  0.1812
16697W        W21097  23.063   1.904  10.527  0.0700 -0.0738 -0.3857
16698W        W21098   6.620   1.992   7.088  0.0832  0.0749  0.0509
16699W        W21099   5.151   6.089  11.131  0.1294  0.2057  0.3703
16700W        W21100  25.908   4.911  34.777  0.3167  0.2209  0.1853
16701W        W21101  26.239   0.000  26.813  0.0521 -0.1845 -0.0079
16702W        W21102   0.254   4.396  27.816 -0.0900 -0.1588 -0.0688
16703W        W21103  14.496   3.311  33.279 -0.3706  0.0583 -0.1230
16704W        W21104  10.855   1.582   1.753  0.2601  0.1181 -0.2253
16705W        W21105  25.671   3.548  27.683  0.0302  0.1377 -0.0052
16706W        W21106   5.814   3.354  20.837  0.1427 -0.3380 -0.2781
16707W        W21107  13.938   6.561  26.049 -0.0181  0.0203  0.2112
16708W        W21108  25.638   0.182  10.566  0.5007 -0.0225  0.1512
16709W        W21109   1.817   0.796   0.191  0.2225  0.1849  0.0963
16710W        W21110  11.511   2.567  13.012  0.4215 -0.1659  0.2643
16711W        W21111  18.787   2.106  33.714  0.0369 -0.1629 -0.1690
16712W        W21112  22.516   6.350  10.262 -0.1079 -0.0902 -0.2663
16713W        W21113  18.373   5.570   1.869 -0.1507  0.1428 -0.2208
16714W        W21114  20.081   3.283  20.866  0.1445 -0.0307  0.2130
16715W        W21115   6.569   5.988  26.767  0.0751  0.1234  0.2471
16716W        W21116  19.882   4.698  27.944  0.4455  0.3862 -0.0957
16717W        W21117  23.431   5.250   9.914  0.2215  0.1143  0.2063
16718W        W21118  26.162   0.284  10.172  0.1315 -0.3005  0.2064
16719W        W21119  15.833   0.080  14.476  0.3042  0.0809  0.1926
16720W        W21120  19.240   5.924  30.389 -0.0599  0.0006  0.2536
16721W        W21121   2.111   4.974   9.996 -0.0217 -0.0396  0.2362
16722W        W21122  22.859   4.352  31.892 -0.5300  0.0143 -0.1634
16723W        W21123  21.501   2.555  14.709  0.1227 -0.0187 -0.2658
16724W        W21124   0.918   1.048  12.791  0.1111 -0.1476  0.1174
16725W        W21125   9.392   5.134  32.308  0.0422 -0.1467  0.0602
16726W        W21126  13.078   4.460   1.829  0.1377  0.1672 -0.1034
16727W        W21127  15.402   4.089  25.635  0.2916 -0.1946 -0.1051
16728W        W21128  20.970   5.335   1.516  0.1044  0.1760 -0.4855
16729W        W21129  15.223   5.336  30.373 -0.0699  0.0579  0.1742
16730W        W21130  16.792   1.745   9.948 -0.1484 -0.1939 -0.1512
16731W        W21131  20.942   2.177  35.133 -0.3112 -0.0425 -0.2387
16732W        W21132   7.089   1.726  23.231  0.2812  0.1360 -0.1635
16733W        W21133  16.180   0.804  35.167 -0.2003 -0.5424 -0.0318
16734W        W21134  20.238   0.019  34.859  0.2226 -0.0855 -0.3065
16735W        W21135  17.208   2.111  31.362  0.0096  0.0421 -0.0301
16736W        W21136  10.625   2.271  31.745 -0.0210  0.0379 -0.0965
16737W        W21137  13.363   4.332   2.929  0.0318  0.0585  0.0631
16738W        W21138   2.028   0.654  15.134 -0.0683 -0.3129  0.1832
16739W        W21139   8.931   0.669  34.949  0.3072 -0.2785 -0.0922
16740W        W21140  19.078   0.389  27.111  0.0482 -0.0139  0.0820
16741W        W21141  11.547   4.807  27.803 -0.0709  0.1961 -0.0543
16742W        W21142  13.006   3.823  27.754  0.0945 -0.1100 -0.2826
16743W        W21143  21.925   4.486  25.234  0.2125 -0.0707  0.0124
16744W        W21144  25.861   1.068   3.860  0.0528 -0.2255 -0.0930
16745W        W21145  15.153   0.366   9.568 -0.0887 -0.1650  0.2742
16746W        W21146  14.859   6.583   7.970 -0.3021  0.0331 -0.0830
16747W        W21147  22.947   1.208  28.700 -0.1828  0.2078 -0.1339
16748W        W21148   3.411   0.708   3.170  0.3614 -0.1709  0.1447
16749W        W21149   7.019   2.724  29.885  0.1568  0.2807 -0.0908
16750W        W21150  16.385   0.614  34.227  0.1407  0.1927 -0.0161
16751W        W21151   7.692   0.066  14.961  0.0932  0.1678 -0.1386
16752W        W21152  13.250   2.726  20.999 -0.2623  0.1335  0.0077
16753W        W21153  12.696   6.174  33.649  0.1626  0.1954 -0.1386
16754W        W21154  17.407   3.350  23.930 -0.0863 -0.0531 -0.4416
16755W        W21155  16.288   4.002  31.206 -0.1511  0.0586 -0.1027
16756W        W21156  23.698   5.712   7.757  0.0145 -0.0473  0.2125
16757W        W21157  22.523   2.443  10.295 -0.0470 -0.2746 -0.1357
16758W        W21158  21.877   2.970  11.034 -0.1043 -0.0631 -0.0252
16759W        W21159  10.378   5.260  30.936  0.0175 -0.1038 -0.0979
16760W        W21160   8.688   5.080  10.602 -0.0350 -0.2323 -0.3479
16761W        W21161   7.858   0.672   5.564  0.0820  0.1890  0.1592
16762W        W21162  17.753   4.479  34.355  0.1153  0.1197  0.1780
16763W        W21163  25.943   3.434   7.886 -0.1936  0.1553 -0.1365
16764W        W21164   9.254   2.291  12.322  0.1178 -0.0292 -0.1815
16765W        W21165  20.685   1.345  32.069 -0.3943 -0.1134  0.0373
16766W        W21166  10.148   5.429  30.487 -0.0325  0.1149  0.1325
16767W        W21167  10.765   4.277  30.832  0.3696  0.2580 -0.1651
16768W        W21168  13.440   0.153  32.695  0.1471 -0.0697 -0.0943
16769W        W21169  23.616   1.478   7.306 -0.3241  0.5503  0.2099
16770W        W21170  26.173   1.766  26.113 -0.2026 -0.3127 -0.0058
16771W        W21171  15.131   5.354   3.507  0.1442  0.0055 -0.3451
16772W        W21172   4.077   5.306  14.320 -0.0702 -0.1225  0.3850
16773W        W21173  24.573   3.208   9.353 -0.2039  0.0259  0.1602
16774W        W21174   5.517   4.863  29.734 -0.3214 -0.1982 -0.0246
16775W        W21175   9.685   4.608   3.067 -0.3814 -0.0486  0.0149
16776W        W21176   0.505   5.911  23.807 -0.2102  0.0556 -0.0320
16777W        W21177  25.489   4.151  35.518 -0.3275  0.2378  0.3753
16778W        W21178   6.383   2.199  26.785  0.2325  0.0839 -0.1567
16779W        W21179   4.199   1.742  13.451  0.0412  0.2383  0.1817
16780W        W21180  18.392   3.194   6.917  0.3779  0.2725  0.0145
16781W        W21181  11.267   1.827   8.895 -0.5968  0.1589  0.1167
16782W        W21182  21.039   4.575  30.968  0.1275  0.2139 -0.2725
16783W        W21183   0.436   5.012  27.602  0.0779 -0.3784 -0.0402
16784W        W21184  12.166   2.634   3.623 -0.1256  0.2282 -0.0463
16785W        W21185   0.452   5.988  34.447  0.1193  0.4162  0.1638
16786W        W21186  15.922   2.772   9.372  0.0946 -0.1232  0.3053
16787W        W21187  23.783   0.997  29.664  0.1371  0.2444 -0.2523
16788W        W21188   5.391   5.199   1.970 -0.0229 -0.0948  0.1895
16789W        W21189  17.006   0.549  30.598 -0.0724 -0.1407  0.2530
16790W        W21190   7.984   3.628   9.185 -0.0980  0.1157  0.1393
16791W        W21191   0.691   4.211   7.811  0.2126 -0.0744 -0.3432
16792W        W21192   4.845   5.579  35.204 -0.1898  0.1760  0.0628
16793W        W21193  25.861   2.512  10.535  0.0621 -0.0677  0.2161
16794W        W21194   9.941   1.064  25.387 -0.0381 -0.1750 -0.2001
16795W        W21195  10.204   4.952  31.865  0.1027  0.0288  0.1564
16796W        W21196  18.025   5.378  32.726  0.2919 -0.1398 -0.1430
16797W        W21197   9.789   4.402  24.038  0.0587 -0.0073 -0.3226
16798W        W21198   9.951   0.086  14.648 -0.0842  0.4801 -0.0926
16799W        W21199   5.481   4.512  26.814 -0.0315 -0.0185 -0.2066
16800W        W21200  11.811   4.810  31.959 -0.1504 -0.0900 -0.1042
16801W        W21201  12.977   4.672  36.095  0.3069 -0.0589  0.0530
16802W        W21202  22.516   1.455  28.121 -0.1693  0.1220  0.0830
16803W        W21203  22.985   1.122  14.885  0.1301 -0.1112  0.3873
16804W        W21204   0.323   2.263   7.679  0.1933  0.3224  0.1807
16805W        W21205  22.890   4.332  21.900 -0.0403 -0.0877  0.0552
16806W        W21206  21.231   5.004  15.425  0.1412  0.2171 -0.0608
16807W        W21207  12.742   2.162  10.634  0.0664  0.1623 -0.1354
16808W        W21208  24.165   4.029   7.781  0.3114  0.1915 -0.1829
16809W        W21209   4.813   3.748   0.081  0.0111  0.0947  0.1290
16810W        W21210  24.490   2.298   4.371  0.0576 -0.1112  0.0934
16811W        W21211  25.225   4.611  13.127  0.0183 -0.0908  0.0207
16812W        W21212  16.528   3.289  22.689  0.2609 -0.2031  0.1329
16813W        W21213   8.408   3.139   2.899  0.0845 -0.3802  0.1214
16814W        W21214   0.609   0.752  23.612 -0.1565  0.1718 -0.0430
16815W        W21215   7.096   2.330  34.762  0.0005 -0.2969  0.0720
16816W        W21216  17.168   2.166  35.484  0.1223 -0.2530  0.1741
16817W        W21217   1.057   6.049  32.068 -0.2203  0.1652  0.1997
16818W        W21218  25.285   1.611  30.683  0.1021  0.3973 -0.2364
16819W        W21219   0.091   1.463  12.383  0.3213 -0.0228 -0.2071
16820W        W21220  13.348   3.754  33.448 -0.1272  0.1129  0.0352
16821W        W21221  24.437   1.015   2.046  0.0191 -0.2426  0.0498
16822W        W21222  13.554   1.739  35.187  0.0027 -0.0585  0.0227
16823W        W21223  12.971   1.653   1.183  0.2907 -0.1309 -0.0365
16824W        W21224   4.108   1.210   2.845 -0.0165 -0.0166 -0.2920
16825W        W21225  20.688   5.552  24.148 -0.1963  0.2933 -0.0209
16826W        W21226  22.879   5.116  11.394  0.3550 -0.0690 -0.0038
16827W        W21227   4.251   6.094   2.542 -0.1884  0.1084  0.0687
16828W        W21228  23.454   2.601  34.377 -0.2372  0.3145 -0.1832
16829W        W21229  15.667   1.445  30.889 -0.0770  0.0916  0.2135
16830W        W21230  11.536   0.439  13.858  0.2487  0.0886  0.0344
16831W        W21231  21.589   4.566  33.413 -0.0096  0.1927  0.2858
16832W        W21232   4.889   4.472   9.993  0.1050  0.3089  0.0363
16833W        W21233  19.162   5.510  28.444  0.1623  0.0030  0.1063
16834W        W21234   8.775   2.418  14.630  0.0748  0.0819 -0.0447
16835W        W21235  23.507   3.155  14.835  0.0307 -0.0233  0.0848
16836W        W21236   4.845   0.003   3.774 -0.1973  0.3352 -0.0783
16837W        W21237  22.119   1.359  12.845 -0.1504 -0.2846 -0.0340
16838W        W21238   1.224   0.661  10.769 -0.1810  0.1470 -0.1052
16839W        W21239  21.729   1.827   7.319 -0.0365 -0.0191 -0.1109
16840W        W21240  24.225   5.065  11.676  0.0660  0.0534  0.0994
16841W        W21241  22.513   2.827  14.785  0.0749  0.3365  0.2804
16842W        W21242  23.787   4.393   3.305  0.2626  0.0261 -0.1240
16843W        W21243   2.588   2.950  30.846 -0.3786  0.2480 -0.0379
16844W        W21244  11.724   3.351  10.550 -0.2766 -0.2320 -0.1659
16845W        W21245  18.098   3.878  22.351 -0.1601 -0.1322  0.1888
16846W        W21246   5.630   0.760  33.483  0.1347  0.2472 -0.0439
16847W        W21247   8.967   3.871  25.522  0.1898 -0.1394  0.1228
16848W        W21248  12.247   5.295  28.229 -0.0488  0.2336  0.2241
16849W        W21249   7.564   1.824  15.034  0.1460  0.3426 -0.0278
16850W        W21250  14.622   0.369  35.610  0.3012 -0.0207 -0.0891
16851W        W21251  20.525   0.780  20.927  0.0853 -0.0723  0.0494
16852W        W21252  20.631   4.987  33.241 -0.0269  0.0943 -0.1214
16853W        W21253  19.651   0.933   8.165 -0.0890  0.0542 -0.3076
16854W        W21254   8.985   2.279  23.822  0.0018  0.1814  0.0014
16855W        W21255  15.091   2.028  29.413 -0.0660  0.1250  0.2383
16856W        W21256   7.404   0.635   5.840  0.0796  0.0667  0.3482
16857W        W21257  24.726   3.473  10.281  0.0665  0.0978  0.0781
16858W        W21258  15.590   0.592   9.372 -0.2776  0.0411 -0.0727
16859W        W21259   6.197   3.771  31.993  0.2747  0.0265  0.0354
16860W        W21260  24.192   4.096  11.098  0.1652 -0.0393  0.0601
16861W        W21261  26.372   1.566   7.240 -0.0103 -0.1484  0.1640
16862W        W21262  13.493   5.295  27.650 -0.1252  0.1361 -0.0230
16863W        W21263  22.489   4.759  30.210  0.0327 -0.2541  0.2169
16864W        W21264   2.996   4.943  11.839 -0.3360 -0.1391  0.1374
16865W        W21265   9.172   4.424   0.685  0.3132 -0.0794 -0.0526
16866W        W21266   4.979   1.462  30.953  0.3563  0.0167  0.0674
16867W        W21267  17.096   0.945  24.895 -0.1678 -0.1129 -0.1194
16868W        W21268  21.994   2.308  14.687  0.0990  0.0427 -0.4242
16869W        W21269   3.734   4.864  13.229 -0.0967  0.4140 -0.2379
16870W        W21270  10.680   2.211  27.023 -0.1068 -0.2037  0.0016
16871W        W21271  24.659   5.238  13.140  0.3170 -0.0330 -0.1157
16872W        W21272  17.551   0.742  22.922 -0.0610 -0.3887  0.1088
16873W        W21273   2.044   1.122  13.416 -0.1928  0.3436  0.1518
16874W        W21274  10.366   1.756  21.146 -0.3420  0.1301  0.0743
16875W        W21275   7.871   1.254  12.974  0.1772 -0.2468  0.0051
16876W        W21276  22.162   6.495   0.568 -0.0226 -0.2446 -0.0929
16877W        W21277  25.776   2.736   4.193 -0.0025  0.0989  0.3270
16878W        W21278   1.969   1.039   7.333  0.2836 -0.0729 -0.1551
16879W        W21279   3.993   5.426  31.328 -0.1727  0.0935 -0.3743
16880W        W21280  19.445   6.169  29.191 -0.3311 -0.0039  0.0637
16881W        W21281   6.923   0.787  30.759  0.1871 -0.0269 -0.2194
16882W        W21282   0.281   1.701   2.728 -0.1667 -0.0173 -0.0117
16883W        W21283  16.759   2.880   6.423 -0.0082  0.0751 -0.0401
16884W        W21284   1.587   4.515  34.392  0.0106  0.1460 -0.0808
16885W        W21285   0.567   3.960   9.776  0.2655  0.0676  0.0970
16886W        W21286  17.117   1.564  12.094 -0.0377  0.0383  0.2058
16887W        W21287  13.471   0.090  25.366 -0.0172 -0.2414  0.2035
16888W        W21288   7.995   3.606  33.911  0.0216 -0.1077 -0.2164
16889W        W21289   8.407   0.524  13.291  0.1041  0.0750 -0.3358
16890W        W21290  10.395   3.161  27.223 -0.3126  0.2104 -0.0220
16891W        W21291   0.352   5.467  35.258 -0.1618  0.1491  0.1083
16892W        W21292  24.791   1.334  14.955 -0.1258  0.0936  0.1820
16893W        W21293  18.390   5.840  24.398  0.2657  0.1827  0.2336
16894W        W21294   8.677   4.475  35.909  0.2537 -0.0227 -0.2365
16895W        W21295  20.215   1.423  25.639  0.0098 -0.1851 -0.3558
16896W        W21296  12.838   3.085  28.608 -0.2310  0.1045  0.0289
16897W        W21297   9.868   4.293   8.188  0.1209 -0.1124  0.0455
16898W        W21298   1.507   6.236  32.326 -0.0944 -0.0185  0.1094
16899W        W21299   6.241   3.401   6.942  0.1201 -0.0063 -0.2596
16900W        W21300  20.584   2.102  29.374 -0.0503  0.1395 -0.1222
16901W        W21301  16.772   1.806  34.604 -0.2803  0.0317 -0.1959
16902W        W21302  12.660   1.534   6.278  0.1407 -0.2363 -0.1010
16903W        W21303  12.747   6.212  11.278  0.0213  0.0725  0.1073
16904W        W21304   6.908   1.111  12.079 -0.1168  0.1921  0.0611
16905W        W21305  22.443   1.415   0.192 -0.2519  0.0270 -0.0316
16906W        W21306  14.157   5.016  30.867  0.1694  0.4511  0.0129
16907W        W21307   3.132   2.702  30.775  0.4079  0.0044 -0.1855
16908W        W21308  13.958   4.469  15.550 -0.0649  0.1428 -0.4505
16909W        W21309  20.142   3.756  20.760 -0.0480 -0.2342  0.1454
16910W        W21310  12.991   3.502  28.329  0.0002  0.0465 -0.0964
16911W        W21311  13.911   6.002  33.124 -0.0733  0.1064  0.0398
16912W        W21312  19.737   5.503   6.743 -0.0486 -0.0946 -0.1272
16913W        W21313  14.766   0.809  35.829 -0.0189  0.0966  0.0136
16914W        W21314   3.666   0.186  27.152 -0.1115 -0.0513 -0.0420
16915W        W21315  19.912   0.026  28.513 -0.1863 -0.0979  0.0026
16916W        W21316   5.786   3.054   7.791  0.1185 -0.1367  0.1631
16917W        W21317  22.670   2.718   6.802 -0.0314 -0.1656  0.0431
16918W        W21318   0.346   1.811   8.098 -0.0326  0.1886 -0.1992
16919W        W21319  20.265   4.042   9.351  0.0296  0.1276  0.0477
16920W        W21320   0.489   2.496  33.399  0.1393  0.2434  0.1515
16921W        W21321  18.855   2.522  24.961 -0.3135  0.1685  0.2343
16922W        W21322   7.563   3.165   6.213 -0.1301  0.1978  0.1280
16923W        W21323  25.934   0.806  23.227  0.2702  0.0622 -0.0067
16924W        W21324   4.532   4.568   1.208  0.1487  0.1373  0.3218
16925W        W21325   9.295   5.389  27.004  0.0394 -0.0900 -0.0572
16926W        W21326  14.470   0.673   2.924  0.2814  0.1041 -0.2026
16927W        W21327  19.429   0.235  33.910  0.0625 -0.1436  0.0763
16928W        W21328   5.954   1.037  10.961 -0.0964  0.1094  0.2743
16929W        W21329  15.111   0.662  21.556 -0.1964  0.2333 -0.0917
16930W        W21330   0.882   0.722  30.603  0.0639  0.0809  0.0593
16931W        W21331  19.235   6.422  29.532  0.0094 -0.1817  0.3087
16932W        W21332  25.963   1.198  14.950 -0.1200 -0.1056 -0.3302
16933W        W21333   5.171   1.240  24.961  0.1211 -0.0679 -0.0671
16934W        W21334   8.565   0.411  12.330  0.2960 -0.0201  0.2883
16935W        W21335  14.039   2.029  24.645  0.2938 -0.1853 -0.3015
16936W        W21336  16.933   2.740  15.477  0.3043  0.0735  0.0077
16937W        W21337  25.574   0.936   8.408 -0.0764  0.0858 -0.0761
16938W        W21338  14.531   0.620  25.768 -0.0640  0.0468 -0.0634
16939W        W21339  18.104   6.150  12.229 -0.2183  0.6266  0.1183
16940W        W21340  16.921   5.218  35.356 -0.3753  0.0109  0.1785
16941W        W21341  18.068   1.145  27.550 -0.0902 -0.0807 -0.0009
16942W        W21342  22.250   2.464   7.092  0.0122 -0.3060  0.0470
16943W        W21343  25.175   6.112  31.973 -0.1220 -0.0343  0.1821
16944W        W21344  16.851   2.522  10.575 -0.1330  0.0876 -0.2902
16945W        W21345  15.509   6.588  14.110  0.0620 -0.0665 -0.1999
16946W        W21346  12.417   6.377   5.415 -0.1948  0.0548 -0.0108
16947W        W21347   1.684   2.541  10.920  0.1401  0.1515 -0.0413
16948W        W21348  17.326   3.928  13.318 -0.1324  0.1309 -0.2492
16949W        W21349   2.769   2.870  25.689 -0.0295  0.0038 -0.0944
16950W        W21350  22.167   5.328   6.977 -0.1871 -0.1196  0.1449
16951W        W21351   1.874   3.885  25.385 -0.1039  0.2860  0.2082
16952W        W21352  22.910   0.137   1.070 -0.1354  0.0998 -0.3682
16953W        W21353  14.032   1.052  14.584 -0.2568 -0.2563  0.0880
16954W        W21354   1.228   3.779   7.397  0.1319 -0.1731  0.2035
16955W        W21355  17.900   1.305  29.258 -0.1199  0.1377  0.1784
16956W        W21356   8.037   2.845  35.628 -0.0770  0.2554 -0.1335
16957W        W21357   2.216   1.994   7.704 -0.0327  0.1163  0.0672
16958W        W21358  19.842   2.024  35.880  0.2112  0.1309  0.0660
16959W        W21359   2.256   6.313  28.543  0.1682 -0.2202  0.1840
16960W        W21360   0.884   4.056  20.851 -0.1307  0.1147 -0.0478
16961W        W21361  26.388   3.883  26.338  0.2385 -0.2230  0.1669
16962W        W21362  13.436   0.080  14.510 -0.1251  0.2961  0.1259
16963W        W21363   6.594   3.488  27.652 -0.0665  0.0474 -0.0781
16964W        W21364  10.186   4.462   4.763 -0.0380 -0.1852  0.1122
16965W        W21365  19.191   4.567  20.318  0.0021  0.0191 -0.0491
16966W        W21366  12.813   5.394  34.949 -0.0445  0.1423 -0.1183
16967W        W21367  19.591   5.052   7.877  0.0072 -0.0175 -0.0830
16968W        W21368  23.088   4.806  24.724 -0.3264 -0.2080  0.1188
16969W        W21369  14.382   6.023  13.572 -0.2786 -0.0541 -0.0992
16970W        W21370   8.937   4.377  25.302 -0.0739  0.1952 -0.0061
16971W        W21371  17.244   5.607  29.744 -0.4835 -0.1747 -0.1950
16972W        W21372  15.950   3.990  34.820 -0.0765 -0.0225  0.0421
16973W        W21373   0.766   2.984  32.599  0.3561 -0.0410 -0.2860
16974W        W21374  23.441   5.740  34.515  0.1519 -0.2991 -0.1767
16975W        W21375   1.986   2.806  26.408 -0.0783 -0.1208  0.1233
16976W        W21376  16.762   3.488  21.660 -0.0121 -0.1540 -0.0448
16977W        W21377  10.726   0.110  21.315 -0.0463 -0.0627  0.0929
16978W        W21378  21.724   2.271  21.212  0.1460 -0.0905  0.1225
16979W        W21379  16.039   4.708  13.117  0.3715 -0.0470 -0.0047
16980W        W21380   8.922   5.752   4.615 -0.2389 -0.0320 -0.2415
16981W        W21381  12.047   2.924   4.624 -0.2440 -0.0157 -0.2263
16982W        W21382  11.089   0.993  16.250 -0.1507 -0.0152  0.0418
16983W        W21383  17.068   3.403   9.054 -0.0162  0.3021 -0.1861
16984W        W21384   7.593   1.257  23.976 -0.1068  0.0922  0.1501
16985W        W21385   8.466   5.691   1.176 -0.0914  0.2702 -0.2673
16986W        W21386   6.417   5.160  29.839 -0.0857  0.3133  0.3234
16987W        W21387  11.298   1.400  11.664 -0.1706  0.1032 -0.0730
16988W        W21388  17.941   6.487  10.342 -0.2455  0.2514  0.1200
16989W        W21389   0.736   0.680   6.145  0.4314 -0.0568  0.0906
16990W        W21390  14.381   5.151   7.453  0.1428 -0.1346  0.1722
16991W        W21391   9.284   4.757   2.298 -0.1390  0.3470  0.1180
16992W        W21392   4.073   3.956   9.645 -0.1803 -0.1992  0.1232
16993W        W21393   1.768   5.584  26.844 -0.4286  0.2059 -0.1701
16994W        W21394  15.929   2.716  21.835 -0.1691  0.1630 -0.2744
16995W        W21395   3.736   2.046  28.931  0.3958  0.3563 -0.1549
16996W        W21396  15.171   3.930  27.305 -0.0021  0.0126 -0.2645
16997W        W21397   8.335   0.876   2.487  0.0703  0.1046  0.0370
16998W        W21398   4.834   2.476   3.712 -0.1902 -0.2455 -0.1484
16999W        W21399  18.369   6.524  25.176  0.1970  0.2460 -0.0516
17000W        W21400   4.829   1.066   9.038 -0.0097 -0.1501  0.2904
17001W        W21401   7.844   4.825  30.395  0.4659  0.0910 -0.2855
17002W        W21402   0.386   3.237  27.536 -0.1826 -0.0229  0.0132
17003W        W21403  21.464   5.383  24.627 -0.0110  0.1747 -0.1911
17004W        W21404  23.565   3.370  35.141  0.0099  0.1700 -0.1763
17005W        W21405   0.154   4.532   9.311  0.1462  0.0429  0.1138
17006W        W21406  13.640   5.009  29.134  0.2650 -0.1482  0.0008
17007W        W21407  23.623   3.409  24.615 -0.0315  0.1257  0.1024
17008W        W21408  15.102   2.966  14.138  0.0585  0.1671  0.1536
17009W        W21409  13.465   3.923  22.278  0.0776 -0.0934 -0.0871
17010W        W21410  24.967   2.854  32.133 -0.0102  0.1360  0.5009
17011W        W21411   5.997   0.953  30.538  0.1023 -0.1336  0.1311
17012W        W21412   8.859   1.022  14.155  0.2191  0.0134  0.0516
17013W        W21413  12.445   5.544  32.646  0.0963 -0.0255 -0.2884
17014W        W21414  25.551   4.719  10.524 -0.1338 -0.0258 -0.1745
17015W        W21415  22.698   5.037  11.897  0.0375  0.1011 -0.5812
17016W        W21416  24.778   2.849  23.095  0.1054  0.1217  0.0219
17017W        W21417  18.400   3.574  11.413 -0.1490 -0.1213 -0.1829
17018W        W21418  21.421   0.518  21.195  0.0841 -0.1943 -0.1459
17019W        W21419  18.360   0.394  33.796  0.2070 -0.3873  0.1417
17020W        W21420  16.792   5.744   8.462 -0.0864 -0.1542 -0.2264
17021W        W21421  15.620   5.746  33.940  0.0759 -0.0265 -0.3166
17022W        W21422  12.790   1.110  35.381  0.1765 -0.2047  0.1227
17023W        W21423  13.334   1.960  29.399  0.2568  0.1981 -0.0368
17024W        W21424   7.710   0.670  31.978  0.0850 -0.1433 -0.0968
17025W        W21425  12.322   2.557  34.329  0.1174  0.1150  0.1777
17026W        W21426  15.161   1.855   9.148  0.0470  0.1030 -0.0786
17027W        W21427  15.117   0.789  24.201  0.0359 -0.0483  0.0510
17028W        W21428   3.102   0.442  32.687  0.2016  0.0235 -0.1295
17029W        W21429   8.752   6.239   5.665 -0.0385 -0.2934  0.1973
17030W        W21430   1.466   5.805   7.208 -0.3101 -0.1240  0.1458
17031W        W21431  15.132   4.486   1.068 -0.0213  0.2985  0.1051
17032W        W21432   1.753   5.000  33.008  0.2566 -0.0266 -0.1672
17033W        W21433  11.334   0.193  34.962  0.4046 -0.1175  0.0497
17034W        W21434   7.674   4.481  35.013  0.3407  0.2753 -0.0149
17035W        W21435   7.026   1.608   7.008 -0.0826 -0.1261  0.2114
17036W        W21436  14.216   4.586  31.689  0.0351  0.3374 -0.0008
17037W        W21437   5.698   2.420  35.295  0.0029 -0.2458 -0.1396
17038W        W21438   1.958   3.209  22.350 -0.1699  0.0911 -0.2610
17039W        W21439  24.727   4.576  27.443  0.2583  0.2860 -0.0270
17040W        W21440  17.431   6.042  30.093  0.0271  0.1369 -0.1163
17041W        W21441   4.649   6.009  22.375 -0.0099 -0.0174 -0.1434
17042W        W21442  24.909   5.668   8.659  0.0182 -0.1707  0.1855
17043W        W21443  10.034   4.938  21.307  0.1357  0.0151  0.1936
17044W        W21444  15.680   2.044  28.520 -0.3251  0.2840 -0.1338
17045W        W21445   7.674   2.970   3.388  0.2219 -0.3109  0.1031
17046W        W21446  14.877   4.074  33.243  0.1759  0.0142 -0.1015
17047W        W21447  18.106   0.617  27.902  0.1513  0.0544  0.0198
17048W        W21448  19.407   1.583  22.844  0.0124  0.1417  0.1714
17049W        W21449   2.706   6.096  22.161  0.1384  0.0414  0.1331
17050W        W21450  13.171   3.593   9.125 -0.0334  0.1297 -0.0567
17051W        W21451   0.561   6.044  26.306  0.1048  0.2412  0.0048
17052W        W21452   6.564   0.076   8.638 -0.1128 -0.0905  0.0614
17053W        W21453   0.661   4.730   1.528  0.0814  0.2019 -0.1445
17054W        W21454  23.080   3.982  26.306  0.0115  0.0480 -0.0937
17055W        W21455  12.710   3.664  24.398  0.1100  0.0954 -0.0875
17056W        W21456  10.429   4.388  34.639  0.2145  0.2075 -0.1089
17057W        W21457  16.213   4.886  20.663 -0.1877 -0.0485  0.1434
17058W        W21458  21.032   2.329  25.367  0.2098  0.2152  0.2246
17059W        W21459  18.043   6.231  34.079 -0.1274  0.0502 -0.1009
17060W        W21460   1.561   3.393   5.654 -0.2358 -0.1550 -0.1587
17061W        W21461  24.607   5.670  23.909  0.0672 -0.2747  0.0327
17062W        W21462   7.632   4.290  25.676  0.1182  0.1106 -0.0842
17063W        W21463   6.799   4.672   0.081  0.0179 -0.4728 -0.0377
17064W        W21464   3.020   0.064   7.013  0.2149 -0.0106 -0.1851
17065W        W21465  19.847   3.869  28.896  0.0160 -0.1748 -0.0835
17066W        W21466  25.977   3.649  34.462 -0.0008  0.0501 -0.1497
17067W        W21467  18.564   1.487  26.445 -0.2088 -0.1479 -0.1794
17068W        W21468   9.071   0.518   5.992  0.1468 -0.3143  0.0171
17069W        W21469   3.642   2.631  31.692 -0.2035 -0.0907  0.0884
17070W        W21470  10.779   1.482   0.107  0.0957 -0.0270  0.1760
17071W        W21471  11.947   3.861  24.115  0.0130 -0.0710 -0.0678
17072W        W21472  15.285   4.401  33.101  0.2110 -0.0792  0.1355
17073W        W21473  10.281   6.449   1.531  0.0153 -0.0985  0.1608
17074W        W21474  16.739   2.958  26.232  0.0743  0.0643  0.0992
17075W        W21475  26.393   1.451  21.232 -0.0873 -0.1260 -0.0416
17076W        W21476  26.194   4.012  11.002 -0.0118 -0.1936  0.3177
17077W        W21477  25.885   0.183   8.174 -0.0346  0.2918 -0.0667
17078W        W21478   8.886   3.334  22.583 -0.1327 -0.1012 -0.2259
17079W        W21479  11.924   0.505  15.464 -0.3111 -0.2573  0.1326
17080W        W21480   4.393   2.317  25.998  0.0443  0.3688  0.0352
17081W        W21481  21.109   5.937  34.725  0.0735 -0.3212  0.4095
17082W        W21482  13.668   5.465  29.706  0.0286 -0.1449  0.1363
17083W        W21483  12.384   5.375   4.274  0.0059 -0.1598 -0.1839
17084W        W21484   6.829   4.053  35.538 -0.1289 -0.1357  0.1030
17085W        W21485  24.872   4.653  33.316 -0.0704  0.2648  0.2214
17086W        W21486  25.773   4.271  29.980  0.0492 -0.1930  0.3315
17087W        W21487  19.574   0.085  31.495  0.0226  0.1425 -0.1905
17088W        W21488  22.011   4.536  24.559 -0.1482  0.2084 -0.0021
17089W        W21489   3.021   2.215   7.309 -0.4781  0.1000  0.1409
17090W        W21490   6.764   5.942  33.665 -0.0299 -0.0393  0.1058
17091W        W21491  10.072   5.576  11.692 -0.0192  0.0722 -0.0213
17092W        W21492  19.889   0.192  23.289 -0.0613 -0.0708  0.0120
17093W        W21493  21.419   4.332  36.081 -0.0277 -0.1573  0.0223
17094W        W21494   9.123   0.071  27.016  0.1205 -0.1190  0.0686
17095W        W21495   5.429   5.674   7.739 -0.2161 -0.2194  0.0398
17096W        W21496  12.928   1.745   0.644 -0.0584 -0.0597 -0.0882
17097W        W21497  17.661   2.868  30.228  0.2382  0.0488 -0.0180
17098W        W21498   2.185   3.238   5.914  0.1600  0.0629 -0.0859
17099W        W21499  24.679   2.003  21.298  0.0594 -0.0285 -0.1055
17100W        W21500  26.371   0.839  26.805 -0.0251 -0.1410 -0.0116
17101W        W21501  14.976   2.143   3.718  0.0691  0.0342  0.2602
17102W        W21502  25.804   2.085   2.796  0.1998 -0.0838  0.0789
17103W        W21503  16.152   1.779  23.310 -0.0183 -0.3844  0.1623
17104W        W21504  18.875   3.115  35.699 -0.1517  0.0880  0.0847
17105W        W21505  18.238   5.564  25.257  0.0826  0.2295 -0.2520
17106W        W21506  13.402   3.244  26.959 -0.0974 -0.0039 -0.2226
17107W        W21507   2.284   4.767  25.148  0.0089 -0.0405 -0.0081
17108W        W21508  16.372   4.510  28.544 -0.2799 -0.0985  0.1125
17109W        W21509   5.868   0.042   0.849 -0.1491 -0.1825  0.0047
17110W        W21510   8.222   2.337  28.101  0.1987 -0.0844 -0.0685
17111W        W21511  15.181   0.210   4.480 -0.0018  0.0791 -0.0589
17112W        W21512  22.690   4.683   9.193 -0.1074 -0.0199  0.2013
17113W        W21513   9.603   0.602  27.877 -0.0568 -0.1330 -0.1809
17114W        W21514  22.115   1.292   9.962 -0.1778  0.1618  0.2607
17115W        W21515  21.025   1.732  31.964 -0.2308 -0.1870 -0.1605
17116W        W21516  13.058   2.368  29.738 -0.1511  0.0279 -0.1763
17117W        W21517   4.759   0.746  34.680  0.0164  0.0773  0.0720
17118W        W21518  18.749   3.910  32.224  0.2511  0.0318 -0.3402
17119W        W21519  12.391   2.654  27.238 -0.0536 -0.0776  0.0724
17120W        W21520   0.079   4.118   5.022 -0.1464  0.2994 -0.0755
17121W        W21521   2.844   2.406  27.875  0.0475 -0.0157  0.2898
17122W        W21522  19.559   1.151  33.647 -0.1441 -0.0964  0.0834
17123W        W21523  22.910   0.505   0.243  0.2233  0.1472 -0.1172
17124W        W21524  19.961   4.845  29.863  0.0882 -0.1155  0.0153
17125W        W21525  23.405   0.437   0.424 -0.1140 -0.2441  0.2638
17126W        W21526  10.339   1.382   1.185 -0.2881 -0.1183 -0.0553
17127W        W21527  24.585   5.907  34.438 -0.0058 -0.1153  0.1364
17128W        W21528  21.019   2.056  27.013 -0.1421 -0.1201 -0.1648
17129W        W21529  10.461   4.879   0.832  0.3620  0.1413  0.2378
17130W        W21530   0.927   5.835   5.544 -0.0759 -0.2293  0.2255
17131W        W21531  16.799   3.781  13.400 -0.0759  0.1131  0.2275
17132W        W21532   3.750   5.052  13.695  0.0891 -0.1379 -0.2030
17133W        W21533   2.621   2.669  20.587 -0.1591  0.1361  0.1259
17134W        W21534   0.959   3.846  14.172  0.1984 -0.1512 -0.1261
17135W        W21535  10.512   3.518   6.019 -0.0186  0.1453 -0.0154
17136W        W21536  20.028   2.589   3.024 -0.0312 -0.2211 -0.3223
17137W        W21537   0.095   5.586  13.813 -0.2915 -0.1249 -0.3163
17138W        W21538  16.344   1.498  13.294  0.0492  0.1872  0.1404
17139W        W21539   3.323   4.865  28.045 -0.4839  0.1603  0.0306
17140W        W21540  12.247   5.884   9.694 -0.1677 -0.1169  0.1251
17141W        W21541  12.496   1.470   0.404 -0.0330 -0.0081 -0.1390
17142W        W21542  20.706   0.995   9.876 -0.1674 -0.1150 -0.0063
17143W        W21543  19.142   2.717  34.625 -0.0249 -0.2338 -0.1147
17144W        W21544  19.164   1.005   8.967 -0.0749 -0.1076  0.3588
17145W        W21545  13.339   0.777  30.200 -0.0937 -0.2737  0.0600
17146W        W21546   4.201   5.815  33.422  0.1284 -0.2623 -0.1717
17147W        W21547  23.954   0.862  34.994  0.1540  0.1245  0.0302
17148W        W21548   9.708   2.506  26.370 -0.0083  0.3658  0.1556
17149W        W21549  23.027   4.786   0.615  0.2172 -0.1567  0.1593
17150W        W21550   2.904   2.602  11.583  0.3173 -0.3808 -0.2295
17151W        W21551   3.056   2.186  29.937 -0.3084  0.0133  0.0497
17152W        W21552  23.014   0.445   2.195  0.1788  0.0307  0.1817
17153W        W21553   1.592   3.799   6.922  0.1818 -0.2056 -0.0202
17154W        W21554   3.946   5.857  21.115  0.2971 -0.0672  0.2070
17155W        W21555   8.619   4.962   0.016  0.0085 -0.0806 -0.3778
17156W        W21556  19.186   4.571  28.535 -0.0442  0.2439 -0.2308
17157W        W21557  16.618   0.427  15.312  0.0116 -0.1777 -0.0154
17158W        W21558  24.981   3.753   7.476  0.0438  0.1118 -0.0997
17159W        W21559  12.761   5.311   3.054  0.1485 -0.0045 -0.2885
17160W        W21560  19.755   4.775  25.776 -0.1214 -0.3567 -0.0013
17161W        W21561  20.198   6.147  32.905 -0.0353  0.0014 -0.0182
17162W        W21562  15.207   0.519  34.119 -0.0095 -0.0133  0.5503
17163W        W21563  10.942   1.167  11.914 -0.0198 -0.1423 -0.0975
17164W        W21564  14.514   6.323  24.091 -0.1112  0.0882  0.2233
17165W        W21565  11.916   0.890  20.789  0.2406 -0.0265 -0.0904
17166W        W21566  18.885   1.860   0.543 -0.1397 -0.2190  0.3235
17167W        W21567  17.595   2.832  12.462  0.3198  0.2519 -0.2515
17168W        W21568  20.217   6.408  23.595  0.0603 -0.1846  0.0334
17169W        W21569  13.430   1.684   6.644 -0.0303 -0.0829  0.1802
17170W        W21570  23.838   6.539   3.347  0.0347 -0.0874  0.1639
17171W        W21571  11.798   0.023  13.809  0.1037  0.1156  0.2092
17172W        W21572  16.405   2.104  22.522 -0.1909  0.1443  0.0990
17173W        W21573   1.310   2.108   4.088  0.0573 -0.2652 -0.0590
17174W        W21574   4.317   6.429   8.301  0.0147  0.1108  0.1550
17175W        W21575  17.389   2.526   5.783 -0.0989  0.1629  0.1753
17176W        W21576   3.465   5.586  23.770 -0.3657 -0.0848  0.2320
17177W        W21577   1.245   5.852   3.552 -0.0348  0.0789  0.0891
17178W        W21578  12.705   5.520   0.763  0.2995 -0.4008  0.1881
17179W        W21579   5.392   0.925   5.753  0.0320 -0.1875 -0.2977
17180W        W21580  12.770   1.846  24.593  0.2687  0.4138 -0.0525
17181W        W21581   4.166   1.744  23.537  0.1116 -0.1562 -0.0320
17182W        W21582   9.364   0.430  34.260 -0.1670  0.0555  0.1741
17183W        W21583  16.948   4.682  21.632 -0.0469 -0.1361 -0.1258
17184W        W21584   3.617   4.905   3.706  0.1956  0.0132 -0.1733
17185W        W21585  11.890   3.043   5.043  0.0577  0.0952 -0.2539
17186W        W21586  18.997   4.155  25.543 -0.0908 -0.1998  0.0719
17187W        W21587  20.086   1.793  22.673 -0.0329  0.2085 -0.1478
17188W        W21588   6.139   3.488  21.315  0.1324  0.1120  0.1465
17189W        W21589  25.410   2.035   2.490  0.0951  0.0922  0.1015
17190W        W21590  13.737   3.724   6.858 -0.3623  0.3352 -0.0254
17191W        W21591   3.283   2.319   9.565 -0.2159 -0.1253 -0.1202
17192W        W21592   3.097   5.721  21.103 -0.0395 -0.0458  0.0467
17193W        W21593  20.989   3.236  30.675 -0.1782  0.0646  0.0218
17194W        W21594  18.184   2.711  25.828  0.0933  0.0665  0.1824
17195W        W21595   2.464   3.350  14.991 -0.1801  0.1003  0.1451
17196W        W21596  17.889   6.444   4.018 -0.0506 -0.1680  0.2468
17197W        W21597   4.856   6.500  32.273  0.0671 -0.0477 -0.0739
17198W        W21598   2.319   3.138  28.312  0.0095 -0.3675 -0.0720
17199W        W21599   1.331   3.087  29.058 -0.1980 -0.1026 -0.0436
17200W        W21600  22.592   2.272  32.711  0.1096  0.1355 -0.1172
17201W        W21601   0.576   5.499  29.077  0.0318 -0.1246 -0.0694
17202W        W21602   5.330   5.734  13.039  0.2749 -0.3379 -0.0065
17203W        W21603  12.817   2.412   7.014 -0.1917  0.0715  0.1287
17204W        W21604  24.923   3.522  24.479  0.0417 -0.3797 -0.0198
17205W        W21605  23.557   3.848  35.513  0.0141 -0.0406 -0.1986
17206W        W21606  15.477   3.284  28.118 -0.0225 -0.0893  0.3025
17207W        W21607   0.764   3.941  30.962  0.2757 -0.0269  0.0131
17208W        W21608   4.775   5.577   1.725  0.2144 -0.3353  0.0325
17209W        W21609  25.151   2.704   6.329 -0.2269  0.3580 -0.0296
17210W        W21610  14.086   2.824  23.084  0.1566  0.0460  0.1168
17211W        W21611   0.758   2.551   4.301 -0.2639 -0.1519 -0.2005
17212W        W21612   5.533   1.085  30.752 -0.1939 -0.0260 -0.1337
17213W        W21613   3.349   4.600  33.760 -0.2612  0.0580 -0.0971
17214W        W21614  10.955   3.527   0.863 -0.0216 -0.0768  0.0380
17215W        W21615  21.440   2.129   4.861 -0.2986  0.0848 -0.0202
17216W        W21616  14.257   1.047  24.102 -0.1007 -0.2352 -0.1181
17217W        W21617  21.179   6.593  26.874 -0.0083  0.1473  0.2923
17218W        W21618  23.435   4.928   2.118 -0.1050 -0.1251  0.3410
17219W        W21619  24.339   1.767   1.383 -0.0008 -0.0168  0.0673
17220W        W21620  12.685   0.710  13.124 -0.0230 -0.1636 -0.0148
17221W        W21621   6.778   5.059  25.862 -0.0196 -0.0449  0.2285
17222W        W21622  21.064   1.361   8.156  0.0340 -0.1553 -0.3227
17223W        W21623  12.464   4.700  14.570  0.1040  0.1393 -0.2298
17224W        W21624  16.218   2.944  25.106 -0.0925 -0.0885 -0.1906
17225W        W21625  25.594   0.635  35.726 -0.0565  0.1801  0.0995
17226W        W21626  23.150   2.115  11.088 -0.0290  0.3477  0.2133
17227W        W21627  23.456   5.038   6.895 -0.0644  0.0207  0.1913
17228W        W21628  25.361   2.894  23.796  0.1707  0.0417  0.0229
17229W        W21629   4.112   0.520  10.422 -0.3204  0.0003  0.0153
17230W        W21630  26.186   3.240  21.644 -0.0706  0.1251 -0.3068
17231W        W21631  23.200   4.355   8.936  0.0718 -0.0939 -0.0906
17232W        W21632   0.990   3.339  12.558 -0.2014 -0.1697  0.1747
17233W        W21633   0.438   5.243  12.085  0.0637 -0.1986 -0.0425
17234W        W21634   5.613   5.148  24.760 -0.1543  0.2517 -0.0603
17235W        W21635   6.648   5.304   5.035 -0.1284  0.0360 -0.3726
17236W        W21636  24.790   3.450  30.083  0.1258  0.0943  0.2284
17237W        W21637   6.521   1.398  24.270 -0.1245 -0.1310 -0.0343
17238W        W21638   7.695   4.267  33.442  0.1003  0.1342 -0.1535
17239W        W21639  10.860   5.943  29.659 -0.1778 -0.1727 -0.0116
17240W        W21640   3.892   1.631  23.948 -0.2476  0.0005  0.0989
17241W        W21641  14.392   4.268  12.444 -0.2742  0.0055  0.1733
17242W        W21642  11.952   1.735  27.408  0.2344 -0.0767  0.0701
17243W        W21643  13.242   0.060  27.999 -0.2373  0.0175 -0.3625
17244W        W21644  23.991   4.267  31.078  0.1033  0.1188 -0.3161
17245W        W21645  11.804   1.663  12.574  0.2327 -0.2429  0.3121
17246W        W21646  25.220   4.680  24.237 -0.3035  0.1306 -0.0677
17247W        W21647  26.185   1.191  36.026 -0.2204  0.2538 -0.1863
17248W        W21648   3.587   2.646   3.836 -0.1463  0.1650  0.0033
17249W        W21649  26.228   2.615  12.351  0.2444  0.4902  0.0958
17250W        W21650  16.579   6.294  31.087 -0.1962 -0.2528  0.1908
17251W        W21651  19.736   5.159   5.704  0.1575 -0.3797  0.0224
17252W        W21652   2.588   2.222  30.256 -0.1418  0.0157 -0.0091
17253W        W21653  13.172   3.719  10.427  0.3290  0.0609 -0.0957
17254W        W21654  11.074   4.974  21.903 -0.0858  0.1827  0.3084
17255W        W21655   4.323   4.563  28.546 -0.1242  0.1199 -0.2778
17256W        W21656  12.281   4.514  24.398 -0.2549 -0.0157  0.2400
17257W        W21657   3.900   0.954   6.294  0.0883 -0.0271 -0.2947
17258W        W21658  15.877   0.248  25.236  0.1020  0.2012 -0.2100
17259W        W21659   2.930   2.887   5.389 -0.2209 -0.1022  0.2347
17260W        W21660   2.816   5.671  27.031  0.1144 -0.2021  0.1067
17261W        W21661   1.686   2.260   7.713 -0.0085 -0.1801  0.1844
17262W        W21662   6.378   2.805  24.510  0.2517  0.0718  0.1320
17263W        W21663   5.717   0.823  32.982 -0.0249 -0.0005  0.0899
17264W        W21664  23.853   5.733  28.500  0.0196  0.2172 -0.1048
17265W        W21665  15.266   4.326   3.937 -0.0890 -0.0130  0.2859
17266W        W21666   6.975   4.536  27.947 -0.2909  0.1111 -0.0986
17267W        W21667  10.456   4.169   3.014  0.2899  0.1869 -0.0675
17268W        W21668   9.970   5.840   2.166 -0.1276 -0.0620  0.1336
17269W        W21669  20.670   5.354   9.817  0.3094  0.1919 -0.1399
17270W        W21670  12.682   4.956  23.453  0.0606 -0.3194 -0.0131
17271W        W21671  20.071   1.726   9.917  0.2845 -0.1000  0.1373
17272W        W21672   4.132   5.607  10.230 -0.0330  0.1771 -0.0715
17273W        W21673   6.733   3.004  31.663 -0.0640  0.2412 -0.2509
17274W        W21674  13.544   2.711  33.830 -0.0212 -0.1049 -0.0955
17275W        W21675  24.335   1.594  13.151 -0.1780  0.2574  0.3654
17276W        W21676   6.954   2.528  14.956 -0.2512  0.1289  0.2935
17277W        W21677  24.523   3.847  26.090 -0.0453 -0.3270 -0.1488
17278W        W21678   0.768   1.747  31.658  0.1858  0.0237  0.2055
17279W        W21679   6.773   4.311  26.309  0.1007 -0.0907 -0.1975
17280W        W21680   7.515   6.388  26.004 -0.0876 -0.1986  0.2602
17281W        W21681   4.163   1.083   4.692 -0.1134  0.1078  0.2573
17282W        W21682  24.357   3.053   7.500 -0.0142 -0.3098  0.1335
17283W        W21683   2.357   6.454  25.540  0.1635  0.1501  0.5487
17284W        W21684   5.518   2.350  29.504  0.0093 -0.1865  0.1429
17285W        W21685   3.267   0.207   7.943 -0.1390 -0.0869 -0.1919
17286W        W21686   1.368   1.176  22.239 -0.0297 -0.0630  0.3516
17287W        W21687  23.801   4.712  31.046  0.1040 -0.1858 -0.0800
17288W        W21688  12.013   4.173   4.050 -0.0772  0.3088  0.0220
17289W        W21689   1.432   5.275  10.597 -0.1323 -0.0749 -0.2335
17290W        W21690  10.370   4.374  27.659  0.1226 -0.0166  0.3640
17291W        W21691  23.686   1.571  22.767 -0.2289  0.0001  0.1797
17292W        W21692  17.125   2.442   6.349 -0.0333 -0.0332 -0.0379
17293W        W21693  10.959   0.810  14.378  0.2486 -0.0837 -0.0831
17294W        W21694  17.946   2.596  23.648  0.2544 -0.0524 -0.1245
17295W        W21695  19.475   0.432  22.926 -0.1211  0.1842 -0.0765
17296W        W21696  15.453   4.263  31.592  0.2156 -0.3544 -0.0850
17297W        W21697  23.106   3.650  35.473  0.1497  0.1609 -0.1426
17298W        W21698  16.013   0.028  33.440 -0.3645  0.0925 -0.1444
17299W        W21699   9.174   4.873  25.121  0.0942  0.1329  0.1640
17300W        W21700   1.705   4.014  30.489  0.0763  0.0698 -0.1201
17301W        W21701   3.016   5.376  13.071  0.1025 -0.0691 -0.2910
17302W        W21702  25.398   0.605  14.708  0.0572 -0.2265 -0.4379
17303W        W21703  23.377   6.205  35.498 -0.1362  0.0041  0.2724
17304W        W21704  16.293   3.261  27.883  0.1159 -0.0191 -0.0036
17305W        W21705  24.646   1.506  27.772  0.2660 -0.1337  0.2159
17306W        W21706   6.037   3.573  27.663 -0.2561  0.3294 -0.3567
17307W        W21707   4.717   3.649  23.533  0.0602  0.4204 -0.0786
17308W        W21708   8.584   5.234  33.053  0.0538 -0.1431  0.1480
17309W        W21709  23.424   2.885  22.188 -0.1986 -0.2939  0.1927
17310W        W21710  20.062   1.247   6.631 -0.0531  0.4030 -0.0955
17311W        W21711  22.182   4.414   5.115  0.0777 -0.1971 -0.2884
17312W        W21712   0.891   2.291  28.146 -0.1062 -0.1589 -0.2308
17313W        W21713  12.163   3.905   5.026 -0.0981 -0.1614  0.0644
17314W        W21714  15.807   4.268  14.160  0.0833  0.4081  0.0558
17315W        W21715   2.938   4.750  15.045 -0.1050  0.1145  0.2371
17316W        W21716   2.145   3.749  31.822 -0.2626 -0.1821  0.0147
17317W        W21717   4.719   0.768  22.214 -0.0261 -0.1083 -0.1206
17318W        W21718   3.147   4.379  31.249 -0.0442 -0.3267 -0.0589
17319W        W21719  16.857   4.245   0.126  0.1928 -0.0237  0.0379
17320W        W21720  23.350   4.095   1.130  0.0171  0.1252 -0.0123
17321W        W21721   8.591   0.940   0.165 -0.4112 -0.2759  0.0435
17322W        W21722   5.932   4.765  21.722  0.1234 -0.1922 -0.1609
17323W        W21723  15.509   5.133  28.171 -0.0960 -0.2524 -0.1150
17324W        W21724  14.487   4.664  12.030 -0.1239  0.1590  0.3064
17325W        W21725   4.236   2.477   4.597 -0.1114  0.0901  0.1574
17326W        W21726  23.100   3.904  25.758 -0.1888 -0.1545  0.0500
17327W        W21727   7.177   0.869  24.688  0.2087 -0.0211 -0.2334
17328W        W21728  12.968   2.618  14.614 -0.2314  0.1035  0.1564
17329W        W21729   9.682   1.640  23.314  0.1679  0.0771 -0.0762
17330W        W21730  25.888   0.041  25.994 -0.0747 -0.0845 -0.1147
17331W        W21731   3.939   1.099  34.855  0.0904  0.2553  0.1428
17332W        W21732  23.288   2.126   9.600 -0.1284 -0.2212 -0.0686
17333W        W21733   0.718   3.149  20.351 -0.1958  0.0206  0.2417
17334W        W21734   8.569   4.851  23.827 -0.4060 -0.0264  0.0435
17335W        W21735  21.334   3.750  33.904 -0.2797 -0.1245  0.0790
17336W        W21736  25.770   3.943   9.506  0.0440 -0.1453  0.1630
17337W        W21737  20.341   5.016   6.659  0.2238 -0.1710  0.1440
17338W        W21738  10.161   5.301   0.402  0.0347  0.0958  0.3944
17339W        W21739  17.272   2.812   8.298 -0.1601  0.0714  0.1967
17340W        W21740  14.199   1.847  34.590 -0.0995 -0.1564  0.2530
17341W        W21741  17.462   5.469  14.770 -0.0171  0.0459 -0.0129
17342W        W21742  14.746   6.342  33.794  0.0426 -0.1307  0.0279
17343W        W21743   4.297   0.726  33.478  0.3553  0.3547 -0.0073
17344W        W21744   5.266   5.177   0.389  0.1688 -0.0791 -0.0542
17345W        W21745  21.937   4.390  32.674 -0.0405  0.1894 -0.1213
17346W        W21746  21.337   1.460   0.061  0.0874 -0.1839  0.1522
17347W        W21747  12.120   3.947   8.061 -0.1892 -0.1162 -0.1780
17348W        W21748  25.593   2.505  30.754  0.0823 -0.0726 -0.4724
17349W        W21749  26.305   5.790  33.036 -0.0935  0.0190 -0.2989
17350W        W21750  22.718   6.424  13.732  0.2898 -0.2567 -0.2076
17351W        W21751  24.709   5.890   0.556 -0.1908  0.0929  0.0950
17352W        W21752   9.352   6.482  27.507  0.1014  0.2226  0.5215
17353W        W21753  21.033   1.129  30.818  0.0307 -0.1308 -0.3613
17354W        W21754  10.786   1.839   6.352  0.1946  0.0708  0.1112
17355W        W21755   0.463   2.114  32.142  0.0429  0.0588 -0.0860
17356W        W21756  11.385   0.447   5.183 -0.3852  0.0795 -0.2083
17357W        W21757   6.990   4.873  23.674 -0.0154 -0.2200  0.0240
17358W        W21758   7.458   1.069   7.783  0.1750  0.1186 -0.0607
17359W        W21759  16.230   3.825  29.728 -0.1472  0.0153 -0.1672
17360W        W21760   9.699   4.929  23.909 -0.1847 -0.2827 -0.0465
17361W        W21761  11.870   3.758   7.504 -0.1130 -0.1942 -0.2392
17362W        W21762  13.376   1.468   0.707  0.2422 -0.2257 -0.1950
17363W        W21763  17.154   3.490   0.026  0.2263 -0.0884  0.0081
17364W        W21764  15.419   2.024  33.675 -0.2525  0.0271 -0.2140
17365W        W21765  19.703   0.698  33.775 -0.1875  0.1096  0.2522
17366W        W21766  23.794   2.691  14.597  0.2124  0.0847 -0.0633
17367W        W21767  18.853   4.524  32.897  0.1321  0.0607 -0.0262
17368W        W21768  18.153   5.363  14.034  0.3232  0.0957  0.2050
17369W        W21769   6.950   4.155  24.270  0.1467 -0.2757 -0.0162
17370W        W21770  23.313   4.391  25.937  0.0598 -0.1669 -0.0148
17371W        W21771   1.911   4.362  35.749  0.1007  0.2347  0.0468
17372W        W21772   1.035   1.539  24.750 -0.0402  0.2544 -0.1502
17373W        W21773  23.817   3.840  35.001 -0.1135 -0.2028 -0.0373
17374W        W21774   9.439   6.020   9.212  0.1013 -0.0958 -0.0346
17375W        W21775  13.077   4.249   1.094  0.0008 -0.1356  0.1460
17376W        W21776   8.040   4.473   6.504  0.1292 -0.0828 -0.2289
17377W        W21777  21.541   0.046   4.189 -0.1844  0.1648  0.0901
17378W        W21778  10.652   4.300   3.958  0.1552 -0.3847  0.1083
17379W        W21779   1.033   5.345  12.169  0.3259 -0.0268 -0.2746
17380W        W21780   2.385   0.074  23.027 -0.1268  0.3852 -0.0476
17381W        W21781  18.609   3.059   6.048 -0.0222 -0.1541 -0.0812
17382W        W21782  19.913   0.262  33.898  0.1062 -0.1458  0.1657
17383W        W21783  16.234   3.218  33.520 -0.1199  0.0821  0.0869
17384W        W21784  17.365   1.644  25.430  0.2115 -0.0144 -0.0409
17385W        W21785   7.400   2.417  11.084 -0.0708  0.0683  0.0283
17386W        W21786  17.691   5.493  21.970 -0.0425  0.1117  0.1922
17387W        W21787   5.925   6.060  24.660 -0.0561 -0.2170  0.2007
17388W        W21788   2.146   1.790   1.598 -0.1256  0.0715 -0.3448
17389W        W21789  12.588   2.889  23.012 -0.2013 -0.0433  0.3384
17390W        W21790  17.625   4.538  34.830 -0.2202 -0.0142 -0.1744
17391W        W21791  24.811   0.861  29.880  0.0685  0.0880 -0.2537
17392W        W21792  21.145   0.978   1.716 -0.0403  0.0496  0.0619
17393W        W21793  11.142   6.328  24.132  0.3728 -0.0574  0.1474
17394W        W21794  21.608   6.334  20.833  0.0376  0.0054  0.0251
17395W        W21795  10.623   4.896  12.381  0.2083  0.5229  0.0037
17396W        W21796  21.624   6.074   6.422  0.0433 -0.1666 -0.0656
17397W        W21797   5.348   5.947   5.511  0.1475 -0.2375  0.0519
17398W        W21798   2.592   0.821   9.187  0.1986 -0.1229 -0.4164
17399W        W21799  12.505   5.252   6.283 -0.1421 -0.0893  0.0785
17400W        W21800   3.273   1.494   6.629  0.0166 -0.0962 -0.2677
17401W        W21801  16.458   5.108  24.183 -0.0095  0.0033 -0.1081
17402W        W21802  16.121   6.017   4.581 -0.0843  0.2470 -0.1593
17403W        W21803   3.230   5.599  15.150  0.1783 -0.3317 -0.1055
17404W        W21804  17.773   2.343   1.957  0.0165  0.3202 -0.3869
17405W        W21805  12.352   2.492  30.835  0.3104 -0.2814  0.0151
17406W        W21806  13.449   5.262   6.618 -0.2746 -0.1141  0.1684
17407W        W21807   3.128   2.469  32.879  0.1270 -0.0447  0.2169
17408W        W21808   1.233   0.896  29.336 -0.2055  0.0905  0.0767
17409W        W21809   5.856   5.136   8.141 -0.3276  0.1970 -0.0478
17410W        W21810  12.103   2.721   9.423 -0.3020  0.1064 -0.1011
17411W        W21811  22.046   1.879  23.310 -0.0032 -0.0428 -0.0280
17412W        W21812   5.962   2.269  20.901 -0.1299  0.0227 -0.1863
17413W        W21813  26.103   4.385  20.476  0.0091 -0.0813  0.2397
17414W        W21814   8.645   3.216  15.409  0.0543  0.3194  0.0859
17415W        W21815  12.333   6.499  13.161 -0.0279  0.3460  0.1626
17416W        W21816   1.279   5.954  35.521 -0.0038 -0.2314  0.1059
17417W        W21817  22.360   4.721  23.022  0.0520  0.0279 -0.2144
17418W        W21818  18.519   1.727  12.720 -0.1344  0.0601  0.3252
17419W        W21819   8.640   0.758   8.934  0.0838  0.1562  0.0175
17420W        W21820   0.617   5.907  22.861  0.0005 -0.2019  0.1311
17421W        W21821   5.301   4.591   8.657  0.2453 -0.0438 -0.3174
17422W        W21822   9.198   4.946   3.235 -0.1539  0.2345  0.0562
17423W        W21823   2.725   3.209  24.876  0.1875  0.0929  0.0323
17424W        W21824  25.295   1.578  27.534  0.0175 -0.0428  0.1641
17425W        W21825  12.329   3.053  28.881  0.1258 -0.0484  0.2571
17426W        W21826  18.952   6.580  27.428 -0.0816 -0.0400  0.0556
17427W        W21827   6.184   4.587  13.937 -0.1885  0.2588 -0.0544
17428W        W21828  14.046   6.572  10.374 -0.2255  0.0552 -0.6317
17429W        W21829  13.599   3.760   1.265 -0.1533 -0.0257  0.2354
17430W        W21830  22.068   6.601  34.252  0.0294 -0.0007  0.1087
17431W        W21831  22.531   4.942   2.695  0.0841  0.0036 -0.1286
17432W        W21832   9.489   5.900   6.698  0.0536  0.1024  0.2837
17433W        W21833  15.917   2.190  23.426  0.1121 -0.0351 -0.3735
17434W        W21834  23.333   2.457   1.510 -0.0006  0.0894 -0.1221
17435W        W21835  16.745   2.966   2.893 -0.2418  0.2158  0.4757
17436W        W21836   8.632   4.843  11.150  0.0507  0.0905 -0.2300
17437W        W21837   7.802   2.912   5.151  0.0931 -0.0309 -0.0654
17438W        W21838  16.968   4.835  27.172  0.1816  0.4354  0.0325
17439W        W21839  17.748   4.076   4.485  0.0092 -0.2247  0.0974
17440W        W21840   8.370   5.284  28.010  0.0794 -0.1426  0.0060
17441W        W21841  17.648   6.569  28.042 -0.0001  0.1694  0.0151
17442W        W21842  22.587   0.862   6.001 -0.2316 -0.0357 -0.0392
17443W        W21843   1.910   1.273  31.960  0.0984 -0.2823  0.0468
17444W        W21844  12.411   3.573  26.669  0.1261  0.0263  0.2309
17445W        W21845  23.028   4.260   7.176  0.0063 -0.1490  0.0605
17446W        W21846  13.696   4.291  33.360  0.0054 -0.2185 -0.0126
17447W        W21847  13.476   6.349   0.715  0.1367 -0.4141  0.0439
17448W        W21848  20.003   3.201   5.843  0.3219 -0.1608  0.0379
17449W        W21849  23.587   5.485  29.057  0.0913  0.1106 -0.2355
17450W        W21850  21.755   0.432   5.533 -0.0902 -0.1044 -0.2267
17451W        W21851  19.851   5.252  36.183 -0.5152 -0.0711  0.0147
17452W        W21852  15.709   6.491  29.903 -0.0866  0.1200 -0.1751
17453W        W21853  24.584   2.791  24.539 -0.1982  0.2717 -0.0117
17454W        W21854  26.027   2.081  12.680  0.0469 -0.3959 -0.1028
17455W        W21855  11.365   5.063  22.879  0.0489  0.2501 -0.1681
17456W        W21856   5.900   5.432  35.079  0.0636  0.0949  0.2465
17457W        W21857   7.259   6.136   0.405 -0.1883  0.0881  0.0375
17458W        W21858   2.986   4.211  15.159 -0.0364  0.2736 -0.0739
17459W        W21859  17.987   2.850  31.896  0.1683  0.2502  0.0657
17460W        W21860   2.941   2.365  28.426 -0.0761 -0.1078  0.1090
17461W        W21861   0.815   3.738  34.295 -0.1194 -0.2727 -0.1210
17462W        W21862  25.425   3.611   3.423 -0.1304 -0.1904  0.0742
17463W        W21863  23.049   0.233  31.342 -0.1702  0.0065  0.1548
17464W        W21864  15.491   5.485   7.035 -0.3825 -0.2253 -0.1821
17465W        W21865  21.308   3.090  34.783  0.1332  0.1169  0.1277
17466W        W21866   6.308   2.553  14.530  0.1725 -0.0388 -0.0388
17467W        W21867   9.310   1.003  30.962 -0.1509  0.0735  0.0990
17468W        W21868  15.342   3.063   6.031 -0.1495  0.0274 -0.0129
17469W        W21869   2.766   5.664  15.360 -0.0196  0.0501  0.1757
17470W        W21870  24.496   1.051   0.822  0.0473  0.0012  0.0248
17471W        W21871  19.724   4.902  29.298  0.1340  0.0262  0.1386
17472W        W21872  23.895   3.142   4.848 -0.1646 -0.3322 -0.2489
17473W        W21873   1.284   1.390   5.510  0.2636 -0.1579  0.1856
17474W        W21874   6.195   2.221  29.978 -0.3901 -0.1404  0.2777
17475W        W21875  24.582   3.666  29.224  0.3788 -0.0673 -0.0229
17476W        W21876  22.620   5.259   7.617  0.0420  0.0092 -0.1277
17477W        W21877  22.602   3.466  22.134  0.0503  0.2118  0.1040
17478W        W21878  15.672   4.901  31.110  0.4913  0.0719 -0.1734
17479W        W21879   8.357   0.203  26.032  0.1127  0.3467  0.1273
17480W        W21880   4.373   5.141  24.817 -0.0095 -0.1478 -0.4717
17481W        W21881   1.133   5.518  35.727 -0.1902  0.2273 -0.0692
17482W        W21882   5.150   5.671  30.693  0.1838  0.2252  0.3442
17483W        W21883  11.958   4.078   0.763  0.3587  0.2548  0.1450
17484W        W21884   4.548   6.522  31.884  0.5582  0.0617 -0.2086
17485W        W21885   3.355   2.070   5.764 -0.1904 -0.2104 -0.1414
17486W        W21886  12.090   3.340  22.057  0.1015 -0.2035  0.4191
17487W        W21887  14.356   0.943  36.136 -0.1605  0.0640  0.2315
17488W        W21888  21.247   1.176   1.048  0.0839  0.2297  0.4246
17489W        W21889  24.265   0.315  12.810  0.0936 -0.0784 -0.0646
17490W        W21890  20.193   5.176  33.334 -0.2037  0.1528 -0.0230
17491W        W21891  17.834   6.238   1.609  0.1469 -0.2301  0.1511
17492W        W21892   9.738   0.124  24.631  0.0408 -0.2219 -0.0785
17493W        W21893  12.155   5.477   4.736  0.2008  0.2564  0.0155
17494W        W21894  23.527   6.428   7.991 -0.0595  0.3768 -0.1810
17495W        W21895   0.824   2.824   5.653  0.1138  0.0294 -0.3026
17496W        W21896  16.974   2.730   7.907 -0.1322  0.1998 -0.0578
17497W        W21897   5.693   0.038   6.368  0.2006  0.0731  0.0079
17498W        W21898   1.437   3.101   9.186 -0.1066 -0.1503  0.3066
17499W        W21899   6.869   4.009  25.664  0.1324  0.0006  0.3187
17500W        W21900  22.368   0.918  12.634  0.0274  0.1410 -0.1658
17501W        W21901  17.609   3.556  26.206 -0.1535 -0.3083  0.0487
17502W        W21902  18.884   5.468   3.396 -0.1836 -0.2102 -0.0969
17503W        W21903   5.635   3.216  10.037 -0.2235  0.0724 -0.0444
17504W        W21904  18.581   5.500  15.676  0.0684  0.2296 -0.0673
17505W        W21905  17.783   2.457  35.329 -0.0761 -0.0361 -0.0055
17506W        W21906  21.526   1.467  13.593 -0.2222 -0.1586  0.0331
17507W        W21907   1.835   0.416  28.163 -0.1656  0.0589  0.1465
17508W        W21908  25.906   4.063  30.946 -0.0683  0.2605 -0.0564
17509W        W21909   2.881   0.156  29.036  0.0922  0.3542 -0.0334
17510W        W21910  10.696   2.798  14.979  0.2046  0.3550 -0.3483
17511W        W21911   4.648   4.278  12.251  0.0316  0.1660  0.1363
17512W        W21912  18.747   0.459  22.912 -0.0995  0.1096 -0.1055
17513W        W21913   5.115   5.713  28.328 -0.0756  0.3578  0.0795
17514W        W21914  12.935   1.756  29.300 -0.1427  0.0340  0.0328
17515W        W21915  16.767   0.126  13.490  0.1073  0.2106  0.0938
17516W        W21916  17.101   0.834  27.369  0.0420  0.0336  0.1623
17517W        W21917   8.984   0.241   1.870 -0.5138  0.0125  0.0312
17518W        W21918  21.840   3.024  23.327 -0.0922  0.1805  0.2799
17519W        W21919  14.774   6.154   1.438 -0.3610  0.1221  0.2074
17520W        W21920   2.933   2.292  10.393  0.1435  0.3295 -0.2869
17521W        W21921   2.132   5.740  34.009  0.2175  0.1109  0.0152
17522W        W21922   9.404   1.876  22.982 -0.0249  0.1992  0.0869
17523W        W21923   9.639   3.545  34.715  0.2321  0.0669  0.0302
17524W        W21924   6.559   0.915  10.801  0.0292  0.1058  0.3136
17525W        W21925  20.500   4.513  30.479 -0.0383 -0.0328  0.1647
17526W        W21926  18.391   1.495   7.876 -0.1576  0.1936 -0.2232
17527W        W21927  14.363   4.411   9.643  0.0777 -0.1746  0.1124
17528W        W21928  24.626   6.185  28.687  0.4223  0.0262  0.0388
17529W        W21929   5.975   1.062  11.508 -0.2196  0.1106 -0.1323
17530W        W21930  16.972   3.175  30.884 -0.4355 -0.1214 -0.1411
17531W        W21931  25.043   5.146  31.623  0.2778  0.3355  0.0912
17532W        W21932  11.304   5.405   1.920 -0.0657 -0.0525  0.0084
17533W        W21933  24.488   4.373  26.981 -0.4144 -0.0413 -0.1641
17534W        W21934   4.635   5.416  10.432 -0.0139 -0.1180 -0.0275
17535W        W21935  20.146   0.404   5.216  0.1835 -0.0253  0.0145
17536W        W21936   9.914   3.053   6.205  0.3002 -0.3138 -0.0407
17537W        W21937  16.493   5.738  14.960  0.1894  0.1467 -0.0338
17538W        W21938   5.714   2.201  28.953  0.2705 -0.0002 -0.1564
17539W        W21939   1.697   1.879   9.481 -0.0679 -0.0304 -0.0301
17540W        W21940   2.421   2.436  15.012  0.0105 -0.1295  0.1190
17541W        W21941   6.396   2.081  13.877 -0.1006  0.0055 -0.1203
17542W        W21942   5.443   3.336  22.115 -0.0717 -0.1117 -0.1050
17543W        W21943  13.661   2.091  26.764 -0.0695  0.0343 -0.0050
17544W        W21944   9.089   4.672  14.696 -0.0590  0.0260 -0.1820
17545W        W21945  17.853   3.938   5.705 -0.1780 -0.1466  0.0905
17546W        W21946   3.813   3.256  22.817  0.0574  0.0089  0.2288
17547W        W21947  23.087   1.113   1.638 -0.2034 -0.0851  0.2413
17548W        W21948  16.993   3.767   8.343 -0.0595  0.1951 -0.1755
17549W        W21949  10.313   1.789   4.710  0.0429 -0.0579 -0.1305
17550W        W21950  14.146   5.996   7.856 -0.2540  0.1893 -0.1796
17551W        W21951   4.718   4.465  22.167 -0.0841  0.4292 -0.1498
17552W        W21952  18.088   3.653   9.062 -0.3126 -0.1429 -0.0263
17553W        W21953  12.600   0.244  10.214  0.1343 -0.2074 -0.2093
17554W        W21954   3.006   1.541  11.245  0.1571  0.0294 -0.0100
17555W        W21955   3.885   3.827   5.158 -0.0962 -0.4230 -0.0768
17556W        W21956   1.186   0.066  10.814 -0.1423 -0.3982  0.2451
17557W        W21957  17.847   5.877  11.880  0.0475  0.0535  0.0038
17558W        W21958  23.643   5.641  30.440 -0.1269  0.1232 -0.0555
17559W        W21959  12.217   2.640  26.758  0.0477  0.0298 -0.1952
17560W        W21960   6.081   5.318  31.565 -0.0145  0.2077 -0.0733
17561W        W21961   4.408   3.403  26.604  0.1015  0.0310  0.0504
17562W        W21962  22.539   2.745  32.843  0.1905 -0.2841 -0.0685
17563W        W21963  15.108   0.252  13.976 -0.0112  0.3499 -0.1411
17564W        W21964  22.525   2.819   9.545 -0.0773  0.0999  0.0270
17565W        W21965  19.764   5.433  35.661  0.0413 -0.2959  0.2245
17566W        W21966  11.083   3.999  12.431  0.1878 -0.1994 -0.3765
17567W        W21967   8.527   5.815  24.065  0.1148 -0.3081  0.3694
17568W        W21968  16.572   0.031  34.999 -0.1136 -0.0844  0.1804
17569W        W21969  11.111   4.925   7.810 -0.0491  0.1035 -0.0036
17570W        W21970   5.563   6.383  14.120 -0.0909  0.0706  0.1609
17571W        W21971   7.766   3.298   2.380  0.0577  0.1014  0.1164
17572W        W21972   1.380   3.683  20.793  0.1089  0.0146 -0.3804
17573W        W21973  21.916   0.458  35.700 -0.2467  0.1805 -0.0952
17574W        W21974   2.677   4.556  25.924 -0.1208 -0.0743 -0.0960
17575W        W21975   4.730   5.971  10.885 -0.1681  0.3642 -0.0714
17576W        W21976  10.894   6.520  25.901  0.2100 -0.3951 -0.1903
17577W        W21977   4.696   5.824  20.972  0.2617  0.2006  0.0855
17578W        W21978  19.051   4.846  34.451 -0.1724 -0.0819  0.1302
17579W        W21979  10.715   5.970  28.092 -0.0929 -0.0203 -0.1379
17580W        W21980  13.933   3.639  24.173 -0.0351  0.1040 -0.0681
17581W        W21981  14.081   0.977   3.035  0.1593 -0.0379  0.2699
17582W        W21982  21.222   5.702  13.442  0.1101  0.0444 -0.1350
17583W        W21983  15.538   5.208  11.503  0.2319  0.0838 -0.2882
17584W        W21984   9.023   5.090   0.335 -0.1577 -0.3606  0.1110
17585W        W21985  11.023   2.281   4.147  0.1527 -0.1017 -0.1401
17586W        W21986  15.552   2.851   7.105 -0.0499  0.0211 -0.3382
17587W        W21987  11.410   1.942   7.998  0.1237  0.1524  0.2393
17588W        W21988   5.071   2.135   9.213  0.1049  0.0471  0.0966
17589W        W21989  25.273   0.220   4.151  0.1986 -0.0577 -0.3074
17590W        W21990   3.535   3.778  21.418  0.0388  0.1368 -0.1319
17591W        W21991  21.167   1.330  13.105 -0.0283  0.4469 -0.0416
17592W        W21992   4.771   6.512  15.530 -0.0996 -0.0311  0.1389
17593W        W21993  10.617   3.490  14.123  0.3330 -0.1354  0.1697
17594W        W21994  16.493   6.411   3.999 -0.2755 -0.1253  0.0163
17595W        W21995  22.506   1.647   9.190  0.1158  0.2166 -0.0359
17596W        W21996  22.729   2.794   3.372  0.2610 -0.0201 -0.0406
17597W        W21997  17.281   6.466  28.483  0.0678  0.2219 -0.2145
17598W        W21998   8.316   1.227  35.762 -0.0519  0.0617  0.1469
17599W        W21999   3.115   4.632   0.536 -0.2375 -0.1410  0.0712
17600W        W22000   5.247   0.939   1.899 -0.0347  0.0654 -0.1939
17601W        W22001  24.666   0.636   1.205 -0.1501 -0.2615  0.1119
17602W        W22002  13.681   5.009  20.886 -0.0191  0.2286  0.1833
17603W        W22003   2.725   5.721  34.874 -0.0206 -0.4428  0.0316
17604W        W22004  22.314   1.526  14.365 -0.0405 -0.0952  0.2936
17605W        W22005  12.209   4.522   7.201 -0.1273  0.1978 -0.0900
17606W        W22006   4.494   3.466  32.108 -0.2643 -0.2146 -0.0215
17607W        W22007  17.259   3.343  14.322  0.1625  0.0381 -0.0786
17608W        W22008  10.884   4.513  24.750 -0.3089  0.0873  0.1507
17609W        W22009  12.448   6.384  28.067  0.0827  0.1148  0.0388
17610W        W22010  13.826   1.769   8.346 -0.0054  0.1349 -0.2695
17611W        W22011  16.348   3.551  12.658 -0.2726 -0.0140 -0.1545
17612W        W22012   0.385   1.584  28.076 -0.1012  0.0018  0.0154
17613W        W22013  23.082   3.061  30.028 -0.1915  0.0727  0.2875
17614W        W22014  17.419   1.301  25.070 -0.0996  0.1278  0.0289
17615W        W22015  13.601   3.989  24.141  0.1877  0.4971  0.0994
17616W        W22016  25.630   2.416   1.549 -0.2580 -0.1423  0.3474
17617W        W22017   5.242   0.107   3.522  0.1197  0.3739  0.0965
17618W        W22018  17.356   4.591   8.194  0.0987  0.0496  0.0399
17619W        W22019  11.531   4.304   0.276  0.0310 -0.1892 -0.0273
17620W        W22020   6.588   4.204   6.704  0.0247  0.5202 -0.0628
17621W        W22021  18.836   0.119  33.829 -0.2708  0.0280  0.0598
17622W        W22022   7.088   1.436   9.193  0.1726  0.3914  0.1513
17623W        W22023   8.041   5.213   2.337 -0.0225 -0.1420 -0.0703
17624W        W22024  12.523   4.424  31.754 -0.1714  0.0644  0.3091
17625W        W22025  18.567   2.017   3.919 -0.1092 -0.4141 -0.1311
17626W        W22026  20.515   4.634   9.968  0.0567 -0.2014  0.0009
17627W        W22027  16.939   1.303  27.330 -0.1744 -0.1336 -0.0344
17628W        W22028  24.022   2.125   7.080 -0.0541 -0.1177 -0.1829
17629W        W22029  10.213   2.645  23.527 -0.1300 -0.1205 -0.1415
17630W        W22030   1.549   1.716   5.854  0.0929  0.0993  0.1106
17631W        W22031   8.708   4.774  28.615 -0.1875 -0.0482 -0.0518
17632W        W22032   2.181   2.385  31.924 -0.1684 -0.0942 -0.2017
17633W        W22033  13.865   3.031  26.810  0.3572 -0.0169  0.2659
17634W        W22034  21.057   3.384   1.942 -0.3130 -0.2452 -0.1211
17635W        W22035   6.521   1.403  11.511 -0.1758 -0.0869  0.1275
17636W        W22036  24.040   3.974   0.472 -0.1018  0.0417  0.3324
17637W        W22037   4.297   3.176  28.520  0.1595  0.1023 -0.0156
17638W        W22038  17.758   6.289  30.853  0.0547  0.3075  0.1866
17639W        W22039  22.238   4.898   6.697  0.3137  0.0068 -0.4195
17640W        W22040  20.426   4.226  33.660  0.3241  0.2959  0.1673
17641W        W22041  24.222   3.539  31.616 -0.1423  0.3604  0.1599
17642W        W22042   2.826   2.067   8.620  0.0954  0.0530 -0.0375
17643W        W22043   5.348   5.235  27.388  0.2048  0.0266 -0.3075
17644W        W22044  24.811   1.320   9.859  0.0758  0.3165 -0.0566
17645W        W22045  25.426   0.270  34.314 -0.0192 -0.0501  0.0295
17646W        W22046   5.792   6.332  10.630 -0.2463  0.0293 -0.1297
17647W        W22047  12.474   2.454  31.321  0.1447  0.2855  0.1308
17648W        W22048   1.887   6.304   5.078  0.1131  0.3159 -0.0185
17649W        W22049   2.663   1.196  25.159 -0.0972  0.2640 -0.0534
17650W        W22050  14.607   1.280  14.003  0.1445  0.0970 -0.0664
17651W        W22051  23.005   1.302   3.578  0.3114 -0.2934 -0.0915
17652W        W22052   7.440   5.221  27.536  0.0572  0.0313 -0.0794
17653W        W22053   1.440   4.275   0.912  0.1857  0.2021 -0.2113
17654W        W22054  21.692   4.094   4.351  0.0029  0.2425 -0.1835
17655W        W22055   7.399   4.999   0.828 -0.2376 -0.1781  0.0004
17656W        W22056  21.080   2.008  11.708 -0.2215 -0.2176  0.2931
17657W        W22057  12.320   4.182  28.032  0.0014 -0.0877 -0.2710
17658W        W22058  11.759   5.867  23.293  0.1323  0.1333  0.0926
17659W        W22059   8.453   2.427  21.735  0.0383 -0.0298 -0.2624
17660W        W22060  12.984   4.378  23.474  0.0649 -0.1754 -0.3131
17661W        W22061  15.724   3.595  26.261 -0.1091 -0.1022 -0.3352
17662W        W22062   0.112   0.848  29.481 -0.0773  0.0464 -0.1235
17663W        W22063  16.005   1.243  12.898  0.3790 -0.2105  0.3262
17664W        W22064   2.861   5.655  27.586 -0.1555  0.1157  0.0301
17665W        W22065   0.677   1.539   4.817  0.0711  0.0778  0.0461
17666W        W22066   4.377   6.059  21.450 -0.2730  0.3058 -0.0535
17667W        W22067   2.663   1.500  28.844  0.1938 -0.1135 -0.1169
17668W        W22068  12.949   5.394   9.553  0.1593  0.1710  0.1184
17669W        W22069  23.520   5.399   5.348  0.0497 -0.1638 -0.0972
17670W        W22070   3.060   0.285  25.694  0.1100  0.0142  0.0980
17671W        W22071   7.503   3.372  29.256 -0.3381  0.2664 -0.3647
17672W        W22072   2.894   6.291   9.027 -0.2817 -0.3242 -0.1771
17673W        W22073   9.359   6.346  10.549  0.3084 -0.0902  0.1775
17674W        W22074   7.084   5.519  28.467  0.1067 -0.0425  0.0524
17675W        W22075   9.970   6.134   8.744 -0.0665  0.3415  0.0634
17676W        W22076   7.908   4.123   3.595  0.0472 -0.1359 -0.0290
17677W        W22077   3.588   5.749  11.571 -0.1194 -0.2301  0.1946
17678W        W22078  16.802   1.002  11.226 -0.3177 -0.0626 -0.1211
17679W        W22079   4.924   4.341  30.735  0.2531 -0.1810 -0.0156
17680W        W22080   0.138   3.123  24.896  0.2720 -0.0618  0.0084
17681W        W22081  26.051   6.576   9.081  0.1061  0.1346  0.2568
17682W        W22082   6.117   6.595  35.740  0.0167 -0.1695 -0.0234
17683W        W22083  24.197   0.112   0.043 -0.0374 -0.1454  0.0410
17684W        W22084  16.878   6.518   9.166  0.1355 -0.1314 -0.1352
17685W        W22085   4.121   4.690  12.426 -0.2526  0.1284  0.1146
17686W        W22086   4.644   5.568  27.023  0.1195 -0.1230  0.1253
17687W        W22087   0.078   3.098   4.320 -0.1391  0.0003 -0.2316
17688W        W22088  21.094   3.317  12.933 -0.2571 -0.2994 -0.0070
17689W        W22089  23.709   0.424   8.307  0.0146 -0.1314 -0.2096
17690W        W22090   9.928   5.334  24.305 -0.0214 -0.2181 -0.1086
17691W        W22091  10.206   2.070   8.457 -0.3139  0.1967  0.0619
17692W        W22092   4.262   1.725   6.501 -0.1712 -0.0557  0.0771
17693W        W22093  13.817   1.192   2.619 -0.1430 -0.0180 -0.0378
17694W        W22094  14.330   5.609  22.076  0.1478 -0.1676  0.0012
17695W        W22095   5.694   0.703   4.648 -0.0537 -0.0282 -0.0671
17696W        W22096  11.147   4.050  28.058  0.0875  0.1031 -0.2210
17697W        W22097   3.305   1.360  28.125  0.5257 -0.1539 -0.0416
17698W        W22098  18.300   3.459  35.705 -0.1898 -0.0228  0.0560
17699W        W22099  12.661   6.189   7.626  0.1873 -0.1062 -0.0703
17700W        W22100  21.657   4.462  27.006 -0.0285 -0.0310 -0.1082
17701W        W22101  24.257   2.793  28.790  0.0023 -0.1801  0.1703
17702W        W22102  10.558   5.169   0.020 -0.2529  0.2550  0.1017
17703W        W22103  16.907   5.860  29.994  0.2732 -0.1407 -0.1176
17704W        W22104  26.247   3.333  26.528 -0.0877  0.1758  0.0834
17705W        W22105  12.242   4.484  14.991  0.1256 -0.1061 -0.1243
17706W        W22106   7.440   0.153   9.216  0.0292 -0.0005 -0.0518
17707W        W22107  25.565   6.467  12.201  0.0856  0.1126 -0.2451
17708W        W22108  20.480   5.906   6.506 -0.0778  0.0303 -0.0321
17709W        W22109  19.964   0.924  22.472 -0.0909 -0.0375  0.2002
17710W        W22110  17.369   5.608  13.894 -0.0939 -0.1168  0.2447
17711W        W22111  17.929   0.928  10.328  0.1715 -0.1503  0.0333
17712W        W22112   4.386   5.280   6.845 -0.0833  0.0142  0.3758
17713W        W22113  11.937   5.712  26.602  0.1568 -0.0270 -0.2905
17714W        W22114  14.610   4.530  11.202 -0.1589  0.0219  0.1958
17715W        W22115  24.274   3.386   6.125  0.3274 -0.1343 -0.3289
17716W        W22116   4.363   0.494  34.659 -0.2737  0.1300 -0.2004
17717W        W22117  16.363   1.636   4.402 -0.0200 -0.0895 -0.1850
17718W        W22118   3.168   5.468   1.978  0.0133 -0.2201 -0.0089
17719W        W22119  17.793   0.474   1.174 -0.3769  0.1687  0.2686
17720W        W22120  11.573   3.323  32.196  0.0404  0.0230  0.0515
17721W        W22121  22.295   1.231   1.945  0.5269  0.0462 -0.0796
17722W        W22122   6.993   1.660   5.895  0.0651  0.1847  0.0998
17723W        W22123  21.349   5.198  29.882  0.1848 -0.2176  0.0531
17724W        W22124  10.465   0.489  29.176  0.2179  0.1698  0.2388
17725W        W22125   3.921   2.366  25.310 -0.0472  0.2335 -0.2164
17726W        W22126  14.203   1.231  22.300  0.3736  0.1402  0.0104
17727W        W22127   3.452   5.408  24.738 -0.1473  0.0803 -0.1126
17728W        W22128   5.338   2.939  30.765 -0.2474  0.1782  0.3478
17729W        W22129  23.074   3.250  34.397 -0.1720  0.1509  0.3932
17730W        W22130  13.051   6.505  31.900 -0.2075 -0.2329 -0.5439
17731W        W22131  12.607   2.876  14.944 -0.3422  0.4849  0.1953
17732W        W22132  11.348   3.300   5.069 -0.3208  0.0045 -0.0450
17733W        W22133   4.483   1.874  28.373  0.3167 -0.1166 -0.6000
17734W        W22134  10.369   3.360   8.900 -0.1562 -0.0185  0.0926
17735W        W22135   4.704   4.676  35.902 -0.0707  0.2720 -0.0100
17736W        W22136   4.572   3.973  30.866 -0.0813 -0.1644  0.1520
17737W        W22137   2.582   1.845  11.090 -0.1658  0.1519 -0.2195
17738W        W22138  14.272   2.853  12.466  0.2196  0.0687  0.2083
17739W        W22139  19.678   1.002   0.364  0.0530  0.0012 -0.0504
17740W        W22140  16.325   0.970  27.632  0.2055 -0.0478 -0.3334
17741W        W22141  10.381   4.603   1.299 -0.1923  0.3533 -0.2335
17742W        W22142   1.439   2.260   1.969 -0.2553 -0.0229  0.1771
17743W        W22143   5.795   2.764  26.472  0.0369 -0.0700 -0.2053
17744W        W22144  21.678   4.206  31.117 -0.3252  0.3120 -0.2304
17745W        W22145   8.114   3.544  29.808 -0.2188 -0.1294 -0.1514
17746W        W22146   2.537   5.042   6.421 -0.0604  0.1325  0.1612
17747W        W22147  15.059   4.824  25.168 -0.2190 -0.3016  0.1795
17748W        W22148  23.859   1.446   8.348  0.1889 -0.0985  0.0435
17749W        W22149   4.612   4.332  24.295  0.1264 -0.2689  0.0982
17750W        W22150  23.786   0.594  13.623  0.0714 -0.0898 -0.0176
17751W        W22151   3.769   4.476  12.181 -0.2819 -0.1597  0.0514
17752W        W22152   7.239   6.152  23.607  0.0477 -0.2948 -0.0097
17753W        W22153  12.694   3.896  33.984  0.3212  0.0420 -0.1425
17754W        W22154  20.178   4.505  27.380  0.3569  0.1898  0.0105
17755W        W22155  23.114   1.194  26.537  0.0263  0.1840 -0.1090
17756W        W22156  14.635   4.566   9.075  0.0813 -0.3506  0.0486
17757W        W22157  17.347   1.066  34.247  0.0130  0.2057  0.0244
17758W        W22158   3.225   5.369  31.454  0.1205 -0.0259  0.2482
17759W        W22159  20.159   2.506   1.433 -0.0510  0.0591 -0.0506
17760W        W22160  17.806   6.409   2.501  0.0591 -0.0535 -0.5671
17761W        W22161   6.636   4.623   6.231  0.0646  0.1117  0.0758
17762W        W22162  14.459   0.809  13.775  0.0674  0.3853  0.2335
17763W        W22163   2.845   4.991  33.931 -0.1656  0.0603  0.0603
17764W        W22164  16.123   3.461  30.508 -0.3401 -0.1513  0.1935
17765W        W22165   7.940   0.908  14.518 -0.1448  0.2678 -0.3493
17766W        W22166   9.900   3.811  20.876  0.0249 -0.1399  0.0582
17767W        W22167  17.591   1.687   9.318  0.1496 -0.2541  0.0323
17768W        W22168   1.821   5.946  24.118 -0.2104 -0.1218  0.0013
17769W        W22169   6.428   6.576  15.126  0.1554 -0.0909  0.2572
17770W        W22170  21.333   3.786  10.115 -0.2457 -0.1202  0.2221
17771W        W22171  14.484   5.556  27.862  0.0794 -0.0338 -0.0109
17772W        W22172   3.997   2.936  28.830 -0.1337 -0.3473  0.0333
17773W        W22173  23.472   5.873  21.814  0.0266 -0.0122  0.2926
17774W        W22174  22.195   6.129   3.046 -0.0098  0.0180 -0.0180
17775W        W22175   1.721   6.195   9.101  0.1573  0.0787  0.0169
17776W        W22176   8.248   4.682   1.672 -0.0151 -0.0430 -0.0900
17777W        W22177   3.408   1.404   8.769  0.0363  0.0428  0.0807
17778W        W22178  25.885   4.130  22.107  0.3033  0.0743 -0.0165
17779W        W22179  25.585   1.888  32.498  0.2679  0.1892 -0.2548
17780W        W22180  13.947   6.077  11.650 -0.0623  0.0151 -0.1191
17781W        W22181  21.936   4.148  36.096 -0.0071 -0.2045 -0.0386
17782W        W22182  19.939   2.435  15.620  0.1022 -0.0918  0.0578
17783W        W22183  26.004   0.067  30.028 -0.0876 -0.1043 -0.1280
17784W        W22184   4.969   1.975  29.270  0.0970  0.1754  0.0819
17785W        W22185  21.529   1.709  33.714 -0.0116  0.1507  0.1108
17786W        W22186   4.092   0.034  29.556 -0.1036  0.0329  0.1462
17787W        W22187   4.009   3.590   6.202  0.2404 -0.2929 -0.1305
17788W        W22188  14.411   2.397   2.641 -0.2414 -0.2324 -0.3685
17789W        W22189  14.405   4.622   1.855 -0.0190  0.2583  0.1173
17790W        W22190  26.250   2.728   0.371 -0.0150  0.4119 -0.2647
17791W        W22191  15.996   5.576   5.835  0.1635 -0.2589 -0.1997
17792W        W22192  23.974   1.329   7.699 -0.1013 -0.1677  0.1871
17793W        W22193  24.207   4.050  24.932  0.2395 -0.0718 -0.0076
17794W        W22194   0.092   6.463  10.587  0.0294 -0.3242  0.1028
17795W        W22195   8.415   6.570   8.371 -0.1257 -0.0869 -0.1328
17796W        W22196  23.918   0.847  24.903  0.0600 -0.2784 -0.2002
17797W        W22197   0.073   4.858   9.844 -0.0392 -0.0120  0.1976
17798W        W22198   2.742   4.940  32.061  0.2460  0.1744  0.0878
17799W        W22199   7.873   6.594   4.800 -0.2065  0.1582  0.0300
17800W        W22200  20.309   0.680   7.975 -0.1575  0.4690  0.2073
17801W        W22201  14.906   4.679   5.932 -0.4093 -0.0872  0.1241
17802W        W22202   0.316   4.370   1.734 -0.3051 -0.0555  0.2982
17803W        W22203   4.464   0.126  29.221 -0.0579 -0.0360  0.0822
17804W        W22204  15.893   1.142  26.968 -0.1678  0.0219 -0.1217
17805W        W22205   0.788   6.361   2.250  0.0151 -0.0218 -0.0166
17806W        W22206   9.534   5.259  28.789 -0.1504  0.2959  0.1981
17807W        W22207  13.630   1.893  25.000  0.2645  0.0093 -0.3463
17808W        W22208  20.185   6.026  27.594  0.0667 -0.1977 -0.0462
17809W        W22209  10.248   4.220  13.114  0.2023  0.1324 -0.0070
17810W        W22210  17.204   5.428   0.849 -0.3546  0.1889 -0.2672
17811W        W22211   3.998   2.582  23.326 -0.2079 -0.1755 -0.0874
17812W        W22212  20.676   0.023  28.101  0.0203 -0.2543 -0.0540
17813W        W22213   7.726   0.677  21.343  0.0584 -0.0555  0.1046
17814W        W22214  10.080   4.674  25.882 -0.1151 -0.1912  0.0074
17815W        W22215  13.045   6.054  29.211  0.0860  0.1342  0.3030
17816W        W22216   5.622   6.278  11.128  0.0296  0.0886  0.0688
17817W        W22217  20.418   0.034   5.023  0.2739 -0.1599 -0.3329
17818W        W22218  14.810   1.190   1.670  0.3242  0.0029 -0.0378
17819W        W22219  16.193   3.647  26.389 -0.2276 -0.2837 -0.0964
17820W        W22220   5.092   3.058  25.541  0.1775  0.1082 -0.0411
17821W        W22221  22.052   4.387   6.608  0.1942 -0.2156  0.2360
17822W        W22222   1.265   1.862  32.904 -0.0053 -0.0382 -0.0792
17823W        W22223  12.742   2.040   1.779 -0.0244  0.0692  0.1009
17824W        W22224  12.802   6.270  25.036 -0.0257  0.1296  0.0411
17825W        W22225   5.823   1.661  13.925  0.1946 -0.1405 -0.2260
17826W        W22226  18.524   0.479   8.247 -0.2318 -0.1139  0.1835
17827W        W22227   9.710   2.416  13.448 -0.1278 -0.2946  0.0094
17828W        W22228  26.160   5.005  30.610 -0.3061 -0.3077  0.0844
17829W        W22229   4.888   4.027  24.005  0.0179  0.1419 -0.0290
17830W        W22230  15.658   2.250   5.650 -0.0395  0.0986  0.2860
17831W        W22231  24.643   5.249   4.880  0.1773 -0.1892 -0.1651
17832W        W22232  25.335   4.402  29.751 -0.0915  0.1192  0.0854
17833W        W22233   8.680   3.615   6.187 -0.0675  0.1693  0.0026
17834W        W22234   2.245   4.590  11.268 -0.2406  0.0763 -0.3796
17835W        W22235  24.029   3.235  22.333 -0.3861  0.0583 -0.1842
17836W        W22236  12.192   6.474  28.538 -0.3018 -0.0071 -0.0735
17837W        W22237   8.121   5.484  21.375 -0.1706  0.1766  0.4095
17838W        W22238  11.249   1.108   3.245 -0.0287  0.1132  0.1231
17839W        W22239  15.870   0.274   9.064  0.0084  0.1569 -0.0497
17840W        W22240  22.770   1.501  26.772 -0.2193 -0.3189  0.0502
17841W        W22241  16.020   0.250   1.466 -0.2646  0.0264 -0.0892
17842W        W22242  19.399   0.764  29.315  0.1997  0.1153 -0.2630
17843W        W22243   1.026   4.575  31.782 -0.1621  0.0811  0.1216
17844W        W22244  19.852   2.975  31.254 -0.1009 -0.2126  0.0189
17845W        W22245  10.925   0.255   4.301 -0.0161 -0.3147  0.0273
17846W        W22246   4.211   6.010  29.925 -0.0632 -0.1078  0.3135
17847W        W22247  23.947   6.103   9.221  0.1568  0.1512  0.0477
17848W        W22248  23.461   5.134  22.091  0.1677 -0.1635 -0.2417
17849W        W22249  26.287   4.571   4.238 -0.0521 -0.0145  0.0753
17850W        W22250  20.749   4.702   7.899 -0.0242  0.1768 -0.2762
17851W        W22251  20.066   5.255   7.982  0.1790  0.2473 -0.1676
17852W        W22252   8.603   0.724   2.895 -0.1176 -0.2367 -0.1105
17853W        W22253  14.074   5.547  21.497 -0.2682  0.4381  0.2367
17854W        W22254   6.649   2.366   8.169 -0.0298  0.0308  0.3333
17855W        W22255  23.837   5.981   4.999  0.1116  0.0994  0.3216
17856W        W22256  24.431   4.081   8.218 -0.0952 -0.1771  0.2396
17857W        W22257   8.299   3.802  32.948  0.2317 -0.2373 -0.0536
17858W        W22258  14.761   0.859   6.295  0.1425  0.2154  0.2620
17859W        W22259  13.987   0.522  29.954 -0.2247  0.0059  0.1581
17860W        W22260  22.735   3.757  23.523 -0.3178  0.0739  0.0285
17861W        W22261   6.693   3.072  13.027 -0.0320 -0.0702  0.3341
17862W        W22262  20.621   6.508  24.257  0.0872  0.0121 -0.0310
17863W        W22263  25.886   1.052  10.503  0.1351  0.0250 -0.6513
17864W        W22264  20.534   1.993   7.742 -0.1627  0.0961 -0.1188
17865W        W22265  16.996   3.845  34.315 -0.2602  0.0167  0.0202
17866W        W22266  20.180   5.556  21.379 -0.0623 -0.1040 -0.4076
17867W        W22267   8.844   0.234  26.251  0.1520 -0.1451 -0.0377
17868W        W22268  20.869   4.410   7.082 -0.0803 -0.1530 -0.0812
17869W        W22269  21.771   1.607  24.197 -0.0108 -0.0112 -0.1680
17870W        W22270  13.121   2.916  15.072  0.1752  0.0144  0.0752
17871W        W22271   2.124   3.043  14.159  0.1933 -0.1327 -0.1311
17872W        W22272  17.328   1.992  23.417  0.0870 -0.2646  0.2352
17873W        W22273  24.942   2.437   5.082  0.1055 -0.0187  0.0330
17874W        W22274   7.044   0.167  12.264  0.2186  0.0664 -0.1108
17875W        W22275   1.370   5.967   5.714 -0.2470  0.1289  0.4099
17876W        W22276  12.301   1.076  29.895 -0.0677  0.2111  0.3687
17877W        W22277   4.390   3.559   9.322 -0.0377  0.1655 -0.2537
17878W        W22278   5.574   0.362  23.331 -0.0653  0.1119  0.0855
17879W        W22279  20.779   4.432  29.996 -0.0157  0.3024  0.0689
17880W        W22280   2.740   5.252  14.245  0.0167  0.1773  0.0274
17881W        W22281   8.215   0.361   6.946  0.2088  0.2628  0.0263
17882W        W22282  11.154   5.954  24.820 -0.2401  0.2143  0.1209
17883W        W22283   3.285   2.418  11.205 -0.0888  0.1498  0.0282
17884W        W22284  22.520   1.432  28.598  0.1857  0.0738  0.1157
17885W        W22285  17.350   1.662  35.448 -0.0008  0.0840  0.1808
17886W        W22286  21.861   2.381   7.358  0.4139 -0.1510 -0.3507
17887W        W22287   5.089   0.915  25.364  0.0197 -0.1292 -0.1433
17888W        W22288  22.491   5.480  29.937 -0.0596 -0.2703  0.1395
17889W        W22289  13.353   4.246  12.108  0.0562 -0.1281 -0.0235
17890W        W22290   2.140   5.701  34.579  0.1704  0.1120 -0.1784
17891W        W22291  16.727   0.575   2.805 -0.1882  0.1704  0.1272
17892W        W22292  18.404   6.014  26.976 -0.0280 -0.1981 -0.5869
17893W        W22293   2.711   4.081   3.565 -0.3092 -0.0497 -0.1578
17894W        W22294   1.680   0.478   0.741 -0.1311 -0.0513  0.1187
17895W        W22295   6.359   2.102  20.657  0.2578  0.0373 -0.2306
17896W        W22296   8.104   3.207   3.336  0.2824  0.2364  0.1453
17897W        W22297  11.046   1.485  35.855  0.0557  0.0020  0.0654
17898W        W22298  12.759   6.494  15.534 -0.0462 -0.2284 -0.0259
17899W        W22299  23.545   1.053  15.046 -0.0831  0.1368 -0.2572
17900W        W22300  25.938   6.278  27.033 -0.1663 -0.0328  0.0298
17901W        W22301   0.126   2.275  23.648 -0.1217  0.1918  0.0146
17902W        W22302   8.505   0.796  28.693  0.2004 -0.2642  0.0618
17903W        W22303  16.232   3.436   2.896  0.0505  0.1472  0.2399
17904W        W22304   8.655   4.245  11.390 -0.0302  0.1063  0.2817
17905W        W22305  24.212   0.087  10.105  0.0938  0.0517 -0.3809
17906W        W22306   5.423   5.399   2.913 -0.1543 -0.2109  0.0339
17907W        W22307  16.483   5.112   2.993  0.2206 -0.4341 -0.2652
17908W        W22308  20.657   2.187  32.783 -0.2342 -0.0716 -0.2782
17909W        W22309  18.686   3.405  33.783 -0.3733  0.1088  0.0680
17910W        W22310  14.832   0.876   0.228  0.1739 -0.0249  0.2688
17911W        W22311  15.845   3.888  15.403 -0.0130  0.0800  0.0512
17912W        W22312   9.852   6.540   5.607  0.3291 -0.1415  0.2437
17913W        W22313  25.309   0.159   9.438 -0.0531 -0.1731 -0.2453
17914W        W22314   9.903   0.359  35.597  0.1965 -0.2791  0.2416
17915W        W22315   8.098   2.130  29.351  0.0427 -0.1950 -0.0042
17916W        W22316  15.339   3.519  33.513 -0.0683  0.0055 -0.0337
17917W        W22317   8.277   0.574   0.348  0.2366  0.0240  0.0007
17918W        W22318   0.488   3.906   5.316  0.1255  0.0725  0.2368
17919W        W22319   0.976   5.269  21.861 -0.2175 -0.1879 -0.0235
17920W        W22320   0.512   2.432   1.908 -0.4040 -0.1843 -0.3350
17921W        W22321  18.067   1.127   1.665 -0.0277  0.2211  0.3371
17922W        W22322  17.084   2.776  29.727  0.0010  0.1459  0.0616
17923W        W22323  11.637   1.494  33.712 -0.1201  0.1023  0.0765
17924W        W22324  21.828   1.817  24.662  0.2756 -0.1230 -0.1473
17925W        W22325   2.193   2.000  20.691  0.1491  0.5093  0.1678
17926W        W22326  11.071   4.857   9.810 -0.0805 -0.1818 -0.1467
17927W        W22327   4.742   5.132  22.710 -0.1921  0.3749  0.0661
17928W        W22328   6.155   5.597   2.242  0.1200 -0.0809 -0.0966
17929W        W22329  21.748   5.465  13.393 -0.1076 -0.1036  0.0373
17930W        W22330   0.658   5.167  12.515 -0.1447  0.1149 -0.0561
17931W        W22331  24.925   5.449  30.879  0.0060 -0.1251  0.0493
17932W        W22332  20.961   6.063   6.515 -0.0411 -0.3191  0.1012
17933W        W22333  23.256   5.974   1.786 -0.0475  0.0117 -0.0058
17934W        W22334  12.522   5.841   4.660 -0.1197 -0.2896 -0.3353
17935W        W22335   5.300   6.357  15.859  0.3783 -0.0988  0.0977
17936W        W22336  16.550   5.051   7.105  0.1530 -0.0706  0.0758
17937W        W22337  14.941   1.253  22.908 -0.1184 -0.1576  0.3979
17938W        W22338  11.874   0.460  29.176 -0.2030  0.0961  0.0963
17939W        W22339   7.921   2.948   0.555  0.0350 -0.1755 -0.1714
17940W        W22340  20.268   4.925  22.403 -0.2570  0.0377 -0.2225
17941W        W22341  18.799   4.104   0.483  0.0366 -0.0423  0.0384
17942W        W22342  20.626   4.529  32.784  0.2346  0.0931 -0.2014
17943W        W22343   8.661   3.470  33.918  0.2342 -0.0865  0.2390
17944W        W22344  11.388   1.124  24.915  0.1570  0.0577 -0.1496
17945W        W22345   9.281   3.871  21.593  0.2361  0.1030 -0.0102
17946W        W22346  22.350   3.997  23.732  0.2009 -0.1228  0.0186
17947W        W22347  11.120   2.633   6.959 -0.1151  0.1665  0.2481
17948W        W22348  23.801   0.615  27.367  0.0550  0.1529 -0.1146
17949W        W22349   9.076   3.047  25.295 -0.0785  0.0826 -0.0184
17950W        W22350  21.227   2.677  24.865 -0.2765 -0.1718 -0.1179
17951W        W22351  14.561   2.005  10.349  0.0496 -0.2428 -0.2284
17952W        W22352  12.430   1.898  29.537  0.2766  0.3620  0.1387
17953W        W22353  25.487   6.405  32.224  0.0848  0.0696  0.2001
17954W        W22354   4.577   3.129  10.171  0.0126  0.1353 -0.0916
17955W        W22355  12.937   3.878  32.686 -0.1448  0.2318 -0.1686
17956W        W22356  12.441   0.997  35.064 -0.2805  0.0383  0.0727
17957W        W22357  16.965   5.836  22.807  0.2282  0.0200  0.0806
17958W        W22358  13.823   1.875   5.278 -0.2520 -0.1550 -0.3830
17959W        W22359  13.726   2.317   8.265  0.5981  0.1329  0.0436
17960W        W22360  22.151   2.938   1.766  0.0271 -0.0996 -0.0366
17961W        W22361  14.373   4.905   8.743  0.0639 -0.2386 -0.0359
17962W        W22362   5.247   0.969  33.793  0.0947  0.3014 -0.3407
17963W        W22363  20.577   1.127  28.374  0.2592 -0.4976  0.0998
17964W        W22364  24.165   2.781  31.988  0.0931  0.2720  0.1652
17965W        W22365  18.622   3.126  35.166 -0.0444 -0.2194  0.1358
17966W        W22366   2.903   2.860   6.379  0.0905  0.2150 -0.1520
17967W        W22367   2.290   6.142  14.871  0.0307  0.2473  0.0340
17968W        W22368  26.320   0.380  27.599 -0.1364  0.0040  0.1382
17969W        W22369   1.840   0.924  14.036 -0.0038 -0.0338  0.0136
17970W        W22370   3.826   0.173  21.659  0.1043 -0.2097  0.0876
17971W        W22371  25.662   4.069  23.307  0.1264  0.2299 -0.3137
17972W        W22372  11.224   1.085  29.445 -0.0739  0.0467  0.2600
17973W        W22373  23.079   2.973  30.940  0.0511 -0.1984  0.1694
17974W        W22374   9.513   0.491   9.907 -0.0377 -0.0848  0.0673
17975W        W22375  19.272   1.595  31.193 -0.0805  0.0611 -0.0193
17976W        W22376  19.616   0.331   1.424 -0.0551 -0.0701 -0.2368
17977W        W22377   9.051   3.506  35.608  0.1450 -0.1042 -0.1105
17978W        W22378  13.638   3.180  32.197  0.0130  0.3002 -0.1374
17979W        W22379   2.967   5.175  27.099 -0.0123  0.3423 -0.1103
17980W        W22380  13.774   0.302  11.152 -0.0876  0.1931  0.1788
17981W        W22381   6.855   2.494   0.381 -0.1272  0.1093  0.4063
17982W        W22382   9.117   6.347   0.562  0.1032 -0.3344  0.0916
17983W        W22383  20.603   1.227  27.247  0.4307 -0.0703  0.0545
17984W        W22384  10.668   2.623  14.203  0.4071 -0.1164  0.0793
17985W        W22385  13.239   3.586  36.078  0.0390  0.0339  0.0896
17986W        W22386  16.331   6.452  24.882 -0.0166  0.2119 -0.3079
17987W        W22387   9.686   3.769  32.151 -0.1894 -0.3893  0.2755
17988W        W22388   5.887   5.834  31.599  0.0356 -0.2175  0.0015
17989W        W22389  13.052   5.954   7.395  0.1586  0.1763 -0.2854
17990W        W22390   5.637   2.750  11.627  0.0770 -0.2487  0.0710
17991W        W22391  25.558   2.045   8.311 -0.1640 -0.0030 -0.1856
17992W        W22392   9.969   4.355  26.359 -0.2349 -0.0646 -0.3697
17993W        W22393  11.694   0.024  27.090  0.0650  0.1989  0.1165
17994W        W22394  25.070   4.968   6.383  0.1215  0.1557  0.1762
17995W        W22395  11.782   0.570   2.702 -0.1079 -0.1988 -0.1727
17996W        W22396   6.995   1.537  34.251  0.0498 -0.0785 -0.0256
17997W        W22397  13.394   1.243   5.682  0.2532  0.5372 -0.0549
17998W        W22398  21.072   6.359  33.948  0.1022  0.1178  0.0760
17999W        W22399  18.693   4.540  20.345  0.4627  0.3301  0.2159
18000W        W22400   0.753   4.307  13.828 -0.0911 -0.2364 -0.0123
18001W        W22401  15.583   1.524  12.809  0.0532  0.1383  0.0619
18002W        W22402  11.195   0.781  24.088 -0.1249  0.0162  0.1935
18003W        W22403  25.140   5.623   5.643  0.2047 -0.1712  0.0076
18004W        W22404  19.419   4.878  12.017 -0.2986 -0.0578  0.0754
18005W        W22405  25.427   5.730   1.077 -0.0691 -0.1409  0.2333
18006W        W22406  13.024   4.696  21.585 -0.2346  0.0101 -0.1848
18007W        W22407   5.280   5.171  32.100 -0.0788  0.2273 -0.1806
18008W        W22408  15.142   3.333   7.824 -0.2911 -0.1347 -0.0585
18009W        W22409   1.577   6.351  33.752 -0.0865 -0.0785  0.0898
18010W        W22410   1.414   4.469  24.931  0.0134  0.0137 -0.1425
18011W        W22411   2.395   3.256  10.959 -0.1837  0.1305  0.1609
18012W        W22412  17.703   3.590  21.961  0.1970  0.2097 -0.2435
18013W        W22413   6.945   1.356   1.262  0.2663 -0.0357 -0.2483
18014W        W22414  17.986   1.049   4.319  0.0882 -0.1970  0.0497
18015W        W22415  16.392   0.359  33.543 -0.1217  0.0411 -0.0782
18016W        W22416  17.204   5.045   3.734 -0.1282 -0.2068 -0.2797
18017W        W22417  14.727   3.045  22.833 -0.0801  0.0825  0.0981
18018W        W22418  23.430   6.296  11.828  0.0093 -0.1676  0.0402
18019W        W22419   9.260   0.903   3.841  0.2208  0.0989  0.0936
18020W        W22420  22.872   6.150  33.462  0.0652 -0.0344  0.0173
18021W        W22421  25.040   3.873  32.783 -0.1445  0.1309  0.1104
18022W        W22422  19.239   0.522  10.219 -0.1087 -0.0618 -0.1662
18023W        W22423   2.575   5.847  28.300  0.1050 -0.1045 -0.1289
18024W        W22424   7.848   5.674  14.760  0.0176  0.0612 -0.1542
18025W        W22425   4.154   1.967   3.261  0.2058 -0.3164  0.0892
18026W        W22426   5.074   3.145  10.459 -0.2057  0.0062 -0.0053
18027W        W22427  17.647   2.446  21.415  0.2625  0.1185  0.1550
18028W        W22428   7.648   1.356   0.692  0.1407  0.4532 -0.0489
18029W        W22429   6.623   1.325   5.839 -0.1575  0.2099  0.4032
18030W        W22430   1.013   4.640  22.430  0.0845  0.2757 -0.2045
18031W        W22431  12.122   2.143  30.622  0.0778 -0.1585  0.1118
18032W        W22432  12.754   1.414  24.833  0.0908 -0.2778 -0.3779
18033W        W22433   0.099   3.497  11.144 -0.1905 -0.0175  0.1996
18034W        W22434  12.874   4.256  31.346  0.3006  0.1247  0.1366
18035W        W22435  14.978   3.933  16.216 -0.0983  0.1421  0.0463
18036W        W22436  24.464   2.135  12.249 -0.1792  0.0323  0.2023
18037W        W22437   7.255   1.115   3.083  0.5079 -0.2451  0.4363
18038W        W22438  20.578   6.373  33.696  0.0510  0.1069  0.0836
18039W        W22439  15.093   1.940  13.624  0.0772 -0.1465  0.0267
18040W        W22440   2.319   4.945  27.413  0.1260 -0.0044  0.0363
18041W        W22441  11.070   2.500  13.294 -0.0790  0.1062  0.1657
18042W        W22442  21.510   0.273   6.671 -0.0804  0.0974  0.1167
18043W        W22443   0.418   4.846  35.091  0.1389  0.1102  0.0003
18044W        W22444  14.843   3.312  21.496 -0.0717 -0.1452 -0.3096
18045W        W22445  21.339   5.981  33.746 -0.0155 -0.1081 -0.0456
18046W        W22446   5.717   0.661  35.103 -0.0035  0.1965 -0.1154
18047W        W22447  10.574   3.570  31.666  0.0536  0.2464 -0.0726
18048W        W22448  20.632   3.068  29.755  0.0679  0.2489  0.1976
18049W        W22449  17.301   5.617   6.198 -0.0927 -0.0033 -0.1315
18050W        W22450  22.545   4.133  10.720 -0.1836 -0.0142  0.2512
18051W        W22451   6.641   0.741  28.675 -0.0765  0.0719 -0.0719
18052W        W22452  12.486   0.917  21.721 -0.0824  0.0010 -0.1934
18053W        W22453  16.588   6.053  23.835 -0.2889  0.2731 -0.0920
18054W        W22454  24.950   3.618  22.671 -0.2886 -0.0275  0.0385
18055W        W22455  14.702   1.045  30.122  0.2178  0.2899 -0.0728
18056W        W22456  13.336   5.098  33.091 -0.2819  0.2942  0.2329
18057W        W22457  22.767   5.925  31.109  0.2407 -0.0560  0.1085
18058W        W22458  14.976   6.030  12.035 -0.1913 -0.1093  0.0150
18059W        W22459   9.959   1.031   8.937  0.0141 -0.1625 -0.0154
18060W        W22460   5.802   3.964   5.614 -0.1778 -0.5473 -0.0910
18061W        W22461  23.800   6.350  24.158 -0.1463 -0.1191  0.0755
18062W        W22462   1.339   4.221   7.180  0.2923 -0.0837  0.0177
18063W        W22463  18.649   0.106  10.729 -0.0134 -0.1631  0.3459
18064W        W22464   5.489   5.283  30.889 -0.0563  0.0584 -0.0794
18065W        W22465  23.052   1.086   0.996  0.2488 -0.2850 -0.2781
18066W        W22466   1.166   0.022  35.221 -0.0431  0.0538 -0.1954
18067W        W22467  10.791   0.780  10.533  0.2940  0.0321  0.3059
18068W        W22468   1.218   1.094  24.755 -0.1296 -0.0951  0.0467
18069W        W22469  16.029   2.651  23.170 -0.0572  0.0138  0.1724
18070W        W22470   1.092   5.594   1.920  0.0120 -0.0912  0.0352
18071W        W22471  17.426   0.686  28.690 -0.2398 -0.1612  0.0509
18072W        W22472   3.789   3.640   9.166  0.3339  0.1558  0.1631
18073W        W22473  23.532   1.111  28.629  0.0052  0.1785 -0.2386
18074W        W22474  20.843   5.990  35.150 -0.2067  0.2641 -0.1311
18075W        W22475  19.342   3.348  25.090 -0.0608  0.0989 -0.2721
18076W        W22476  23.764   1.236  12.585 -0.1524  0.1983 -0.1060
18077W        W22477   9.559   1.905  29.019 -0.1477 -0.1223 -0.0382
18078W        W22478   5.718   0.675  13.772  0.1599 -0.1292  0.0078
18079W        W22479   1.042   6.346  15.145  0.0679  0.1263  0.0223
18080W        W22480  18.418   6.043  13.353  0.1015  0.0102 -0.1345
18081W        W22481  21.166   4.636  23.803 -0.0612 -0.1026  0.1256
18082W        W22482  24.852   3.792   6.973 -0.0588  0.0096 -0.2448
18083W        W22483  23.515   5.227  26.638  0.0586  0.2768  0.1338
18084W        W22484  18.482   2.296  32.381 -0.3253  0.0548 -0.0879
18085W        W22485  24.146   5.330   1.917 -0.2289 -0.1638 -0.2968
18086W        W22486  24.474   0.334   4.999 -0.1248  0.1738  0.0224
18087W        W22487  21.505   5.841  28.664 -0.3411 -0.0698 -0.0631
18088W        W22488  10.871   1.304   3.517 -0.0030 -0.1863  0.1416
18089W        W22489   9.673   3.002  11.708 -0.0690 -0.1237  0.2580
18090W        W22490  15.150   3.347   9.759 -0.1183  0.0711 -0.0470
18091W        W22491   0.758   0.350  25.480  0.2855  0.0158 -0.1015
18092W        W22492   2.456   4.676  28.248 -0.0087  0.1920 -0.2356
18093W        W22493  18.273   4.809   3.092 -0.1218 -0.0802 -0.2890
18094W        W22494  21.802   1.258   5.637  0.2954 -0.1588  0.1875
18095W        W22495   3.284   1.716  26.869  0.1837 -0.3210  0.0002
18096W        W22496   6.815   0.394  33.333  0.1216 -0.2169 -0.1799
18097W        W22497  22.191   3.241  26.679 -0.0142  0.0327 -0.2120
18098W        W22498  19.233   0.601  33.067 -0.0212  0.0183 -0.3494
18099W        W22499  24.553   2.416   6.935 -0.1306  0.0350  0.1278
18100W        W22500  12.041   3.414  30.195 -0.1335  0.2025  0.0567
18101W        W22501   2.785   2.692   5.866 -0.1991 -0.4838  0.0450
18102W        W22502   6.395   5.708  11.135  0.0083 -0.0453  0.0711
18103W        W22503  11.371   4.872  34.109 -0.1787 -0.1940  0.0604
18104W        W22504  15.892   2.377  29.540 -0.0033 -0.1495  0.1271
18105W        W22505  13.604   2.771   6.519 -0.5400 -0.0855 -0.2308
18106W        W22506   0.891   5.246  26.391  0.0583 -0.1472 -0.0711
18107W        W22507  24.798   1.390  24.539 -0.0817  0.1246 -0.2126
18108W        W22508  19.335   1.004   2.018  0.2012 -0.1238  0.0289
18109W        W22509  23.184   1.462   4.704  0.0957 -0.0329 -0.2557
18110W        W22510   8.556   2.415  25.909  0.0176  0.0111  0.1460
18111W        W22511   7.462   5.372  11.223  0.4029  0.1116  0.0944
18112W        W22512   6.727   6.184  34.253 -0.1224 -0.1743 -0.0173
18113W        W22513  25.772   3.708  11.829  0.2104  0.3026  0.1789
18114W        W22514   4.372   0.384  13.672 -0.0977  0.2072  0.0348
18115W        W22515   2.347   2.356  28.393  0.0371  0.0044  0.1264
18116W        W22516  23.274   3.931  10.254 -0.1406  0.2099 -0.0813
18117W        W22517  14.598   1.431  11.177 -0.0605 -0.0988  0.0548
18118W        W22518  18.745   3.797   1.064  0.1317 -0.0150 -0.3501
18119W        W22519   6.811   4.312  21.342 -0.0577 -0.0625 -0.0718
18120W        W22520  14.752   2.117   9.306 -0.1511  0.3669  0.0118
18121W        W22521   1.234   4.744  13.002 -0.1192 -0.1731  0.2429
18122W        W22522  20.382   6.169   1.939  0.0354  0.1347  0.1866
18123W        W22523   8.167   5.700   6.871 -0.1060  0.0445  0.1197
18124W        W22524  12.884   3.099  21.028  0.3683 -0.1767  0.0102
18125W        W22525  10.141   5.037  12.576 -0.5469  0.1704 -0.1763
18126W        W22526  23.308   4.545  23.743 -0.2939 -0.0991 -0.1713
18127W        W22527  20.784   6.404  36.171 -0.1520 -0.3585  0.1810
18128W        W22528  23.474   5.058   1.621 -0.1658  0.0352  0.0549
18129W        W22529  12.271   3.598   7.241  0.0096 -0.0615  0.1952
18130W        W22530  11.278   5.091  11.795  0.1061  0.0030 -0.1809
18131W        W22531  18.042   5.715  32.250 -0.2234 -0.0011 -0.0418
18132W        W22532   7.144   0.485  22.977  0.5181 -0.4402 -0.3563
18133W        W22533  13.929   3.446  12.046 -0.4325 -0.0682  0.3251
18134W        W22534   5.497   4.955  11.542 -0.1375  0.0837 -0.2125
18135W        W22535   1.852   2.858  12.744  0.3667 -0.3074 -0.3797
18136W        W22536  15.659   0.884  35.850  0.1295 -0.0412  0.1041
18137W        W22537   7.031   4.178   6.940 -0.2037 -0.1390  0.0695
18138W        W22538  17.898   3.862  33.729  0.1123  0.0057  0.0362
18139W        W22539  17.488   4.328   0.263 -0.1445 -0.4181 -0.0308
18140W        W22540  10.687   2.185  25.713 -0.3972  0.1130 -0.0017
18141W        W22541   9.873   1.744  29.779  0.1143  0.0935  0.0402
18142W        W22542  16.371   0.954   6.991  0.0680 -0.1117  0.0570
18143W        W22543  18.479   1.091  23.608 -0.3557 -0.0061  0.2390
18144W        W22544  21.843   2.853   0.149  0.1350  0.1208  0.0019
18145W        W22545  23.765   0.450  35.764  0.2177  0.1270  0.0868
18146W        W22546  24.287   3.424   0.500  0.0819  0.0809 -0.1836
18147W        W22547   6.061   0.653   0.239 -0.0008 -0.0900  0.1104
18148W        W22548   3.787   1.091  28.880  0.0869 -0.0929  0.0112
18149W        W22549   7.440   5.090  30.637  0.0991  0.1780 -0.0392
18150W        W22550  11.510   6.421  12.306  0.3496  0.2301  0.0321
18151W        W22551   1.749   5.359   4.154 -0.1918 -0.3552  0.0024
18152W        W22552  18.017   5.856  22.239 -0.0598  0.0834 -0.1883
18153W        W22553  26.032   3.703   0.630  0.0157  0.0233 -0.0621
18154W        W22554  22.390   2.221  25.753  0.2197  0.0363  0.0756
18155W        W22555  25.869   6.474   0.457  0.0671  0.0648 -0.1482
18156W        W22556  14.278   5.250  25.614 -0.1380 -0.0623 -0.0160
18157W        W22557   0.715   3.471  32.551  0.3334  0.2858  0.1881
18158W        W22558  17.628   5.325  29.327  0.2522 -0.2404  0.0052
18159W        W22559  15.875   4.142  11.579  0.0163 -0.1110  0.0970
18160W        W22560  22.370   4.083  12.472 -0.1271  0.0263  0.0477
18161W        W22561  13.263   4.460  30.452 -0.0141  0.2121 -0.3378
18162W        W22562  25.174   1.656   3.469  0.0018 -0.2812  0.2457
18163W        W22563   0.952   2.537  14.631  0.1663  0.0998  0.0233
18164W        W22564  16.059   1.605  24.882 -0.0680 -0.0106  0.1157
18165W        W22565  15.810   2.887  33.888 -0.0504  0.0918 -0.0178
18166W        W22566  23.879   2.908  22.040  0.0290 -0.0867 -0.2758
18167W        W22567   2.943   6.220  29.165 -0.0358  0.0964  0.0631
18168W        W22568  17.975   2.154  29.825  0.0356  0.0972 -0.1703
18169W        W22569   5.113   1.311   6.226 -0.0094  0.2994  0.0038
18170W        W22570   0.670   6.553   5.872 -0.1291  0.0858  0.2186
18171W        W22571   6.456   3.178  32.123  0.0963  0.0469  0.1582
18172W        W22572   3.169   0.084  34.462  0.0687  0.1201 -0.4105
18173W        W22573  13.499   2.475  28.033 -0.1445  0.1394 -0.1195
18174W        W22574   6.053   5.145  22.791  0.0395 -0.0912 -0.0384
18175W        W22575  19.786   1.803  27.946  0.1804 -0.0075 -0.0639
18176W        W22576   3.684   0.767   9.652  0.1658 -0.0257 -0.1059
18177W        W22577   4.758   1.154  30.603  0.1755 -0.0181 -0.1379
18178W        W22578   4.672   0.920  25.000  0.2736  0.0727 -0.2841
18179W        W22579   3.826   0.637  31.557  0.0001 -0.0763 -0.2021
18180W        W22580  22.443   0.227   4.481 -0.0742 -0.2581  0.0907
18181W        W22581   6.049   6.597  31.567  0.0705  0.0174 -0.0292
18182W        W22582   3.227   0.892  26.974 -0.0430 -0.0294  0.0894
18183W        W22583  25.081   6.369  12.433  0.0582 -0.0484  0.1767
18184W        W22584   2.181   1.253  15.376 -0.1250  0.1803 -0.0160
18185W        W22585  11.500   1.206  35.627 -0.2885 -0.0144  0.3056
18186W        W22586  21.867   5.826  28.262  0.2222  0.0957  0.3636
18187W        W22587  15.940   1.741  35.975 -0.0690 -0.0487 -0.1945
18188W        W22588  17.973   6.292  31.321 -0.0430  0.1660  0.0564
18189W        W22589  25.225   3.715   0.744  0.1389 -0.3525 -0.0534
18190W        W22590  16.177   3.035  29.372  0.4882  0.1573 -0.0424
18191W        W22591  21.084   3.713   9.530  0.0133  0.0291 -0.1076
18192W        W22592   4.340   2.235  13.329 -0.1502  0.1806  0.3220
18193W        W22593   1.310   3.265  12.158 -0.1490  0.2086  0.0841
18194W        W22594   5.999   3.010  28.885 -0.1197 -0.0226  0.0460
18195W        W22595   0.142   2.958  13.360  0.2839 -0.0406  0.0170
18196W        W22596   4.102   2.394  11.902 -0.0817 -0.0336  0.2823
18197W        W22597  19.703   5.243  14.614 -0.0715  0.0774 -0.0532
18198W        W22598  12.333   5.189  29.098 -0.0403  0.1066  0.3208
18199W        W22599  22.925   2.745  30.475 -0.0906 -0.2185 -0.1750
18200W        W22600  17.008   5.154  26.095  0.0254  0.1132  0.2208
18201W        W22601  20.998   6.487  35.059 -0.1043  0.0932 -0.1199
18202W        W22602   3.355   4.647  14.116 -0.3689  0.0877  0.3501
18203W        W22603   7.434   5.786   4.942  0.3347 -0.0252  0.1256
18204W        W22604  21.596   3.992  13.562  0.0278 -0.2033 -0.3564
18205W        W22605   6.646   2.380  29.012 -0.2550 -0.0776  0.0460
18206W        W22606   6.834   6.349  26.141 -0.0686  0.4397  0.0378
18207W        W22607   7.702   4.194  24.723  0.0461 -0.0430 -0.0226
18208W        W22608  14.750   2.576   3.616 -0.1119  0.4290  0.0134
18209W        W22609  22.769   1.519  35.500  0.2396 -0.0016 -0.2520
18210W        W22610  14.972   0.305  20.625 -0.1880  0.0322 -0.1687
18211W        W22611   9.195   1.953   1.609 -0.2430 -0.0414  0.0911
18212W        W22612   9.432   2.818   4.950  0.0407  0.0724  0.1890
18213W        W22613   8.698   1.959  11.919  0.2038 -0.4463  0.1464
18214W        W22614  22.986   1.796   8.835 -0.2649 -0.0780  0.0446
18215W        W22615  15.871   5.885   9.166  0.2333 -0.1559 -0.1068
18216W        W22616   8.095   3.691   5.541  0.0860 -0.1033 -0.0867
18217W        W22617  19.402   6.188  21.205 -0.0017  0.3076 -0.1039
18218W        W22618  19.347   0.321   3.531 -0.0762 -0.1742  0.0857
18219W        W22619   8.343   5.408  20.287 -0.1180 -0.0544 -0.0031
18220W        W22620  15.107   3.083   0.813 -0.1371  0.2831 -0.3515
18221W        W22621  23.633   5.921   8.212  0.2742 -0.3155 -0.1595
18222W        W22622  15.094   3.761   8.118  0.1309  0.1246 -0.1518
18223W        W22623   1.993   5.233  12.867  0.1083 -0.0783  0.0054
18224W        W22624  14.666   4.249  21.574 -0.2976  0.0926  0.0605
18225W        W22625  22.261   0.447  21.153  0.1511 -0.1761  0.0690
18226W        W22626  22.490   0.173  27.295 -0.1276  0.1663  0.0991
18227W        W22627   0.676   2.750  28.004 -0.1982  0.1622  0.0252
18228W        W22628   9.224   1.075  15.091 -0.1425 -0.1008  0.0862
18229W        W22629   8.552   3.595   2.874  0.1294 -0.0966 -0.2151
18230W        W22630  12.653   2.177  22.224 -0.1272  0.3055 -0.2642
18231W        W22631  10.953   2.906   5.279  0.1342 -0.0805 -0.0379
18232W        W22632  11.074   2.680   2.287 -0.2405 -0.1337 -0.0955
18233W        W22633  21.122   0.662  25.053  0.1870 -0.3459  0.1593
18234W        W22634  16.433   2.421   1.171  0.1807 -0.1134  0.2286
18235W        W22635  25.393   1.439  22.690 -0.0228  0.3882 -0.2586
18236W        W22636  14.232   5.903  28.736 -0.2395  0.1760 -0.1104
18237W        W22637  12.825   4.341  13.848  0.2228 -0.2876  0.2534
18238W        W22638   3.747   1.415   4.466  0.0048 -0.2036  0.2511
18239W        W22639  25.837   0.884  28.352 -0.3770  0.2187  0.3785
18240W        W22640  18.008   2.476  12.977 -0.0122  0.0765 -0.0610
18241W        W22641  13.950   6.241  13.854  0.1965  0.4272 -0.0688
18242W        W22642   7.247   0.695  33.998 -0.1160  0.0435 -0.0611
18243W        W22643  16.971   4.582  10.916 -0.1060 -0.0664  0.0088
18244W        W22644   7.412   0.317  36.092 -0.2183  0.0890 -0.1747
18245W        W22645  23.060   1.465  25.740 -0.0867 -0.0707 -0.0025
18246W        W22646  23.841   5.701   5.496  0.0351 -0.1535 -0.1636
18247W        W22647  21.945   2.802  22.882  0.2496  0.0537 -0.1074
18248W        W22648   0.554   5.661   0.556 -0.2227  0.1599 -0.0711
18249W        W22649  12.615   4.858   3.363  0.1202  0.1987 -0.1242
18250W        W22650  19.714   4.140  32.670 -0.2149 -0.2929  0.0304
18251W        W22651   1.258   5.584   3.984 -0.0236  0.2395 -0.0348
18252W        W22652   3.219   1.216   5.446  0.1071 -0.0169 -0.0665
18253W        W22653  20.557   3.746  20.483 -0.3857 -0.0099 -0.0232
18254W        W22654  11.085   4.053  23.916 -0.0156  0.0079 -0.0288
18255W        W22655   1.582   0.011  30.265  0.0365 -0.0323  0.0957
18256W        W22656  26.157   3.243  31.467  0.0506 -0.0991  0.2098
18257W        W22657  18.166   6.084   4.735 -0.1119  0.2355  0.0881
18258W        W22658  22.393   2.676  22.797 -0.3035 -0.1911  0.0339
18259W        W22659  18.115   4.828  30.410  0.1242 -0.1488 -0.1116
18260W        W22660   6.508   6.070  14.399  0.0432 -0.2121  0.1050
18261W        W22661  20.976   1.726   0.316 -0.0057  0.1203 -0.0423
18262W        W22662   7.086   0.599  29.169  0.1214 -0.1522 -0.0730
18263W        W22663  17.873   2.291  14.637  0.1748  0.0816 -0.0227
18264W        W22664  18.212   3.095   0.815 -0.2361  0.1009 -0.0174
18265W        W22665  13.956   1.909   9.896  0.1226 -0.2020  0.0843
18266W        W22666   0.645   3.706  15.535  0.0441 -0.1980  0.0607
18267W        W22667  17.118   3.572   1.674 -0.2821  0.0628  0.1205
18268W        W22668  10.083   1.949   8.968  0.2749  0.0633  0.1149
18269W        W22669  24.749   5.381  10.011  0.1653  0.2630 -0.0348
18270W        W22670  21.642   5.617  24.233 -0.2286  0.0238  0.0691
18271W        W22671   9.932   4.898  30.613  0.1743  0.1339  0.0754
18272W        W22672   3.936   5.440  24.910  0.0183 -0.2973 -0.1918
18273W        W22673  13.168   5.896  32.743 -0.1010 -0.0266  0.2743
18274W        W22674   5.804   0.834   9.833  0.0400 -0.2810  0.0487
18275W        W22675  24.101   5.358  31.623  0.0080  0.1943 -0.0290
18276W        W22676  22.763   5.222   0.227  0.0617 -0.2667 -0.0733
18277W        W22677   9.795   2.628  14.138 -0.2517 -0.2748 -0.0049
18278W        W22678  10.008   6.251   0.682 -0.1660  0.3808 -0.1101
18279W        W22679   5.805   2.799  33.751  0.2800  0.2079  0.0066
18280W        W22680  19.315   4.576  33.271 -0.2423 -0.1996 -0.1813
18281W        W22681  15.109   4.914   3.904  0.0955  0.2318 -0.1374
18282W        W22682  10.772   2.055   0.060 -0.2084 -0.1584  0.2175
18283W        W22683  24.214   4.539  20.927  0.0445  0.3109 -0.1066
18284W        W22684  22.551   6.102  28.679  0.1907  0.1028 -0.0770
18285W        W22685  21.601   1.119   7.911  0.3998 -0.0920  0.5336
18286W        W22686  22.795   1.676  29.401 -0.0036 -0.4069  0.3477
18287W        W22687  19.453   4.985  13.905 -0.1049 -0.1315  0.2222
18288W        W22688  14.533   2.056  27.836  0.0504 -0.2196 -0.2411
18289W        W22689   6.597   4.074   4.596  0.0599  0.1288 -0.1080
18290W        W22690   7.638   1.605  24.681 -0.2918 -0.0419  0.0188
18291W        W22691  17.665   6.107   9.108 -0.1250  0.0958  0.2567
18292W        W22692   3.228   4.057  13.026  0.3036  0.2336 -0.1002
18293W        W22693  11.188   5.948  30.131  0.1976 -0.0475 -0.0760
18294W        W22694  17.317   3.561   2.672 -0.1865  0.0819 -0.1483
18295W        W22695  17.020   3.660  23.066 -0.1160  0.1466  0.0323
18296W        W22696  19.930   2.386  20.720  0.1098 -0.0132  0.0194
18297W        W22697  15.503   2.497  27.371  0.3192 -0.1028 -0.3714
18298W        W22698  17.183   5.670   1.270 -0.2029 -0.1707 -0.4506
18299W        W22699   0.860   1.216  25.108  0.1663 -0.1772  0.1292
18300W        W22700   1.494   1.839  29.635  0.2858 -0.1468  0.4628
18301W        W22701  17.126   4.002  22.576 -0.0356  0.1688  0.1347
18302W        W22702  11.321   1.429   4.150 -0.0833 -0.1906  0.1200
18303W        W22703  24.484   3.798   2.611  0.0314 -0.3135 -0.2317
18304W        W22704  24.877   0.781  33.287 -0.1511 -0.0036 -0.2047
18305W        W22705  18.792   2.584  12.313  0.0713  0.1750  0.0290
18306W        W22706  17.519   1.359  12.437 -0.3829 -0.0751 -0.3720
18307W        W22707   3.314   3.290  32.329  0.0098 -0.1525 -0.0294
18308W        W22708   8.692   5.896  23.196  0.0677  0.3142 -0.2429
18309W        W22709  23.971   6.020   3.384 -0.1064  0.3812 -0.2745
18310W        W22710   6.972   6.602   3.518  0.3642 -0.1826 -0.0037
18311W        W22711   7.820   6.056  35.820  0.0354 -0.1757 -0.0178
18312W        W22712   7.551   3.905  15.005 -0.4159 -0.2530 -0.1122
18313W        W22713   3.981   2.638   8.953  0.3748  0.0601 -0.0793
18314W        W22714   5.976   6.314  15.072 -0.2168  0.2358 -0.1548
18315W        W22715   3.640   4.073  26.942 -0.0689  0.1004  0.1976
18316W        W22716   1.352   4.741  30.068 -0.2942  0.2280 -0.1187
18317W        W22717  20.510   3.487   6.664 -0.0710 -0.2415  0.2038
18318W        W22718   9.556   0.404  12.560  0.1171 -0.0005  0.0660
18319W        W22719   1.255   4.957  11.617 -0.0893 -0.4944 -0.2296
18320W        W22720   1.347   0.984  34.554  0.3001  0.0842 -0.2752
18321W        W22721  14.563   2.606  35.248  0.0433 -0.1376  0.1455
18322W        W22722  10.175   5.860  28.972  0.1449  0.1351 -0.2121
18323W        W22723  20.030   0.069  11.985  0.0030  0.3525  0.0274
18324W        W22724  22.913   2.577  27.749 -0.1608 -0.0070 -0.0585
18325W        W22725  20.991   5.632   4.988  0.0505  0.1791 -0.0169
18326W        W22726   7.369   4.095  33.765 -0.0928  0.2267  0.0464
18327W        W22727   4.592   1.985  25.223  0.1425  0.0109  0.0340
18328W        W22728  10.016   3.675  29.019 -0.0057 -0.0094  0.6012
18329W        W22729  18.453   6.043  21.571  0.1838  0.3364 -0.0443
18330W        W22730  20.559   1.372  22.799 -0.0196  0.0496  0.0971
18331W        W22731  23.359   4.908   5.676 -0.0246  0.2161  0.0001
18332W        W22732  10.286   5.369  24.682 -0.1199 -0.1330 -0.1689
18333W        W22733   4.122   6.253  35.009 -0.2895  0.2323  0.0718
18334W        W22734  18.361   5.757  30.401  0.2500 -0.0855  0.3504
18335W        W22735   3.395   4.141  13.518 -0.0443  0.1172 -0.1475
18336W        W22736   3.585   4.228   5.356  0.0819  0.2352 -0.1289
18337W        W22737  12.127   1.500   0.986 -0.0204 -0.0328 -0.1346
18338W        W22738  14.442   5.212   6.615  0.1400  0.4753 -0.0764
18339W        W22739  15.680   1.498  26.084  0.2015  0.1492  0.0170
18340W        W22740  14.952   6.555   9.285  0.1974  0.1712  0.0712
18341W        W22741   6.057   0.294   6.172 -0.1480  0.3583 -0.1314
18342W        W22742   6.368   3.725  11.397  0.1365  0.0156 -0.2035
18343W        W22743  23.251   6.415   3.812 -0.1341  0.5371  0.0918
18344W        W22744  12.686   0.371  11.651  0.0864 -0.2480  0.0878
18345W        W22745   5.816   5.014  14.241  0.2943  0.2579  0.1138
18346W        W22746  19.847   4.078   9.690 -0.1849 -0.0219  0.1108
18347W        W22747  17.490   4.813  25.166  0.0068 -0.0431  0.2529
18348W        W22748  17.903   2.848   2.140 -0.0832  0.0051  0.2431
18349W        W22749  22.828   5.290  21.458 -0.0468 -0.0676 -0.1226
18350W        W22750  16.066   0.270  11.780  0.0024  0.1773 -0.1064
18351W        W22751  19.523   2.135  35.246  0.2126  0.1362 -0.1315
18352W        W22752  10.683   3.125  33.278 -0.0461  0.2765 -0.1375
18353W        W22753   5.155   3.309  29.079 -0.0416 -0.0820 -0.0955
18354W        W22754  13.997   6.495  11.308  0.1936 -0.2138  0.0749
18355W        W22755  23.701   2.797  35.407  0.0637 -0.0393 -0.0721
18356W        W22756  10.382   2.577  34.693  0.0034 -0.1500 -0.0014
18357W        W22757   8.324   4.666   9.753  0.1101  0.1891 -0.0105
18358W        W22758   4.592   2.353   7.100  0.2284  0.1747 -0.2931
18359W        W22759   6.019   1.112  34.496  0.0358 -0.2541 -0.0126
18360W        W22760  15.012   3.666  11.449 -0.2966  0.2677 -0.1161
18361W        W22761   3.335   4.159  25.586  0.3321  0.1350  0.3167
18362W        W22762  22.620   6.416  13.194 -0.0634 -0.2731 -0.1608
18363W        W22763  14.159   1.411  34.248  0.0854  0.1386  0.3371
18364W        W22764   0.279   0.863   4.655  0.0245  0.0222 -0.1152
18365W        W22765  14.586   1.485  35.061  0.2058  0.2339 -0.1514
18366W        W22766  25.986   1.996   8.934 -0.1149  0.0362  0.2679
18367W        W22767   8.978   4.819   3.739  0.4200  0.1136  0.1179
18368W        W22768   4.058   1.440   6.132  0.1351 -0.0566 -0.0245
18369W        W22769   4.429   1.816  13.030  0.0583 -0.2950 -0.2383
18370W        W22770   6.200   5.696   7.250  0.0453 -0.0851 -0.0197
18371W        W22771  23.312   1.369   9.046  0.0549 -0.2832  0.0972
18372W        W22772   8.047   3.682  27.259 -0.0281  0.0409  0.1033
18373W        W22773  23.727   0.477   1.635 -0.1275 -0.4388 -0.1025
18374W        W22774  10.336   5.478   8.829  0.0133 -0.0963 -0.0757
18375W        W22775  16.597   5.385  10.157  0.1096  0.2604 -0.0995
18376W        W22776  11.463   3.520  33.263 -0.0505 -0.0691 -0.1574
18377W        W22777   6.193   6.134  25.514  0.0534 -0.1543 -0.0352
18378W        W22778  21.857   4.050   7.947 -0.0302 -0.0477 -0.0647
18379W        W22779   4.052   0.494  26.911 -0.0449 -0.0731  0.2516
18380W        W22780  20.458   5.266  35.555 -0.0931 -0.0718  0.1533
18381W        W22781   3.521   5.638  33.000 -0.1666  0.2455 -0.3398
18382W        W22782   7.263   2.331  31.964 -0.0777 -0.3593 -0.4300
18383W        W22783  12.350   2.531   5.595  0.0440  0.2537 -0.1168
18384W        W22784  12.339   4.911  29.610 -0.1728  0.3318  0.0697
18385W        W22785  21.966   3.175  12.375 -0.1917  0.0832 -0.1558
18386W        W22786  15.513   3.475   3.317 -0.0987 -0.4024  0.1678
18387W        W22787   0.456   4.369   1.207  0.0650 -0.1466 -0.3027
18388W        W22788  21.772   4.176  29.977 -0.0394  0.0852 -0.0774
18389W        W22789  14.375   5.177  14.941 -0.2854  0.4086 -0.0862
18390W        W22790   1.849   2.292  27.992 -0.1931 -0.0635  0.0238
18391W        W22791   5.910   6.058   1.412 -0.0403  0.0181  0.1030
18392W        W22792   2.041   2.975   9.131  0.1765 -0.2137  0.0148
18393W        W22793   4.731   3.109  15.120  0.0286  0.3413  0.2590
18394W        W22794   9.433   5.353  23.982  0.0184  0.0574  0.1343
18395W        W22795  15.674   6.359  26.001 -0.1649 -0.0265  0.0828
18396W        W22796   5.846   2.844  30.831 -0.0520  0.2372 -0.0612
18397W        W22797  12.562   3.556  31.689 -0.2407  0.0380  0.2947
18398W        W22798  15.806   5.936   3.114 -0.0049 -0.0105 -0.1198
18399W        W22799   8.595   5.035   1.807  0.1067  0.0138  0.1325
18400W        W22800  25.407   2.768   6.781 -0.2496 -0.2569  0.2774
18401W        W22801  24.382   2.392  26.483 -0.4114 -0.0272 -0.0231
18402W        W22802  14.478   0.965  33.573  0.0634  0.1463 -0.2838
18403W        W22803   8.604   0.351   5.898 -0.1107  0.0026  0.0609
18404W        W22804  24.104   1.464   4.382 -0.0075 -0.1350  0.1148
18405W        W22805  21.510   2.351   3.901 -0.2512 -0.2675 -0.0347
18406W        W22806   4.817   1.407  24.609  0.2773 -0.1031 -0.2108
18407W        W22807  25.052   2.411  35.216  0.1876  0.1189 -0.0594
18408W        W22808  14.405   5.063  35.649 -0.3152 -0.0330  0.0944
18409W        W22809  25.920   3.402  14.719 -0.1120  0.2343 -0.0231
18410W        W22810  13.430   0.392   9.311  0.0768 -0.1882  0.1915
18411W        W22811   1.712   2.442   7.246  0.1059 -0.1126 -0.0220
18412W        W22812   4.466   2.158  32.114 -0.1148  0.1549 -0.1643
18413W        W22813   2.326   4.141  25.086 -0.4547  0.0142  0.0134
18414W        W22814  23.960   5.631  13.729  0.5490  0.0589  0.0457
18415W        W22815  19.327   6.009  34.067  0.1962 -0.0002  0.2977
18416W        W22816   7.647   5.000  26.185 -0.0664 -0.3031  0.0634
18417W        W22817  15.951   3.978  26.684 -0.1614  0.1747  0.0724
18418W        W22818   6.072   2.470  22.978  0.0820  0.2313  0.1611
18419W        W22819   6.322   6.055  12.455  0.0430 -0.2783  0.1830
18420W        W22820   8.537   0.865  11.402 -0.0646  0.0097 -0.0298
18421W        W22821   8.763   5.816  10.113  0.3468 -0.1912  0.1250
18422W        W22822  11.350   3.816  28.493 -0.0661 -0.1664 -0.2462
18423W        W22823  21.662   0.085   2.994  0.1211  0.0566 -0.0438
18424W        W22824   9.081   1.905   3.993  0.0581 -0.3062  0.2212
18425W        W22825  23.030   6.021  14.325  0.0320  0.0023  0.3359
18426W        W22826  13.816   2.623  10.169 -0.1386 -0.0944  0.1218
18427W        W22827  17.618   2.147   9.739 -0.0415 -0.1987  0.1414
18428W        W22828  13.084   6.548   0.283  0.3346 -0.0367  0.0610
18429W        W22829  14.191   3.854  12.855  0.0183 -0.3249 -0.4343
18430W        W22830   6.867   6.319   8.238 -0.3201  0.2659 -0.2837
18431W        W22831   4.185   5.445  29.174 -0.1329 -0.0998  0.0327
18432W        W22832  17.551   6.340   6.331  0.1360 -0.0688  0.0707
18433W        W22833   4.733   0.640   7.434  0.1294  0.4319  0.3223
18434W        W22834  16.117   5.686  29.666 -0.0763  0.1010 -0.0074
18435W        W22835   6.024   6.305   6.059 -0.0995  0.2519 -0.2563
18436W        W22836  21.735   4.442   4.866  0.1751 -0.0349 -0.4492
18437W        W22837  15.564   3.931   1.538  0.3059  0.2374 -0.0389
18438W        W22838  22.247   5.555  22.063  0.1781 -0.0533  0.1162
18439W        W22839  17.558   0.463   8.678  0.2042  0.1897 -0.1511
18440W        W22840  14.371   3.918  21.966 -0.1562  0.2660 -0.1903
18441W        W22841   2.789   1.642   0.265  0.4943 -0.1141  0.0798
18442W        W22842  16.953   5.162   1.266 -0.2206  0.0152 -0.0395
18443W        W22843   9.052   2.936  10.002  0.0838  0.2546  0.1261
18444W        W22844  16.247   3.892  10.231 -0.2089 -0.0922 -0.2298
18445W        W22845  21.834   6.086  22.837  0.2182  0.0256 -0.1298
18446W        W22846   5.441   1.339   9.725  0.0555 -0.2028  0.2832
18447W        W22847   7.712   4.960  13.878  0.2098 -0.2263  0.0363
18448W        W22848  21.891   3.891   6.594 -0.2043 -0.2865 -0.2925
18449W        W22849   8.132   5.046   7.357  0.0904  0.1735  0.2602
18450W        W22850   2.870   1.589  10.365 -0.1628 -0.0096  0.0211
18451W        W22851  11.936   1.402  33.173 -0.0909  0.2003  0.2383
18452W        W22852  14.196   3.296  35.947 -0.3319 -0.0499  0.0240
18453W        W22853  23.736   4.248   1.402 -0.0493 -0.2288  0.1847
18454W        W22854   8.935   4.132  27.389 -0.1813  0.2241 -0.0979
18455W        W22855   1.056   3.102  24.219 -0.1176 -0.0169  0.1255
18456W        W22856   4.435   6.191  24.503  0.0441  0.0659  0.0945
18457W        W22857   1.691   5.071   8.946  0.0357 -0.2211  0.1568
18458W        W22858   4.402   1.821   7.023  0.2020 -0.1286 -0.2020
18459W        W22859  13.814   4.455  13.835  0.0462  0.1149 -0.0408
18460W        W22860  26.314   5.634   9.678  0.0030  0.0721  0.2216
18461W        W22861  10.489   1.925  12.660 -0.1036  0.0189 -0.1398
18462W        W22862   2.866   1.299  28.327  0.0742  0.1539 -0.3026
18463W        W22863  20.888   3.414   9.869 -0.0886 -0.2541 -0.1715
18464W        W22864  22.965   2.808  15.225 -0.2755 -0.1630 -0.1437
18465W        W22865   8.425   6.347   9.983 -0.0241 -0.0250 -0.0201
18466W        W22866  12.628   4.674  22.973 -0.0408 -0.3235  0.1993
18467W        W22867  13.844   5.777  22.967 -0.1640 -0.0413 -0.0290
18468W        W22868   6.376   0.491  20.059  0.1247  0.1925  0.1774
18469W        W22869  19.617   2.690  10.717 -0.0061  0.0422  0.1191
18470W        W22870  24.100   6.413  29.454  0.0405 -0.1125 -0.0255
18471W        W22871  11.498   2.585  31.250  0.0345 -0.0371  0.0388
18472W        W22872  16.032   1.821  30.921 -0.1824  0.1977 -0.0624
18473W        W22873  14.629   1.725  15.435  0.1565  0.1253 -0.1432
18474W        W22874   5.471   5.478   5.931 -0.1117  0.1612 -0.0081
18475W        W22875   7.196   3.720   3.299  0.1457  0.4210 -0.0826
18476W        W22876  18.794   2.623  14.148  0.0121  0.3662  0.3856
18477W        W22877  21.200   6.603  27.955  0.0689  0.1416 -0.1675
18478W        W22878  21.078   4.771  32.572 -0.1238 -0.4862 -0.1954
18479W        W22879  25.104   0.982  27.664 -0.3374  0.0928  0.0723
18480W        W22880   7.375   1.302  29.755  0.0630  0.0566 -0.0406
18481W        W22881   0.655   1.613   6.678  0.0520 -0.2081  0.1304
18482W        W22882  12.199   4.491  35.068  0.1127 -0.1515 -0.1925
18483W        W22883  14.265   5.366  25.142  0.3014  0.1062  0.2109
18484W        W22884  13.759   0.274  35.324 -0.2750  0.4057 -0.1574
18485W        W22885   5.566   4.555  13.058  0.2017 -0.1287 -0.0042
18486W        W22886   8.201   2.770  25.304 -0.2170  0.0151 -0.2062
18487W        W22887  17.952   0.315  21.614 -0.0731  0.3280  0.0597
18488W        W22888   8.566   5.506  33.889 -0.3526  0.4745  0.1273
18489W        W22889   5.663   6.156  25.564 -0.0773 -0.2318  0.0908
18490W        W22890  18.099   3.197   4.409  0.4400  0.1200  0.3597
18491W        W22891   8.949   3.240  24.184  0.3195 -0.1537 -0.1235
18492W        W22892   1.056   4.538   1.794 -0.3082 -0.3763  0.0231
18493W        W22893  15.137   0.414   7.953 -0.1066  0.0870  0.0695
18494W        W22894  15.803   0.973   1.838  0.0403 -0.3631  0.0835
18495W        W22895   8.316   4.947  11.516 -0.0065  0.0278 -0.0960
18496W        W22896  13.881   5.061  12.327 -0.1264  0.0337 -0.1414
18497W        W22897  13.553   1.016  31.865 -0.1383 -0.0129 -0.0111
18498W        W22898   1.948   0.559   6.280  0.0643 -0.3616 -0.2865
18499W        W22899  14.483   6.217   9.444  0.1023 -0.1072  0.1956
18500W        W22900   5.184   0.572   7.325 -0.1335  0.1799 -0.1758
18501W        W22901  20.502   3.181  35.218  0.0139 -0.0088 -0.2493
18502W        W22902  24.813   4.092   0.024 -0.0572 -0.0698  0.1908
18503W        W22903  22.511   0.930  25.235  0.3330  0.2692  0.1639
18504W        W22904   6.036   4.833  23.192 -0.1852 -0.1889 -0.0894
18505W        W22905  16.460   4.280   2.774  0.2244  0.0059 -0.2977
18506W        W22906   7.824   4.963  34.300  0.0755  0.0644 -0.3103
18507W        W22907  15.706   2.785   5.714 -0.3820 -0.2170 -0.2064
18508W        W22908  19.877   4.452   8.787  0.1674 -0.1003  0.2381
18509W        W22909  16.387   1.174  10.888  0.2438  0.2432 -0.2965
18510W        W22910   8.048   1.809   6.962  0.1529 -0.4148 -0.2560
18511W        W22911   1.907   4.984  30.328  0.2534  0.0873 -0.2952
18512W        W22912   6.611   3.063  30.204 -0.0084  0.2347 -0.0336
18513W        W22913  13.341   3.231   7.436 -0.1206 -0.0743  0.3473
18514W        W22914   1.672   0.356  13.973  0.2794  0.0456  0.1860
18515W        W22915  22.711   4.199   8.926  0.1170  0.1292 -0.0432
18516W        W22916  19.086   6.314  11.949  0.3094 -0.0850 -0.0827
18517W        W22917   0.553   4.374  27.028  0.0812  0.1278  0.0529
18518W        W22918  24.908   0.024  10.594 -0.0458 -0.2250  0.0642
18519W        W22919   4.027   1.902  24.417  0.0899  0.4660 -0.1472
18520W        W22920  17.042   2.826   0.877  0.2493  0.1306 -0.0671
18521W        W22921   1.267   0.227  25.828  0.2353 -0.1059  0.0230
18522W        W22922  23.785   4.887   0.162 -0.0930 -0.0637  0.6061
18523W        W22923  26.297   0.605   4.512 -0.1283 -0.0402 -0.0978
18524W        W22924  16.813   3.027  14.593  0.3843 -0.3693 -0.0344
18525W        W22925   6.835   0.030   0.681  0.4795 -0.2277 -0.0343
18526W        W22926  21.247   2.650  13.620  0.0227 -0.0388 -0.1213
18527W        W22927   3.606   3.227  26.718 -0.0373  0.1494 -0.0786
18528W        W22928  15.651   2.237  11.133  0.3447 -0.0982  0.1753
18529W        W22929   2.686   5.924  13.245  0.4156 -0.0689  0.0702
18530W        W22930  12.863   4.010  24.720  0.2499  0.0968  0.3938
18531W        W22931   3.835   4.471   3.459 -0.1075  0.1742 -0.1808
18532W        W22932   2.262   2.567   3.919  0.1755  0.6524 -0.3680
18533W        W22933  23.546   1.528  21.764  0.0545 -0.1034  0.0880
18534W        W22934  16.126   4.040  34.303  0.3126 -0.2899 -0.0395
18535W        W22935  17.144   2.259  13.477 -0.2019 -0.0339 -0.0957
18536W        W22936  10.609   1.022  30.103  0.1594 -0.0058 -0.0375
18537W        W22937  17.202   5.400  12.471 -0.0936 -0.2719  0.2128
18538W        W22938   5.038   0.996  10.561  0.0801  0.0985  0.3938
18539W        W22939  19.157   0.359  35.286  0.2191  0.0308 -0.2751
18540W        W22940  15.012   0.972   8.233  0.2005  0.1930  0.0442
18541W        W22941  13.781   4.685  13.366 -0.0720  0.0974  0.4090
18542W        W22942  13.836   3.047   3.162 -0.1507  0.0318 -0.0061
18543W        W22943   7.081   4.003   5.416  0.2409  0.2020  0.3620
18544W        W22944   4.081   0.485  23.038 -0.0861  0.0105 -0.0412
18545W        W22945  21.824   1.699   6.236 -0.0419 -0.4094 -0.2523
18546W        W22946   6.345   0.480  31.657 -0.0848 -0.2202 -0.0213
18547W        W22947  11.202   2.937   9.937 -0.0455 -0.3323  0.1459
18548W        W22948   7.645   4.917   1.956  0.0521  0.1055  0.2869
18549W        W22949   9.394   0.132   5.540 -0.0365 -0.4890  0.0760
18550W        W22950  23.552   2.923   7.287  0.0648  0.1221 -0.2271
18551W        W22951   4.153   3.646   5.742  0.0904  0.0662  0.0328
18552W        W22952   0.096   2.411   1.067  0.1878  0.2540 -0.1862
18553W        W22953   5.581   0.015  25.170  0.2943 -0.2612 -0.3076
18554W        W22954   6.072   1.063  13.754 -0.2203 -0.1979 -0.2449
18555W        W22955  10.684   3.753   8.693  0.2286 -0.1481 -0.0720
18556W        W22956  12.656   5.048   5.264 -0.0870  0.3421  0.1818
18557W        W22957  15.715   1.096  34.443 -0.1739 -0.1982  0.4122
18558W        W22958  24.902   0.211  31.126 -0.3083  0.0288  0.0135
18559W        W22959  15.861   5.388   4.531 -0.0644  0.0620 -0.3620
18560W        W22960   3.353   2.430  24.174  0.2161  0.2092 -0.2048
18561W        W22961  17.941   2.913   3.008 -0.0214  0.1086 -0.2120
18562W        W22962  20.181   6.328   9.991 -0.1387 -0.3643 -0.1694
18563W        W22963   0.594   0.529  10.029  0.2482 -0.2069 -0.2122
18564W        W22964  11.395   1.827  24.884  0.0341 -0.1772  0.0806
18565W        W22965  22.592   0.764  23.227 -0.1703 -0.2119  0.0594
18566W        W22966   5.893   2.531   2.490  0.0412 -0.0613 -0.1793
18567W        W22967  24.623   1.326  12.821 -0.0722  0.1092  0.1807
18568W        W22968  12.109   6.052  27.592  0.1575  0.0160 -0.2766
18569W        W22969  24.651   5.415   4.354  0.1343  0.0915  0.2174
18570W        W22970  21.319   5.970   8.080 -0.1259  0.1498  0.1518
18571W        W22971  19.940   3.664  13.301 -0.2491 -0.0716  0.0503
18572W        W22972   1.246   3.874   0.633  0.3655  0.2347  0.2143
18573W        W22973  18.063   3.093   5.840 -0.2317  0.1702  0.1888
18574W        W22974   5.004   0.326  35.900 -0.0809  0.0397  0.1495
18575W        W22975   7.660   0.714  35.893 -0.0561 -0.1322 -0.0989
18576W        W22976   9.611   5.634  21.000  0.0299 -0.1852  0.3939
18577W        W22977   2.748   4.721  25.406  0.0597  0.0078  0.0155
18578W        W22978  19.096   4.306  24.908 -0.0379 -0.2357  0.1435
18579W        W22979   5.759   4.015   0.421 -0.2182  0.0243 -0.3005
18580W        W22980  11.744   4.143   1.945  0.3143  0.4346 -0.0125
18581W        W22981   0.835   4.413  33.322 -0.0696  0.2843 -0.0359
18582W        W22982  21.269   5.424  28.867 -0.1227  0.0315  0.1897
18583W        W22983   1.798   6.038  12.804 -0.0525 -0.3651 -0.0787
18584W        W22984   4.538   0.219  29.681  0.2185 -0.1661 -0.0093
18585W        W22985   6.526   4.351   2.531 -0.0286 -0.0330 -0.2158
18586W        W22986  25.362   4.551   6.542  0.0419 -0.0189  0.1225
18587W        W22987   2.447   1.061   6.354 -0.0111  0.1646 -0.2184
18588W        W22988  15.426   5.482  12.588 -0.0166 -0.1753 -0.1124
18589W        W22989  12.373   5.954  15.517  0.0701  0.0825 -0.0001
18590W        W22990   7.623   0.432   4.593 -0.0096 -0.0678  0.3093
18591W        W22991   0.809   3.317  10.206 -0.2318  0.2855  0.0171
18592W        W22992  25.423   5.812  35.102  0.1650 -0.0296 -0.1305
18593W        W22993  12.032   1.258  12.974 -0.1172 -0.2012  0.1188
18594W        W22994  20.213   0.133  33.463 -0.1846  0.0089  0.2012
18595W        W22995  10.146   2.356  22.545  0.1797 -0.0275 -0.2555
18596W        W22996   6.648   4.471  34.158 -0.3167  0.1979  0.1686
18597W        W22997  20.754   5.842  13.157 -0.2906 -0.3661  0.0750
18598W        W22998  21.901   2.800  13.449  0.1318  0.1969  0.0761
18599W        W22999   1.027   2.050  13.684 -0.0025  0.1771  0.0069
18600W        W23000  11.080   5.630  29.298 -0.3306 -0.0882  0.0461
18601W        W23001  24.929   1.631   6.043  0.1875 -0.1952 -0.1066
18602W        W23002   1.179   5.003   7.564  0.0514  0.0397 -0.2660
18603W        W23003  11.231   1.512  35.014 -0.0372 -0.4775  0.0566
18604W        W23004  21.363   6.550  31.991  0.1665 -0.2549 -0.1284
18605W        W23005  15.604   0.776  27.126  0.1836  0.2596 -0.0793
18606W        W23006   2.947   6.419  28.667  0.0573 -0.1309  0.0079
18607W        W23007  16.649   2.369  13.145 -0.1025  0.0548 -0.0844
18608W        W23008   3.990   3.008  26.441  0.0465  0.2521 -0.1235
18609W        W23009  16.198   0.294  33.023  0.4062 -0.1798 -0.3550
18610W        W23010  25.080   6.601   2.622  0.0076  0.2122  0.0390
18611W        W23011  10.183   0.922   5.232 -0.4372 -0.0443  0.1693
18612W        W23012  24.220   2.372  20.896 -0.0485  0.1654 -0.1990
18613W        W23013  11.290   0.849   8.896 -0.1402 -0.0852 -0.0643
18614W        W23014  25.271   1.803  13.461 -0.0560  0.0153 -0.1334
18615W        W23015  10.624   5.829   1.072 -0.1130  0.2166  0.2448
18616W        W23016  19.421   5.748  11.470  0.2979  0.1516 -0.2581
18617W        W23017  24.366   4.348  25.958  0.0989  0.3094  0.2102
18618W        W23018  22.740   2.577   2.929 -0.0616  0.0567  0.1073
18619W        W23019   7.717   0.270   2.943  0.1015  0.1020  0.2093
18620W        W23020   4.384   1.182   8.799 -0.2750 -0.1697 -0.1419
18621W        W23021  24.337   4.510   7.884 -0.0914 -0.1248  0.1281
18622W        W23022  21.186   5.469  29.335  0.2008 -0.1204 -0.0441
18623W        W23023   5.672   6.249   8.956  0.0596 -0.4221  0.0620
18624W        W23024   1.716   5.725   9.576 -0.0033 -0.4620  0.1596
18625W        W23025  15.428   5.906  26.698  0.0444  0.0467  0.2177
18626W        W23026  24.513   3.024  30.034  0.0875  0.0331  0.3616
18627W        W23027  14.027   3.352  30.488  0.1256  0.0219  0.0578
18628W        W23028   8.032   5.156  11.905  0.2435 -0.1365 -0.2077
18629W        W23029  15.506   3.391  10.109  0.2467 -0.1399 -0.0759
18630W        W23030   5.821   5.561  24.945 -0.0480 -0.1575 -0.0063
18631W        W23031   3.418   3.684   8.289 -0.1376  0.1799 -0.0703
18632W        W23032   1.636   1.048   5.698  0.2335 -0.0199 -0.2371
18633W        W23033  11.107   4.239  15.850 -0.4235 -0.0525  0.2427
18634W        W23034   4.023   4.047  13.835  0.0084 -0.1016  0.2580
18635W        W23035   9.507   2.803  28.777  0.0241  0.0807  0.0449
18636W        W23036  15.913   1.352  14.963 -0.1360 -0.0077 -0.0784
18637W        W23037  19.399   6.337   2.352  0.2124  0.4418  0.0714
18638W        W23038   0.412   2.650  31.148 -0.1394 -0.0632  0.2453
18639W        W23039   9.101   5.848  32.696  0.1525  0.2024  0.0572
18640W        W23040  23.659   1.420  12.155  0.2915  0.3515  0.0234
18641W        W23041   9.496   2.942  21.044  0.1566 -0.0245 -0.1649
18642W        W23042  15.439   4.327  12.653 -0.1009  0.2356 -0.1126
18643W        W23043   5.504   4.538  31.511  0.0930  0.1106 -0.2123
18644W        W23044  11.282   0.253  28.406 -0.0759  0.1520  0.1258
18645W        W23045   3.247   4.794   9.679 -0.0623 -0.1747 -0.0795
18646W        W23046   7.238   4.321  28.854 -0.3214 -0.3092 -0.0738
18647W        W23047  22.418   1.854  23.619  0.0909  0.1616  0.0054
18648W        W23048  25.997   4.994  25.584 -0.1833  0.1565 -0.3184
18649W        W23049   6.663   1.217   9.231 -0.0006  0.2152  0.1108
18650W        W23050  20.362   4.167   9.955 -0.1059  0.1558 -0.0887
18651W        W23051  25.178   0.604  27.186  0.0143  0.2405  0.1542
18652W        W23052  21.142   4.064   0.186  0.2714 -0.0238 -0.0387
18653W        W23053  12.261   3.442  29.666 -0.0798  0.0281 -0.5280
18654W        W23054   6.738   4.698   0.607  0.1703  0.2970  0.0031
18655W        W23055   8.363   5.775  20.994 -0.0258  0.1430 -0.0710
18656W        W23056   5.523   1.951  22.199  0.2428 -0.0570  0.2583
18657W        W23057   7.242   2.317   0.644  0.3088 -0.0995  0.1777
18658W        W23058   2.055   1.809   5.310  0.0834  0.0369 -0.0732
18659W        W23059  25.342   2.651  24.248 -0.1327 -0.0033 -0.1889
18660W        W23060  19.930   5.985  13.301  0.1787 -0.0429 -0.1073
18661W        W23061  13.121   0.029   7.031 -0.0894  0.3811  0.0872
18662W        W23062   6.779   5.930  27.979  0.1803  0.0601 -0.0278
18663W        W23063  15.481   4.787  26.202  0.0967 -0.0804  0.1356
18664W        W23064  10.357   0.490  14.597 -0.0738 -0.5336 -0.3517
18665W        W23065  17.347   5.337   7.486 -0.1043  0.2052  0.1081
18666W        W23066   9.114   4.319  25.790  0.2598  0.0448 -0.3742
18667W        W23067   2.829   3.194  24.029  0.0064  0.3349 -0.2157
18668W        W23068  17.489   2.734  34.343  0.0562  0.1406  0.2141
18669W        W23069   7.230   0.573  35.676 -0.1726 -0.0321  0.2415
18670W        W23070  20.342   2.036  26.895 -0.2000 -0.2050  0.1452
18671W        W23071  20.148   1.156   1.820  0.2544 -0.0195  0.0099
18672W        W23072  17.805   1.819   1.281  0.0739 -0.1135 -0.1299
18673W        W23073   9.825   2.027   7.213  0.0471 -0.1998 -0.4176
18674W        W23074  16.926   1.149  25.942  0.1266 -0.1023  0.0287
18675W        W23075   4.127   5.112  32.500  0.0977 -0.3128 -0.0596
18676W        W23076   8.003   1.335  29.949  0.1333  0.3895 -0.1300
18677W        W23077  23.103   2.620  23.719 -0.3683 -0.0656 -0.1262
18678W        W23078  10.175   3.975  29.869 -0.0944 -0.2213 -0.0442
18679W        W23079  25.724   0.942   9.938  0.2226  0.2716 -0.1525
18680W        W23080  15.188   4.130   0.664 -0.2211  0.2518  0.1110
18681W        W23081   0.959   0.732  29.669  0.0970 -0.1105 -0.0692
18682W        W23082  25.088   0.988   9.125 -0.0686 -0.0009  0.2096
18683W        W23083   7.972   5.093  24.113  0.0531 -0.1593 -0.0362
18684W        W23084   6.118   3.161   3.894  0.0852 -0.0362 -0.0943
18685W        W23085   1.065   4.343  29.022 -0.0255 -0.0538 -0.0970
18686W        W23086  20.006   1.095   8.661 -0.2050  0.1337 -0.1327
18687W        W23087  25.679   0.818  11.325  0.1638  0.2211  0.4004
18688W        W23088  13.744   2.710  34.343  0.3061  0.0562 -0.3704
18689W        W23089  24.211   5.002   4.999  0.0556 -0.2295 -0.2077
18690W        W23090  25.680   1.657   0.225  0.0723 -0.2979  0.4973
18691W        W23091   5.412   2.489  35.680  0.0120 -0.0884 -0.0941
18692W        W23092  22.592   5.305   3.739  0.1000  0.1509  0.0657
18693W        W23093   6.895   0.606   5.085 -0.0279  0.0274  0.1485
18694W        W23094  22.389   0.232  22.179  0.0669 -0.0957 -0.0154
18695W        W23095   2.040   0.181   8.824  0.0014  0.3839  0.0347
18696W        W23096   0.701   0.869  33.807  0.1247  0.2638 -0.3607
18697W        W23097   4.206   4.498  10.158  0.0135 -0.3070  0.4845
18698W        W23098   0.140   6.514  35.377 -0.1493  0.0714  0.0791
18699W        W23099   9.120   5.767   3.030  0.1069  0.2374 -0.0389
18700W        W23100  13.270   3.146  24.762 -0.1405 -0.1637  0.0058
18701W        W23101  17.727   1.298  34.652 -0.0901 -0.0190 -0.0130
18702W        W23102   5.693   4.856  12.012 -0.0355  0.0190  0.2298
18703W        W23103  20.101   1.066   5.042 -0.0029  0.2036 -0.1718
18704W        W23104   7.435   4.132   3.311  0.1198 -0.0708  0.1124
18705W        W23105  12.235   6.453  29.964 -0.0025 -0.0609 -0.4428
18706W        W23106  24.133   0.208   3.703 -0.3135  0.1871  0.0396
18707W        W23107  21.915   3.581  21.597 -0.0118  0.1382  0.2648
18708W        W23108  16.137   5.183  29.923  0.0839  0.3112  0.0665
18709W        W23109  26.335   5.940  31.943 -0.1505  0.1547  0.0681
18710W        W23110  20.258   0.424   7.542  0.0669  0.0668 -0.0267
18711W        W23111  23.384   3.139  31.582 -0.2789 -0.2621  0.0151
18712W        W23112  16.224   1.325  24.454  0.0954 -0.0403  0.1338
18713W        W23113   3.329   5.914   4.793 -0.1812 -0.4414  0.1038
18714W        W23114  22.877   0.507  21.381 -0.2216 -0.1509  0.1634
18715W        W23115   4.884   3.679   6.644  0.1856  0.0593 -0.2045
18716W        W23116  10.297   6.024  31.910 -0.0157 -0.1717  0.0719
18717W        W23117  25.802   2.707  23.855 -0.1618  0.1345  0.0316
18718W        W23118  18.483   1.419  27.772 -0.1311 -0.3466 -0.1399
18719W        W23119  15.050   1.553  32.422 -0.2140  0.1123 -0.3178
18720W        W23120   9.432   1.610   5.041 -0.1318 -0.1405  0.0548
18721W        W23121  13.731   6.044  14.271  0.3224  0.2299  0.1715
18722W        W23122   3.044   6.224  26.288 -0.2740 -0.3821  0.4606
18723W        W23123   9.415   2.891  10.326 -0.1160 -0.2589  0.0479
18724W        W23124  22.140   1.311  35.260 -0.0503  0.2609  0.0905
18725W        W23125   5.434   5.163  10.567  0.2823  0.2751  0.0650
18726W        W23126  12.877   0.497  13.829  0.3221 -0.0830 -0.0466
18727W        W23127  13.675   4.852   3.217 -0.1071  0.1950 -0.1181
18728W        W23128   6.893   1.265  34.672 -0.0895 -0.1277 -0.0877
18729W        W23129   1.874   1.989  21.225 -0.0015 -0.0590  0.6689
18730W        W23130  18.262   5.129   8.328 -0.1262 -0.0706 -0.1411
18731W        W23131  23.552   1.400  22.299 -0.1386 -0.3108  0.2999
18732W        W23132   1.661   6.506  35.205 -0.1354  0.1067  0.0355
18733W        W23133   4.553   2.522  29.544 -0.1844  0.1504  0.3946
18734W        W23134   7.225   5.704  21.739 -0.0474  0.0501 -0.0307
18735W        W23135   3.270   0.731  34.811 -0.2240 -0.1397 -0.0450
18736W        W23136   4.789   0.052  11.632  0.0044  0.1279  0.0295
18737W        W23137  21.267   4.833  35.128 -0.0221  0.1229 -0.3440
18738W        W23138  10.644   3.045   2.156  0.0475 -0.2691 -0.2026
18739W        W23139   5.490   1.786  30.214 -0.2611  0.3357 -0.2113
18740W        W23140  25.758   5.391  30.547  0.3585 -0.2036 -0.1289
18741W        W23141  19.363   4.577  14.207 -0.1867 -0.0770  0.1602
18742W        W23142  26.192   2.100  14.947  0.0286  0.1231 -0.3026
18743W        W23143   6.150   1.585  33.991  0.1040  0.2120  0.0200
18744W        W23144  12.183   0.260  31.804  0.0274 -0.1610  0.0562
18745W        W23145  24.036   4.037  26.216 -0.1277  0.0559 -0.2232
18746W        W23146  18.463   4.817  32.659 -0.0559  0.1290  0.2135
18747W        W23147  20.943   2.596  29.500 -0.1942 -0.0177  0.1025
18748W        W23148  13.038   1.231  10.921 -0.0215  0.0156 -0.2203
18749W        W23149   0.480   0.751  26.430  0.1442  0.2174  0.0848
18750W        W23150  25.200   0.964  22.488  0.1175 -0.1311  0.0209
18751W        W23151  14.185   0.513  24.103 -0.2785 -0.1107 -0.2402
18752W        W23152  24.303   0.291  31.715 -0.0840  0.1625  0.5400
18753W        W23153  24.132   6.200   1.805 -0.5160 -0.1104 -0.0527
18754W        W23154   7.716   2.536   6.259 -0.0185  0.0467  0.3862
18755W        W23155  19.531   4.768  14.664 -0.1272  0.1262  0.0030
18756W        W23156  22.894   1.589   7.867  0.0081 -0.0264 -0.1205
18757W        W23157  11.195   5.787  26.953 -0.1190  0.1695 -0.3001
18758W        W23158  10.230   5.920  23.335 -0.1674  0.0902  0.3252
18759W        W23159  23.774   2.947  28.853 -0.0159 -0.1650 -0.0667
18760W        W23160  22.576   4.718   3.223  0.1387  0.0941 -0.0817
18761W        W23161   7.118   5.364  20.555 -0.2020  0.0492 -0.1041
18762W        W23162   6.724   3.074   0.951  0.3847 -0.0900  0.1986
18763W        W23163   0.241   0.142   2.595 -0.2187  0.1041  0.3886
18764W        W23164  22.037   1.795  12.533  0.0537  0.0917  0.3564
18765W        W23165   1.243   5.923  13.971 -0.2045  0.0653  0.2642
18766W        W23166  25.936   5.427   1.437 -0.0987 -0.1085 -0.2767
18767W        W23167   9.075   3.397   4.018 -0.1781  0.0672  0.0153
18768W        W23168  14.131   1.887  10.509  0.2943  0.2295  0.0811
18769W        W23169  17.362   5.618  28.369  0.1228  0.1235 -0.0141
18770W        W23170  25.441   3.704   4.324 -0.0318  0.1848 -0.2045
18771W        W23171   6.636   0.312  29.986  0.0075  0.2610  0.1156
18772W        W23172  14.117   0.509  12.619 -0.1451  0.0183 -0.3564
18773W        W23173  13.456   0.875  21.959 -0.0312 -0.0991  0.1757
18774W        W23174  10.329   2.601  31.525  0.1048 -0.0518 -0.0633
18775W        W23175  23.861   1.289  25.354 -0.1864  0.0241  0.0141
18776W        W23176   4.216   1.136  23.468  0.3266  0.1816  0.0494
18777W        W23177   7.055   4.145   2.596  0.0774  0.1498  0.0807
18778W        W23178   8.378   6.251  23.204  0.0587 -0.0829 -0.3473
18779W        W23179   3.745   2.970  34.094  0.2293 -0.1930 -0.1656
18780W        W23180  25.924   2.897  28.283  0.1802 -0.4239 -0.2198
18781W        W23181   0.784   4.454   8.659 -0.0607 -0.0306 -0.0126
18782W        W23182  22.818   2.715   6.332 -0.1731 -0.0154 -0.2903
18783W        W23183  15.806   1.150  34.955  0.0369  0.1446  0.0557
18784W        W23184  19.659   6.089   6.125  0.3688  0.3078  0.4096
18785W        W23185  20.262   0.409  23.087  0.0868 -0.0689 -0.3450
18786W        W23186   2.312   2.709  26.822 -0.0720 -0.0275  0.1147
18787W        W23187  13.605   6.077  13.336  0.2440 -0.1363 -0.0769
18788W        W23188   3.882   2.698   7.268 -0.2277  0.0879 -0.0764
18789W        W23189   8.198   2.503   5.274 -0.3012 -0.0811 -0.0320
18790W        W23190  18.144   2.416   5.032  0.2987  0.1819  0.1715
18791W        W23191  18.558   3.356   2.322  0.0899 -0.0113 -0.0475
18792W        W23192   4.194   4.257  12.098  0.0768  0.1607  0.2036
18793W        W23193   4.106   0.594  29.722  0.0908  0.0661  0.1536
18794W        W23194  18.848   2.399   7.274 -0.0632  0.1181  0.3239
18795W        W23195  19.477   3.208  31.049 -0.0111  0.2849 -0.0041
18796W        W23196  21.819   4.344  34.260  0.1221 -0.1926  0.0398
18797W        W23197  11.439   1.669  12.202 -0.0432  0.0277  0.1535
18798W        W23198   5.619   5.239   1.298 -0.2560 -0.4387  0.3304
18799W        W23199  17.247   1.516   1.812  0.0803  0.1952 -0.3257
18800W        W23200  26.423   2.942  26.806 -0.2735  0.1099  0.1646
18801W        W23201  16.449   2.059   8.263 -0.1063 -0.3686  0.0859
18802W        W23202  10.101   6.421  24.882  0.0611 -0.0270  0.1949
18803W        W23203  17.590   1.880  27.541 -0.1054  0.3976 -0.1660
18804W        W23204   2.645   6.290  31.567 -0.0900  0.0808  0.0459
18805W        W23205  18.939   0.253  13.429 -0.0949  0.1891  0.2404
18806W        W23206   1.760   0.141  24.432 -0.0098  0.2826  0.0143
18807W        W23207   5.899   5.320   1.882 -0.1559  0.0407  0.1050
18808W        W23208   6.002   2.731  14.112 -0.0253  0.0077  0.0231
18809W        W23209   4.071   1.929   0.189 -0.0405  0.4351 -0.0293
18810W        W23210  24.908   5.629  31.870  0.1434  0.1587  0.1803
18811W        W23211   6.751   4.079  12.918  0.4746 -0.0879 -0.1399
18812W        W23212   1.424   2.265  33.514 -0.2941  0.1966  0.1136
18813W        W23213  24.805   5.012   3.516  0.0539 -0.0869 -0.0946
18814W        W23214   4.928   5.761  25.158  0.0783  0.0546 -0.1985
18815W        W23215  12.373   0.570   5.398 -0.0910  0.0601  0.1376
18816W        W23216   1.600   2.733  26.059 -0.0712  0.2531 -0.3299
18817W        W23217  18.478   5.135  27.949  0.2034  0.4219 -0.0511
18818W        W23218   7.356   0.737  11.792  0.0076  0.0875 -0.0762
18819W        W23219  17.303   4.510   1.495 -0.0269  0.0690 -0.0266
18820W        W23220  19.260   3.030  13.384 -0.1446 -0.1068  0.1041
18821W        W23221   5.020   1.553  35.470 -0.0852 -0.2898 -0.0349
18822W        W23222  21.203   4.567  22.733 -0.1259 -0.0205 -0.1680
18823W        W23223  13.522   3.255  24.138 -0.0299 -0.3171 -0.0243
18824W        W23224  16.044   4.106   1.359  0.2635  0.0487 -0.0230
18825W        W23225  24.396   5.430   6.767  0.2128 -0.2214  0.2930
18826W        W23226  24.795   0.956  24.963  0.3414  0.0400  0.0123
18827W        W23227  10.225   4.623  11.515 -0.4342  0.1422  0.1218
18828W        W23228  13.391   6.421  11.192 -0.1590  0.2982  0.0470
18829W        W23229  24.045   4.649  23.317  0.0450  0.1961  0.0115
18830W        W23230  13.202   1.323   4.987 -0.0468  0.1915 -0.3489
18831W        W23231  16.101   1.236   5.905 -0.3300  0.0452  0.0763
18832W        W23232  14.532   2.288   4.400  0.3238  0.0757 -0.2109
18833W        W23233  17.925   1.969  35.492 -0.0727 -0.1728  0.2609
18834W        W23234  20.911   0.087  30.125  0.0506 -0.0522  0.1947
18835W        W23235   6.685   2.591   6.419  0.0336  0.2507  0.2787
18836W        W23236  12.472   0.701  31.800  0.0562 -0.1947 -0.0347
18837W        W23237  18.911   5.997  23.044 -0.1922 -0.0696 -0.3678
18838W        W23238   3.719   3.622   3.841  0.1952 -0.1997 -0.2226
18839W        W23239   0.028   4.290  22.256 -0.0715 -0.1041  0.0592
18840W        W23240  12.159   2.305   4.616  0.1231  0.1704 -0.1686
18841W        W23241  16.285   5.293   6.290 -0.0386 -0.2198  0.1732
18842W        W23242  12.641   4.379  21.824 -0.0451 -0.1758 -0.1855
18843W        W23243  13.989   2.819   7.022  0.0984  0.0983  0.1037
18844W        W23244   7.745   3.287   1.790  0.0257  0.1792 -0.0851
18845W        W23245  18.987   4.402  20.718  0.0425  0.1741 -0.1022
18846W        W23246   9.256   3.182   0.258  0.2442 -0.0546  0.0809
18847W        W23247  10.529   0.641  24.587 -0.0685  0.0853 -0.1246
18848W        W23248  20.672   4.065   7.330 -0.0679  0.0872  0.1451
18849W        W23249  24.776   6.116   7.283 -0.2194  0.0826  0.1968
18850W        W23250   4.300   1.703   0.583  0.1769  0.1656  0.1380
18851W        W23251  13.129   0.311  11.948 -0.0414  0.0769  0.0501
18852W        W23252  14.393   4.719  23.257 -0.0750 -0.3094 -0.0802
18853W        W23253   5.995   1.404  27.209  0.0387  0.1026  0.2383
18854W        W23254   8.956   4.229  29.777  0.3428 -0.1283 -0.0762
18855W        W23255   1.238   1.794   9.285  0.1190  0.2636 -0.0144
18856W        W23256   9.518   3.567  31.598  0.0096 -0.2369 -0.4345
18857W        W23257   8.067   1.502  27.926 -0.0372  0.3139 -0.2912
18858W        W23258  20.108   0.231  21.834  0.1182 -0.0329 -0.1269
18859W        W23259  25.003   3.216   6.187  0.2257  0.1116  0.0381
18860W        W23260  13.759   3.322  31.679 -0.2222 -0.2131 -0.2331
18861W        W23261  10.959   5.563  27.506  0.1159  0.0049 -0.3410
18862W        W23262  16.201   1.535   2.296 -0.1118 -0.2120  0.1457
18863W        W23263   1.136   5.868  23.046 -0.2408  0.0498  0.1733
18864W        W23264   4.261   6.339  28.225  0.1774  0.1389  0.0447
18865W        W23265  21.030   6.263  31.755  0.3526 -0.2158 -0.0247
18866W        W23266  14.878   5.660  31.944 -0.0445  0.0637  0.2740
18867W        W23267  25.964   0.019  11.364 -0.1272 -0.1686 -0.0857
18868W        W23268  25.675   0.688   3.410  0.0065  0.2299 -0.0434
18869W        W23269   3.484   3.137  30.799  0.2152  0.0049  0.0102
18870W        W23270  14.483   1.929   7.102 -0.2244  0.1331 -0.1982
18871W        W23271  12.785   0.706   1.317 -0.0342  0.1908 -0.1994
18872W        W23272  22.090   0.908  21.753  0.2023  0.0667 -0.3072
18873W        W23273  24.691   4.724   8.903  0.2682 -0.1701  0.1933
18874W        W23274   0.653   3.376  21.614  0.3683  0.2551  0.1071
18875W        W23275   8.463   3.182  31.733  0.1315  0.1021 -0.2031
18876W        W23276  16.394   4.207  26.545  0.0068 -0.1695 -0.1841
18877W        W23277  23.736   0.572  11.827 -0.0286 -0.4639 -0.1500
18878W        W23278  11.489   4.747   6.484 -0.0132  0.1897  0.0382
18879W        W23279   1.376   1.444  24.451  0.0813 -0.0610  0.0791
18880W        W23280  13.487   1.620  26.722 -0.0902  0.0439  0.2015
18881W        W23281  23.435   5.536   1.481  0.0084 -0.3384 -0.0364
18882W        W23282  19.896   2.523   5.153 -0.0798 -0.0669  0.0471
18883W        W23283  14.583   1.460  21.935  0.2253 -0.2099  0.0274
18884W        W23284  11.267   3.388  15.417  0.1545  0.1163  0.0996
18885W        W23285  17.275   0.336  23.039  0.2557 -0.0402 -0.0806
18886W        W23286   3.263   6.139  30.140 -0.0309 -0.0230 -0.2071
18887W        W23287  19.962   5.797   5.491 -0.1966 -0.1892 -0.2397
18888W        W23288  17.783   3.092   1.706  0.2915  0.1328 -0.2692
18889W        W23289  23.096   5.820  23.842 -0.1004  0.0407  0.1737
18890W        W23290   0.586   3.446  33.221  0.1631  0.0044  0.0042
18891W        W23291  10.959   3.622   5.730  0.2451 -0.1826 -0.2480
18892W        W23292   0.101   1.176  10.163 -0.0431 -0.2657 -0.0106
18893W        W23293  18.752   4.591  25.549 -0.0415  0.0187 -0.1021
18894W        W23294  24.349   6.322  34.241  0.0296  0.0115  0.0319
18895W        W23295  11.685   4.610   1.906 -0.1351  0.1097  0.0938
18896W        W23296   0.199   5.599  12.685 -0.2685 -0.2127 -0.1570
18897W        W23297   9.238   4.889   7.129  0.2175 -0.1953  0.0423
18898W        W23298   6.751   1.553   7.433  0.1948  0.0741  0.2875
18899W        W23299  16.082   2.592  11.255  0.0342 -0.0339  0.0911
18900W        W23300   8.419   0.537  24.922 -0.2047 -0.0939 -0.4945
18901W        W23301  20.366   0.833  24.469  0.0117 -0.1621 -0.2134
18902W        W23302  10.949   4.883  22.495  0.1366  0.0317  0.0429
18903W        W23303  13.816   0.161   2.587  0.2352 -0.0821 -0.2485
18904W        W23304   6.932   1.449   3.395 -0.1670 -0.0805 -0.2241
18905W        W23305  23.165   3.883  32.096  0.0907 -0.0302 -0.4108
18906W        W23306   9.812   2.768  23.780 -0.3092  0.0799  0.1707
18907W        W23307   0.162   4.215  13.182  0.1700  0.0401  0.3007
18908W        W23308  10.343   4.244  24.438 -0.2719  0.3639  0.5142
18909W        W23309  19.597   2.169  32.075 -0.0245  0.1894  0.2337
18910W        W23310   0.628   2.221  11.539 -0.2241  0.1903  0.0411
18911W        W23311  22.452   1.998  26.403  0.0616  0.1192  0.2779
18912W        W23312  14.084   5.086   2.239  0.0510  0.0114  0.0095
18913W        W23313  23.781   1.330   3.037  0.2661  0.0239 -0.1929
18914W        W23314  17.079   1.083   0.776 -0.3295  0.1923  0.0366
18915W        W23315  11.749   2.065  34.503 -0.4653  0.2095  0.0651
18916W        W23316   0.371   0.386   1.059  0.1138  0.3797  0.1337
18917W        W23317   5.909   6.196   8.534  0.3799 -0.1947 -0.2746
18918W        W23318  16.826   6.155   9.591  0.1305  0.1003 -0.1114
18919W        W23319   4.058   1.677  30.619 -0.1837 -0.2137  0.1084
18920W        W23320  23.388   1.552  23.760  0.1488  0.0082  0.1288
18921W        W23321   2.837   3.147  32.373 -0.2245  0.1992  0.3256
18922W        W23322   3.976   2.130  32.381  0.0079 -0.3514  0.0907
18923W        W23323   5.254   6.026  32.367  0.1994 -0.1732 -0.1978
18924W        W23324   0.894   0.936  34.785  0.2191 -0.0153 -0.1597
18925W        W23325  13.864   5.279  14.264 -0.1875 -0.2064  0.1455
18926W        W23326  11.803   6.381   0.560 -0.1992 -0.1306  0.0715
18927W        W23327   9.824   4.882  25.503 -0.2907 -0.1435 -0.0013
18928W        W23328  13.795   6.390  21.135  0.2094 -0.3892  0.1458
18929W        W23329  19.462   1.144  15.129 -0.1968  0.1522 -0.1515
18930W        W23330  13.734   1.429   6.224  0.1257 -0.1392 -0.0191
18931W        W23331  13.615   2.254  25.353 -0.0499  0.1848 -0.3503
18932W        W23332   3.514   0.075  11.736 -0.2243  0.0182 -0.1297
18933W        W23333  21.974   4.133   9.667  0.1873  0.0448  0.1401
18934W        W23334   5.554   5.539  23.393  0.1915  0.2900 -0.0283
18935W        W23335   8.113   1.232   0.876 -0.0691  0.0291 -0.2303
18936W        W23336   8.301   3.722  12.753 -0.2387 -0.0728 -0.1568
18937W        W23337  23.490   2.631  28.567 -0.0606 -0.0272 -0.0119
18938W        W23338  10.441   1.800  15.027  0.3666  0.0221  0.3218
18939W        W23339  12.189   2.005   6.484 -0.0857  0.0804 -0.0876
18940W        W23340   4.465   5.003  28.855 -0.0491 -0.4001 -0.2841
18941W        W23341   2.142   6.029  20.963  0.0704 -0.1101 -0.2919
18942W        W23342  24.943   2.769   8.571 -0.0501 -0.2360 -0.0507
18943W        W23343  10.388   5.210   3.074 -0.1662 -0.0553 -0.1345
18944W        W23344  14.467   6.172  27.647 -0.0543 -0.2467 -0.1513
18945W        W23345  16.728   1.285   4.672  0.1697  0.1899 -0.2302
18946W        W23346  19.728   5.001   8.765 -0.2154  0.1141 -0.2880
18947W        W23347  21.494   3.038  25.257 -0.0810  0.0014  0.0381
18948W        W23348  18.546   4.826   5.537 -0.0036  0.1717  0.1908
18949W        W23349  23.840   3.681  14.483 -0.0224 -0.0386  0.3544
18950W        W23350  15.279   0.394   7.516 -0.0628 -0.2090  0.1629
18951W        W23351  16.940   5.031  14.447  0.1303  0.1356  0.0173
18952W        W23352  26.169   6.141   0.838  0.1419 -0.1469  0.0512
18953W        W23353  19.836   1.965  26.919 -0.0664 -0.0238  0.4242
18954W        W23354  14.722   0.112  10.790 -0.0468  0.0497  0.0531
18955W        W23355  16.577   5.721  28.697  0.5021 -0.1690 -0.1508
18956W        W23356   5.393   4.718  31.973  0.0213 -0.0164 -0.0824
18957W        W23357   4.016   1.358  15.609 -0.0137  0.0214 -0.0971
18958W        W23358   4.144   1.401  30.066 -0.0813  0.1835 -0.1112
18959W        W23359  16.253   4.272  26.999 -0.0834  0.1343  0.0292
18960W        W23360   3.998   3.084   8.707  0.0631 -0.1082  0.0344
18961W        W23361   5.163   5.257  25.098 -0.0717  0.1028  0.3682
18962W        W23362  26.320   2.969  32.441  0.1444  0.2099 -0.1303
18963W        W23363   3.493   6.499  13.792  0.0050 -0.1336  0.0445
18964W        W23364   5.287   4.191  22.694 -0.0907  0.0584 -0.0240
18965W        W23365  10.160   6.457  34.507  0.2497  0.5438 -0.0513
18966W        W23366   0.833   5.191  11.674  0.0192  0.1609  0.5371
18967W        W23367  12.291   3.310  23.570  0.1385 -0.3082 -0.0153
18968W        W23368   3.195   1.711  29.729 -0.3384 -0.2066  0.0694
18969W        W23369   2.697   0.384  32.382 -0.2281  0.2001  0.3388
18970W        W23370  25.798   2.412  21.806 -0.0641  0.3447 -0.0260
18971W        W23371   4.921   2.938  34.239  0.1068  0.1289 -0.2949
18972W        W23372  16.493   1.835  25.666  0.0245  0.2360  0.0334
18973W        W23373  25.738   4.166   6.684 -0.0179  0.3604  0.0717
18974W        W23374   8.209   1.675   5.094  0.2756  0.3393 -0.0532
18975W        W23375  23.523   5.090   3.658  0.3281  0.3888 -0.2472
18976W        W23376   3.840   0.969  22.227  0.2990  0.1250 -0.0497
18977W        W23377  24.263   0.325   1.869  0.1152 -0.0498  0.3876
18978W        W23378  16.640   2.822  26.697  0.0089  0.0828 -0.2076
18979W        W23379  20.941   3.876  29.689  0.0396 -0.2342 -0.2188
18980W        W23380  11.508   4.097   6.703 -0.0816 -0.0445  0.2581
18981W        W23381  15.409   1.887  36.030 -0.0641 -0.1321  0.1751
18982W        W23382  24.548   5.920   3.384 -0.0026  0.2578  0.0443
18983W        W23383   3.522   1.926   6.541 -0.1234  0.0739  0.0593
18984W        W23384  12.799   5.592  30.117  0.0095 -0.1063  0.0587
18985W        W23385   9.059   5.562   1.263  0.1386  0.0883  0.2552
18986W        W23386  21.434   4.103  27.825  0.2847  0.4401 -0.0564
18987W        W23387  14.935   1.062   6.781  0.1715 -0.2081 -0.1658
18988W        W23388  15.764   4.583   4.730  0.0428  0.3134 -0.0075
18989W        W23389  10.380   0.140   6.240 -0.0375 -0.0767  0.1543
18990W        W23390   3.342   4.778   6.149  0.1354  0.0047  0.2194
18991W        W23391   4.462   1.983  22.886  0.0492 -0.3278 -0.3000
18992W        W23392  14.034   5.566   6.535  0.1513 -0.2530 -0.1054
18993W        W23393   4.066   3.730  10.923  0.0870 -0.1279 -0.1492
18994W        W23394   7.626   6.512  24.191  0.0894  0.4310  0.2664
18995W        W23395  18.609   5.495  23.056  0.0958 -0.0072 -0.0459
18996W        W23396  10.684   3.569  14.737 -0.1177 -0.0798  0.4561
18997W        W23397   3.857   3.479  20.568  0.3862 -0.1334  0.0029
18998W        W23398  14.426   2.916  33.945  0.2391  0.2176  0.1234
18999W        W23399  11.746   4.743   0.014  0.0659 -0.1697  0.1128
19000W        W23400   5.244   5.375  25.568 -0.2362 -0.0311 -0.1064
19001W        W23401  17.151   3.076  22.610  0.0728  0.0212 -0.1645
19002W        W23402  21.889   5.466  29.945  0.0771 -0.0173 -0.1557
19003W        W23403  15.004   4.474  15.582 -0.2771 -0.1277  0.1361
19004W        W23404  24.105   1.273  32.786  0.1054  0.0418  0.0023
19005W        W23405  16.896   5.302  21.315 -0.1218  0.0347  0.2008
19006W        W23406   7.431   0.732  22.174  0.0861  0.1213  0.0235
19007W        W23407  23.787   1.847  11.783 -0.0840  0.0531  0.0310
19008W        W23408  22.824   6.399  30.105  0.0697  0.3057 -0.1420
19009W        W23409  20.414   6.418  25.900  0.0355 -0.2146  0.1691
19010W        W23410   5.378   6.273  20.469 -0.1594 -0.2578  0.0422
19011W        W23411  17.958   4.805  14.779  0.1635  0.0605 -0.0322
19012W        W23412  17.780   3.781  32.353  0.0826 -0.1027 -0.0077
19013W        W23413   1.349   5.091   4.280  0.3034 -0.4197 -0.0663
19014W        W23414  16.214   0.289  26.486  0.0103 -0.0119  0.1854
19015W        W23415  13.124   5.187  20.908 -0.1601 -0.1615  0.0176
19016W        W23416  20.447   5.930  30.717 -0.1529 -0.0993 -0.1899
19017W        W23417   5.448   1.916  29.203 -0.3445 -0.1460 -0.0736
19018W        W23418   1.839   6.355   4.074  0.0443 -0.4585 -0.0864
19019W        W23419   0.704   5.668   0.090  0.0636 -0.2976 -0.0663
19020W        W23420  15.954   4.943   4.388  0.2641  0.0471  0.5085
19021W        W23421  10.784   3.312  30.949 -0.1028  0.0766 -0.0621
19022W        W23422  23.179   6.156  26.078 -0.3042 -0.2076  0.0087
19023W        W23423   2.993   4.831  35.265 -0.1322  0.0515  0.0162
19024W        W23424  13.194   4.859   6.504  0.4152 -0.0707  0.2429
19025W        W23425  12.910   1.604   5.337  0.0242  0.2246  0.1761
19026W        W23426  24.933   5.064  11.040  0.1654 -0.3192 -0.0482
19027W        W23427   3.935   5.485  13.745 -0.1685  0.0986 -0.2825
19028W        W23428   4.922   1.501  13.285  0.1654  0.1035 -0.0028
19029W        W23429   5.038   1.724  22.274 -0.1266  0.1592 -0.0146
19030W        W23430  15.747   6.395   9.326 -0.1871 -0.0208  0.0830
19031W        W23431   1.830   3.260  20.792  0.0095 -0.1066  0.1452
19032W        W23432  26.012   1.472  30.131 -0.1938 -0.2074 -0.0154
19033W        W23433  23.087   1.117   6.071  0.0867  0.0985  0.1173
19034W        W23434   7.549   5.813  10.965  0.2060  0.2105 -0.2084
19035W        W23435  12.544   2.040   1.266 -0.1061  0.3273  0.6271
19036W        W23436   3.790   3.401  23.874  0.3271 -0.4275  0.2146
19037W        W23437  12.500   2.413  23.743 -0.2691  0.0073 -0.0656
19038W        W23438   5.097   1.249  11.022  0.2818 -0.2487  0.3365
19039W        W23439  23.955   0.803  22.854  0.0415 -0.0585 -0.0564
19040W        W23440  13.537   6.265  26.258  0.1577 -0.1911 -0.0149
19041W        W23441  18.866   6.413   1.511  0.0402  0.2795  0.0321
19042W        W23442  15.656   6.379  23.164 -0.0234  0.3868 -0.0840
19043W        W23443  21.957   3.718  34.566 -0.0420 -0.0244  0.0793
19044W        W23444  14.388   2.181  32.944 -0.2141  0.0906  0.2337
19045W        W23445  24.347   0.407  31.014 -0.1848  0.1244  0.1244
19046W        W23446   4.614   5.424  14.038 -0.0076 -0.1665 -0.0135
19047W        W23447   5.119   5.267  15.162  0.2476 -0.0701  0.1766
19048W        W23448   8.452   5.358   7.618  0.4607  0.0002 -0.0847
19049W        W23449  16.410   0.904  12.949  0.0975 -0.2699 -0.0363
19050W        W23450  17.364   3.943  22.100 -0.1433 -0.0851 -0.2126
19051W        W23451  13.052   1.211  13.274 -0.0693 -0.0955  0.3710
19052W        W23452   8.993   2.397  11.930 -0.0590  0.2945  0.1298
19053W        W23453   0.245   4.641   8.786  0.1570  0.1792 -0.3014
19054W        W23454  23.778   3.345  25.102  0.0862 -0.2060  0.1224
19055W        W23455  24.434   2.080  31.016  0.0943  0.1737 -0.2503
19056W        W23456   9.179   4.160  22.119  0.1663  0.1991  0.1885
19057W        W23457  13.077   6.108  27.395  0.1706 -0.3535  0.1518
19058W        W23458  17.774   4.290  23.545  0.1123  0.0420  0.1809
19059W        W23459   3.599   5.417  25.280 -0.0095  0.0912  0.0075
19060W        W23460  15.645   4.884  23.164  0.1479 -0.2317 -0.0708
19061W        W23461  19.553   0.028  22.041  0.0252 -0.2240  0.1729
19062W        W23462   2.803   3.081  20.756  0.1531 -0.0538  0.1684
19063W        W23463   9.545   3.085  25.022 -0.1423  0.1640 -0.1656
19064W        W23464  20.939   6.229  25.992 -0.1126  0.0261  0.1234
19065W        W23465  18.969   5.462   1.617  0.4191  0.1108 -0.2077
19066W        W23466  12.790   6.105  30.153  0.0791 -0.0010  0.1248
19067W        W23467   0.450   5.275  21.995 -0.0867  0.1032 -0.2526
19068W        W23468  10.035   4.684   7.650 -0.1133 -0.1097  0.1663
19069W        W23469  23.845   1.275   0.211  0.0698 -0.1592 -0.0162
19070W        W23470  23.354   3.080  30.513 -0.1576  0.2246 -0.2071
19071W        W23471  17.525   1.708  11.314  0.0041  0.2054  0.1549
19072W        W23472  23.132   1.206  22.091  0.1919 -0.0098  0.1430
19073W        W23473   0.220   5.789  30.563 -0.0723  0.1893  0.0294
19074W        W23474   2.623   5.097  26.212  0.0956  0.0824 -0.0926
19075W        W23475  18.150   5.191  32.115  0.1342  0.0107  0.0072
19076W        W23476   8.361   6.177  33.621  0.1575  0.1507  0.1056
19077W        W23477   3.297   1.133   3.648 -0.2031 -0.0462 -0.4369
19078W        W23478  14.835   1.643  30.675 -0.0838  0.2098 -0.0983
19079W        W23479   5.869   5.843  27.836 -0.3738  0.0179 -0.1171
19080W        W23480   5.571   2.542  13.775 -0.0676  0.1793  0.2248
19081W        W23481   8.845   4.539  22.103  0.0719  0.0566  0.0019
19082W        W23482  10.660   4.238   4.978 -0.0786  0.1051  0.1660
19083W        W23483   5.503   0.089  35.233  0.0106  0.3102 -0.1785
19084W        W23484   7.232   0.924  32.889 -0.0545 -0.2207  0.3565
19085W        W23485   0.800   0.223  14.222 -0.0521 -0.3442  0.4923
19086W        W23486  18.025   1.204  28.764  0.0074 -0.2179 -0.2253
19087W        W23487   8.441   5.560   1.881 -0.0356  0.2189  0.1730
19088W        W23488   5.729   5.147   6.329 -0.1859  0.3351 -0.0210
19089W        W23489  21.604   1.802  11.484 -0.1087  0.2841  0.2147
19090W        W23490  16.688   1.870  32.171 -0.0918  0.0073  0.0607
19091W        W23491  12.237   1.498  14.741  0.1897  0.0349 -0.0483
19092W        W23492   5.284   5.062   4.745  0.1116 -0.0319  0.1529
19093W        W23493  10.977   1.440  29.159  0.0343 -0.2102  0.1899
19094W        W23494   2.728   3.213   7.372 -0.4433  0.2424  0.1745
19095W        W23495   5.962   2.884  14.832  0.0023  0.0902  0.0510
19096W        W23496   8.878   0.208  21.029 -0.1131 -0.1451 -0.2853
19097W        W23497  21.753   0.080   9.298 -0.1810 -0.1483 -0.2259
19098W        W23498  10.904   1.782   6.866 -0.0712 -0.1272  0.1688
19099W        W23499  10.163   3.670  32.220  0.3331  0.0490  0.0619
19100W        W23500   5.615   3.944  22.401 -0.0591 -0.1614 -0.0351
19101W        W23501   8.655   3.479  20.876 -0.0748  0.2808  0.1650
19102W        W23502   5.026   4.536  24.548 -0.1720  0.0652  0.0472
19103W        W23503  18.749   4.213  21.141 -0.3016  0.2056 -0.1491
19104W        W23504  17.373   6.515  30.363 -0.3344  0.0356  0.2903
19105W        W23505   8.940   1.679  31.562 -0.1266  0.0482  0.1226
19106W        W23506  22.458   2.157  34.731 -0.0990 -0.0893 -0.0161
19107W        W23507  11.272   2.133  21.352 -0.1930 -0.1726 -0.1676
19108W        W23508  22.105   5.458   9.719  0.0989  0.2603 -0.1557
19109W        W23509  12.755   2.212  28.236 -0.2813 -0.2887  0.2656
19110W        W23510  14.509   0.238  35.084 -0.1471 -0.0484 -0.1859
19111W        W23511  10.871   3.925   5.361  0.1019  0.1386  0.2994
19112W        W23512  10.635   3.864  24.625  0.3367 -0.1158 -0.1191
19113W        W23513  26.076   4.218   0.376  0.0122 -0.1262  0.2779
19114W        W23514   4.282   5.111   2.439  0.2182  0.1665  0.0673
19115W        W23515   7.966   0.951  21.742 -0.1131 -0.0265  0.0663
19116W        W23516  15.834   5.061  32.986 -0.1391  0.0786 -0.1375
19117W        W23517  17.619   1.139  14.070 -0.1726 -0.0437 -0.0793
19118W        W23518   0.254   1.896  13.722 -0.2049 -0.2312  0.0459
19119W        W23519   6.884   3.026   0.449 -0.2964  0.0839 -0.0966
19120W        W23520  10.066   2.754   9.618  0.3150  0.3527  0.5080
19121W        W23521  25.541   2.753  32.026  0.2773  0.0379 -0.1556
19122W        W23522  24.386   2.109  15.049 -0.1322 -0.4184 -0.0099
19123W        W23523   6.731   4.783  27.567  0.0352 -0.1526 -0.1230
19124W        W23524   3.506   3.186   4.685  0.1349 -0.2488 -0.0972
19125W        W23525   2.491   0.522  30.008  0.2148 -0.2132 -0.0941
19126W        W23526  16.433   6.223  32.691 -0.2334 -0.1305 -0.0976
19127W        W23527   8.980   1.735  27.169  0.0998 -0.1997  0.1359
19128W        W23528  19.690   3.361  24.198  0.0183 -0.1434  0.0079
19129W        W23529   3.543   3.707  30.842 -0.0575  0.0137  0.2700
19130W        W23530   6.208   1.091  26.873  0.3038  0.1979  0.1645
19131W        W23531   6.670   5.448  12.007 -0.0965  0.1368 -0.1802
19132W        W23532  26.397   3.962  28.297  0.1444 -0.1132 -0.0181
19133W        W23533  10.350   3.405  15.105 -0.2775 -0.2089 -0.0290
19134W        W23534  17.105   4.799   8.574  0.1554 -0.2615 -0.1667
19135W        W23535  18.437   5.969  22.925  0.0268  0.2076 -0.1040
19136W        W23536  11.169   5.374  22.605 -0.0272 -0.0688 -0.0582
19137W        W23537  16.820   3.967  20.756  0.3172  0.1923  0.1138
19138W        W23538   3.431   3.643  20.242  0.2359 -0.3355 -0.0749
19139W        W23539  13.810   2.125  33.859  0.0523 -0.1891  0.2994
19140W        W23540   5.158   5.416  22.447 -0.0030  0.0224  0.0001
19141W        W23541   7.069   0.530  32.602 -0.0186 -0.1846  0.3382
19142W        W23542  17.754   4.076  20.643  0.0232  0.3141 -0.0886
19143W        W23543  26.222   5.841  24.988 -0.1955 -0.0720  0.2795
19144W        W23544   0.183   0.537  25.822  0.0432  0.2056 -0.0742
19145W        W23545  20.346   1.626   6.899 -0.0950  0.1353 -0.1528
19146W        W23546  21.451   0.719  10.994 -0.2980 -0.1761 -0.2068
19147W        W23547   4.463   1.446  23.882 -0.0511 -0.4679 -0.0092
19148W        W23548   0.039   6.330  29.915  0.1458 -0.0583  0.1982
19149W        W23549   0.328   0.049  30.655 -0.0776  0.1858  0.1683
19150W        W23550  12.941   6.165  30.977 -0.0376  0.0047 -0.1493
19151W        W23551  12.937   5.333   8.141 -0.0238  0.0229  0.2754
19152W        W23552  21.154   3.474   4.796  0.1504  0.2482  0.0751
19153W        W23553  20.199   3.238  25.477  0.0993  0.2922 -0.2503
19154W        W23554  18.011   2.807   7.982  0.0998  0.1917 -0.1529
19155W        W23555  21.526   1.650  22.485 -0.1880  0.0679 -0.0510
19156W        W23556  19.000   4.435   9.806 -0.0802 -0.2532  0.1102
19157W        W23557  12.666   6.068   5.109  0.0137 -0.4558  0.1820
19158W        W23558   4.446   1.023  34.945 -0.4178  0.0016 -0.2784
19159W        W23559  14.056   5.861  10.860 -0.1448  0.1239  0.0949
19160W        W23560  25.681   0.105  23.919  0.0511 -0.0465  0.2610
19161W        W23561   9.318   4.469  14.316 -0.2521  0.0749  0.1791
19162W        W23562   1.747   2.212  26.034  0.0015  0.1966  0.1039
19163W        W23563   4.732   4.185   2.371  0.0492 -0.0694  0.1956
19164W        W23564  11.374   2.816   5.011 -0.3459 -0.1387  0.0302
19165W        W23565  11.289   4.229  35.921  0.4915  0.0578 -0.1765
19166W        W23566  15.375   3.446   1.550  0.0625  0.0144 -0.0279
19167W        W23567   5.374   2.558   8.846  0.2386 -0.0455 -0.0843
19168W        W23568   3.826   5.014   1.509  0.0620 -0.1153 -0.1808
19169W        W23569   9.461   5.903  35.486 -0.0749 -0.0066  0.1729
19170W        W23570   1.207   5.919  29.909  0.1979 -0.1340  0.0119
19171W        W23571  15.888   2.434   4.371  0.3344 -0.4405 -0.2835
19172W        W23572   0.347   5.171  20.986  0.3307  0.1144 -0.0697
19173W        W23573  13.142   1.495  31.103  0.1143 -0.0516 -0.0651
19174W        W23574   2.012   1.096   9.171  0.0661  0.1246 -0.0605
19175W        W23575   5.587   2.748   9.781 -0.0325 -0.1618 -0.0996
19176W        W23576  10.416   2.072  34.588 -0.2697 -0.0038  0.0635
19177W        W23577  13.904   6.477  33.051  0.1384  0.4066 -0.0256
19178W        W23578  11.496   2.459  23.573  0.0007  0.0538 -0.0258
19179W        W23579  18.523   5.032  28.874  0.0558  0.1273 -0.1895
19180W        W23580  11.901   4.016  12.738  0.2326  0.1315 -0.0791
19181W        W23581  18.444   0.014   6.854  0.0689  0.1731 -0.2405
19182W        W23582  10.127   2.466  33.661 -0.0490  0.0228 -0.0344
19183W        W23583   3.891   0.364  12.036  0.1508 -0.2839 -0.1884
19184W        W23584  22.997   4.628   8.075  0.1120 -0.4883 -0.2164
19185W        W23585   1.421   0.317  21.302 -0.0700 -0.1744  0.1890
19186W        W23586  18.560   0.276  28.516  0.0320 -0.4462  0.0258
19187W        W23587  12.375   0.921  14.972  0.1986  0.1205 -0.2757
19188W        W23588  11.752   4.405  35.616  0.3301  0.2835 -0.1900
19189W        W23589  21.492   5.148  28.416 -0.1168 -0.1626  0.1539
19190W        W23590  18.898   6.563   5.034 -0.2350 -0.0533  0.0327
19191W        W23591   1.424   0.977   1.627  0.0813 -0.0092 -0.1458
19192W        W23592   8.935   0.294   7.708  0.1659 -0.1392 -0.1860
19193W        W23593   9.510   4.203  13.691  0.2166  0.0149 -0.1628
19194W        W23594   5.673   0.209  11.346  0.2483 -0.2008 -0.0793
19195W        W23595  10.838   1.716   4.761  0.1208  0.0882  0.1988
19196W        W23596  26.100   2.123  23.806 -0.2788  0.0088  0.1190
19197W        W23597   0.975   3.329   6.596 -0.2469  0.0134 -0.1123
19198W        W23598  13.866   0.089  31.645  0.1031 -0.2169 -0.0089
19199W        W23599  18.554   1.185   2.557  0.2211 -0.0101  0.1542
19200W        W23600   9.282   1.545  35.403  0.1625 -0.0791  0.0636
19201W        W23601  13.535   6.391  24.927 -0.0050 -0.2518 -0.2502
19202W        W23602  13.338   5.606   9.392 -0.1669 -0.0011 -0.2578
19203W        W23603  16.512   2.284   0.391 -0.0270 -0.0616  0.0977
19204W        W23604  12.620   6.278  24.001  0.2009 -0.0327  0.1511
19205W        W23605   8.684   4.690   8.956  0.0623  0.1684 -0.1678
19206W        W23606  13.968   1.012  35.271  0.1825  0.4163  0.1791
19207W        W23607   3.786   4.844   7.236 -0.1926 -0.2569 -0.3320
19208W        W23608  10.748   5.904  28.942  0.0375  0.2334 -0.0381
19209W        W23609   1.878   0.114  27.699 -0.0985  0.0358  0.0404
19210W        W23610   7.414   0.882  13.681  0.0153 -0.1397 -0.2158
19211W        W23611   6.619   4.763  33.730 -0.1032 -0.1420  0.1128
19212W        W23612  24.266   3.447  30.782 -0.0159 -0.0789  0.0328
19213W        W23613  15.866   4.411  27.192 -0.3584 -0.2319 -0.0606
19214W        W23614   8.746   3.093   6.148 -0.0625 -0.1779 -0.0661
19215W        W23615  11.478   4.963  10.069 -0.0524  0.0415  0.2511
19216W        W23616  15.629   6.003  31.743 -0.0987 -0.1187  0.0815
19217W        W23617  18.898   0.793  29.767 -0.4051  0.3017  0.2482
19218W        W23618  19.203   6.378  33.786  0.0733  0.2833  0.1323
19219W        W23619   2.755   5.543  10.079 -0.1354  0.1547  0.0302
19220W        W23620  13.437   6.248   7.985  0.0058 -0.3010  0.0725
19221W        W23621   0.145   2.687  23.930  0.3396  0.5203  0.0629
19222W        W23622   9.292   4.171  22.666 -0.1869 -0.0707 -0.0677
19223W        W23623  26.120   3.951  24.526 -0.2474 -0.1607 -0.1908
19224W        W23624  21.808   5.069   7.741  0.2550 -0.1256  0.0632
19225W        W23625  15.753   0.265   8.380  0.4300 -0.1343  0.0777
19226W        W23626  23.453   5.694  26.033 -0.1481 -0.3114 -0.0520
19227W        W23627  22.815   4.105  32.467  0.0934  0.2517 -0.0045
19228W        W23628   8.091   4.898  32.909 -0.0323 -0.0498  0.0483
19229W        W23629  14.470   2.493  21.174 -0.0867 -0.0255  0.1406
19230W        W23630  15.033   0.572  24.649  0.0653  0.1743  0.0546
19231W        W23631   6.286   1.254  31.208  0.2237 -0.1158  0.1624
19232W        W23632  12.965   3.547  33.704 -0.0506  0.2613  0.0092
19233W        W23633   5.603   3.251  34.074  0.0669  0.0446  0.0906
19234W        W23634  21.473   3.544  31.502  0.0420 -0.1053 -0.2925
19235W        W23635  13.479   5.386  35.805 -0.1591 -0.4263  0.2396
19236W        W23636   9.633   5.709  31.204 -0.4396  0.0386 -0.4338
19237W        W23637   0.388   3.955  21.506  0.1324 -0.3912  0.3833
19238W        W23638  16.719   4.735   3.774  0.0816 -0.1137 -0.1613
19239W        W23639  21.146   0.108   7.627 -0.0114 -0.1395 -0.0524
19240W        W23640  15.614   5.287  21.357  0.2298  0.1312 -0.0626
19241W        W23641   9.336   4.308   1.916 -0.2703  0.0164 -0.2407
19242W        W23642  23.808   6.073   0.861 -0.1337 -0.0795  0.2541
19243W        W23643  10.663   0.956   4.880 -0.0618 -0.3014 -0.1759
19244W        W23644   6.019   4.153   6.103  0.1034  0.0155  0.0453
19245W        W23645  14.782   6.404  33.171 -0.0882  0.2609 -0.1704
19246W        W23646  20.404   1.917  13.561 -0.3074  0.5091 -0.2478
19247W        W23647  23.771   1.600  13.009 -0.0592 -0.1329 -0.1782
19248W        W23648   5.959   1.684   2.906  0.0218  0.0819 -0.0317
19249W        W23649   0.611   3.888   2.524  0.2057 -0.0675  0.1429
19250W        W23650   9.749   4.308  11.310 -0.2236  0.1214  0.0953
19251W        W23651  19.170   4.503  30.493  0.4224 -0.1492 -0.0402
19252W        W23652  17.742   4.850  29.866  0.1386 -0.0504 -0.0293
19253W        W23653   1.578   4.582   6.874  0.1392 -0.3677 -0.1637
19254W        W23654  13.032   2.517  23.830 -0.0878 -0.1147 -0.0047
19255W        W23655   1.532   5.426   3.549  0.0385 -0.3643  0.0938
19256W        W23656   2.019   3.240   7.464  0.1132 -0.2030 -0.3565
19257W        W23657   2.369   0.932  31.282 -0.0304 -0.0174  0.1203
19258W        W23658   6.576   5.136  33.424 -0.3079 -0.2608  0.0147
19259W        W23659   4.358   4.480   6.737 -0.0560 -0.0498 -0.1074
19260W        W23660   1.012   5.660  22.563  0.0130 -0.2028 -0.1297
19261W        W23661  23.561   2.201   4.390 -0.1381  0.0427  0.1455
19262W        W23662   6.724   6.172   0.533  0.1604  0.0493  0.0950
19263W        W23663  11.027   4.028   4.320  0.0116 -0.4040 -0.0493
19264W        W23664  24.491   0.973  19.848  0.0865 -0.0706  0.0571
19265W        W23665   5.170   2.292  21.258  0.0045 -0.2051 -0.0287
19266W        W23666  18.393   6.258  35.342  0.2200  0.1865  0.2196
19267W        W23667   7.029   4.021   1.697 -0.3511 -0.0814 -0.1325
19268W        W23668  18.065   3.301   7.903  0.3623 -0.0401  0.3081
19269W        W23669  11.974   0.355  22.727  0.0107  0.1395  0.0373
19270W        W23670   3.548   2.943  12.867  0.1134  0.2426 -0.3939
19271W        W23671  13.927   4.074  21.472 -0.1840 -0.0265 -0.1001
19272W        W23672  24.126   3.608  29.492  0.0325  0.1087 -0.0359
19273W        W23673   1.369   3.651  15.240  0.1595 -0.0458  0.0262
19274W        W23674  19.343   1.367   2.318 -0.3128  0.0993 -0.1090
19275W        W23675  22.801   0.515  15.045  0.2132 -0.0330  0.0808
19276W        W23676  23.753   5.452  34.103  0.0573  0.3539 -0.2324
19277W        W23677  26.299   3.491   2.666  0.2426  0.2193 -0.2404
19278W        W23678   2.988   4.955   3.805 -0.1808 -0.5223 -0.0485
19279W        W23679   4.896   4.789  21.809 -0.2121 -0.0940  0.0325
19280W        W23680  13.403   0.912  23.379 -0.0241 -0.1268 -0.1523
19281W        W23681  21.341   3.101   6.390  0.3054 -0.2038 -0.1728
19282W        W23682  19.829   3.755  22.962  0.0250  0.2246 -0.0095
19283W        W23683   6.992   1.617  11.355 -0.2026 -0.0344 -0.4450
19284W        W23684   6.585   6.111  35.013 -0.1910  0.0944 -0.0976
19285W        W23685   4.638   3.318   2.017 -0.4072  0.1308  0.0676
19286W        W23686   3.092   2.383   1.401  0.0401  0.2117  0.2735
19287W        W23687   0.101   4.012   2.653 -0.1287 -0.1598  0.2106
19288W        W23688  11.196   5.574   9.183 -0.0555  0.0465  0.0034
19289W        W23689  10.270   1.477  13.911 -0.0765  0.0550  0.1203
19290W        W23690  12.687   0.354  35.631 -0.1458  0.3331 -0.1351
19291W        W23691   7.063   0.288  10.896 -0.1862 -0.0094  0.3293
19292W        W23692  18.275   5.516  12.896  0.0174 -0.0387  0.0414
19293W        W23693  26.298   1.450   4.636 -0.1284 -0.0375 -0.1012
19294W        W23694   8.257   6.444  28.986  0.4219 -0.2501 -0.1206
19295W        W23695   4.690   2.906  11.648  0.2113 -0.0493 -0.0093
19296W        W23696  12.900   4.062  30.372  0.1693 -0.1722 -0.0817
19297W        W23697   6.189   5.516  26.297 -0.0405  0.2999  0.2054
19298W        W23698   5.267   5.988  30.286  0.1115 -0.0938 -0.1792
19299W        W23699  22.139   1.148  28.421 -0.1153 -0.2624 -0.2445
19300W        W23700  18.472   1.720   3.531  0.1305  0.3432  0.0900
19301W        W23701  21.994   4.640   4.529 -0.2195  0.0104  0.0303
19302W        W23702  13.164   1.161   7.470 -0.2587 -0.0876  0.1243
19303W        W23703  25.727   0.312   3.042 -0.1473  0.4271 -0.1507
19304W        W23704  23.350   2.610  30.730  0.0210  0.0194 -0.1700
19305W        W23705  16.075   3.253  26.041 -0.1422 -0.0086 -0.1630
19306W        W23706   0.206   0.091  25.514 -0.1410  0.1519  0.3462
19307W        W23707   4.822   3.657  14.890  0.2920  0.2902 -0.2753
19308W        W23708  23.310   3.981  25.217 -0.1385 -0.2198 -0.0158
19309W        W23709  24.200   3.400  29.972  0.2337 -0.2610 -0.3959
19310W        W23710  11.040   4.504  25.226 -0.0743 -0.0543  0.0503
19311W        W23711  19.683   3.350   6.194 -0.0976  0.1350  0.0909
19312W        W23712  20.083   4.361  28.801  0.2278  0.1156  0.0894
19313W        W23713   6.631   2.845  33.974  0.0931 -0.2764 -0.1080
19314W        W23714   7.308   2.391   6.533 -0.1884  0.2397  0.0565
19315W        W23715  18.594   5.175   1.853  0.4111  0.0020  0.0269
19316W        W23716  16.059   2.616  14.893 -0.3408  0.0545 -0.1635
19317W        W23717   2.651   0.819  33.310  0.0248  0.0494  0.0296
19318W        W23718   2.107   3.462  29.762 -0.1777 -0.1509 -0.1031
19319W        W23719  25.477   5.731   4.202  0.1477  0.0038 -0.1236
19320W        W23720  11.686   1.621  34.274  0.1644  0.0669 -0.0580
19321W        W23721   9.280   2.502  22.814  0.1075  0.1310  0.0477
19322W        W23722   9.706   1.021  10.176  0.1036  0.0930  0.3328
19323W        W23723   2.228   1.464  20.475  0.2886 -0.2213  0.1230
19324W        W23724   6.894   0.953   0.387  0.1539 -0.1676  0.2815
19325W        W23725  17.898   0.817  26.045 -0.2594  0.1725  0.0335
19326W        W23726  21.092   0.088  33.055 -0.2677  0.3027  0.2946
19327W        W23727   0.208   6.534   5.184 -0.0484  0.0423  0.1841
19328W        W23728  10.124   1.563  33.990 -0.1275 -0.0301 -0.1939
19329W        W23729   8.100   4.078  25.053 -0.1948 -0.0557 -0.0597
19330W        W23730  17.262   3.319   6.031  0.1343  0.1572 -0.0642
19331W        W23731  19.757   6.320  10.360  0.4346 -0.1462  0.0059
19332W        W23732   7.781   6.604   9.649  0.0280 -0.0773 -0.2366
19333W        W23733  10.375   2.564   0.800  0.3509  0.4904 -0.1247
19334W        W23734  23.547   3.530  13.622 -0.0882  0.0488 -0.0553
19335W        W23735  17.893   0.443  10.276 -0.1197 -0.0604  0.0933
19336W        W23736  21.631   2.529   8.302  0.1597 -0.2459 -0.4402
19337W        W23737   3.197   4.594  25.744 -0.1528  0.3374  0.2204
19338W        W23738  25.483   5.019   9.489  0.0349  0.1737  0.0572
19339W        W23739   7.013   1.953   8.807 -0.4786  0.0564  0.3498
19340W        W23740  10.682   1.534  11.665 -0.1413  0.0050 -0.2015
19341W        W23741  25.758   2.032  35.108 -0.1530 -0.1882 -0.2662
19342W        W23742   5.524   5.234  34.137  0.0373 -0.0717  0.2009
19343W        W23743  18.256   0.310  36.150 -0.0040  0.0456 -0.0078
19344W        W23744   0.636   2.503   9.959 -0.0443 -0.2269  0.0031
19345W        W23745   2.622   0.812   9.938  0.0938  0.0057  0.1714
19346W        W23746  10.278   2.588  29.864 -0.3392  0.1386  0.0168
19347W        W23747  13.505   2.266  10.833  0.0390 -0.2768  0.2623
19348W        W23748  11.077   5.291   5.102  0.2048  0.0897 -0.1370
19349W        W23749   0.114   0.442  33.571 -0.1883  0.0222  0.0039
19350W        W23750  14.069   2.861   7.495 -0.0959 -0.1917 -0.0209
19351W        W23751   4.695   2.092  12.459  0.4392 -0.0012 -0.2690
19352W        W23752  25.977   5.954  13.105 -0.2753  0.3370  0.0598
19353W        W23753   2.442   5.757  27.838 -0.0883 -0.0756 -0.4966
19354W        W23754  12.710   3.415  34.247  0.0390 -0.2137 -0.0996
19355W        W23755  19.819   3.231  25.152 -0.1946  0.2883 -0.0067
19356W        W23756   0.949   4.568  23.027 -0.2666  0.2504  0.2629
19357W        W23757   9.313   3.745  27.695 -0.2192  0.4042  0.1184
19358W        W23758   5.151   3.302  11.944  0.2376  0.4484 -0.0086
19359W        W23759  16.155   0.405   9.462 -0.1882 -0.1045  0.0256
19360W        W23760  10.320   2.962   7.476  0.3235  0.0089  0.1259
19361W        W23761  18.524   3.019  12.586  0.2871  0.1354 -0.1226
19362W        W23762  11.392   4.423  24.034  0.3318 -0.2133  0.1707
19363W        W23763  26.295   5.218  28.496  0.0584  0.2069 -0.4066
19364W        W23764  14.162   4.328  34.026 -0.0502 -0.0981  0.0776
19365W        W23765  16.490   3.312  12.220  0.2888  0.0385 -0.0949
19366W        W23766  24.085   5.768  29.916  0.1150  0.2523  0.4042
19367W        W23767   1.940   3.153  10.134  0.0198  0.1903  0.0483
19368W        W23768   6.022   1.008  22.403  0.0181 -0.1912  0.2775
19369W        W23769  24.739   4.055   2.061  0.0763  0.1049 -0.0665
19370W        W23770   6.045   3.749  33.922  0.4600 -0.0044  0.2111
19371W        W23771  20.068   2.151  35.418  0.1862 -0.0291  0.3073
19372W        W23772   6.181   0.646  32.229  0.4582  0.1102  0.0530
19373W        W23773   3.500   5.216   6.220 -0.2427 -0.1826 -0.2832
19374W        W23774   4.287   5.369  23.405 -0.0314  0.0292 -0.1093
19375W        W23775  14.903   4.159   0.307  0.0689  0.0837 -0.1144
19376W        W23776   0.481   6.143  30.795 -0.2792 -0.3652 -0.1359
19377W        W23777   9.802   4.191   4.950  0.1667  0.0043 -0.0384
19378W        W23778  24.118   3.536   1.639 -0.0333 -0.0624 -0.2563
19379W        W23779  20.123   2.766   8.681  0.2010 -0.0354  0.0876
19380W        W23780  22.278   4.322  11.150 -0.1060  0.2444 -0.1443
19381W        W23781   4.406   2.985  30.278 -0.1834  0.0670  0.3109
19382W        W23782  17.487   2.545  14.926 -0.2458 -0.1607 -0.0594
19383W        W23783  22.096   6.394  24.023 -0.0583 -0.2107 -0.2624
19384W        W23784  24.079   3.246  23.745 -0.1714  0.2197  0.0437
19385W        W23785  25.680   0.764  24.368 -0.1198  0.0128  0.1721
19386W        W23786  13.850   5.272   7.516  0.0438  0.0060 -0.0940
19387W        W23787  19.705   0.959  31.038  0.3500  0.1443 -0.0628
19388W        W23788   9.013   5.010  26.876  0.1503  0.3351  0.0041
19389W        W23789  23.267   1.651  11.120 -0.1301 -0.1074 -0.0351
19390W        W23790   5.960   3.246  14.057 -0.0723 -0.3631 -0.0911
19391W        W23791   1.224   3.520  13.892 -0.0077  0.2025  0.1279
19392W        W23792   3.272   5.562   0.218  0.1109  0.2985 -0.1475
19393W        W23793  14.405   2.578  30.854 -0.0599  0.0302  0.0804
19394W        W23794  14.975   5.776  12.600 -0.1782  0.0158  0.1008
19395W        W23795  10.609   0.349   8.635  0.1428 -0.1518  0.2064
19396W        W23796  25.120   2.320  20.446  0.0858 -0.2848 -0.4320
19397W        W23797  19.793   1.394  12.086 -0.0420 -0.2091 -0.1208
19398W        W23798   5.622   4.020   7.110 -0.1025 -0.0253  0.1789
19399W        W23799  18.106   2.109  23.326 -0.0903 -0.1277 -0.0355
19400W        W23800  17.450   3.879   6.020  0.0234  0.3773  0.1802
19401W        W23801   1.273   4.220   4.510  0.0848  0.1560  0.1276
19402W        W23802   5.361   2.110  11.423 -0.1718  0.3165 -0.2484
19403W        W23803   2.655   3.307  25.468 -0.0594 -0.1523  0.0080
19404W        W23804   6.817   4.879   9.589  0.0915  0.0184  0.2073
19405W        W23805  25.238   1.485   6.981 -0.0677 -0.1252  0.1394
19406W        W23806  10.028   3.379  21.798 -0.3070 -0.1979  0.0611
19407W        W23807   0.331   2.725   4.560 -0.0339  0.0056  0.0264
19408W        W23808  25.375   6.341  21.039  0.3062 -0.0708  0.3289
19409W        W23809   0.124   4.400  20.796  0.2735 -0.0938  0.0297
19410W        W23810  23.663   6.139  25.917  0.1608  0.0907 -0.0629
19411W        W23811  14.741   5.878   5.487 -0.0060 -0.0962  0.0196
19412W        W23812  14.353   1.759  13.971 -0.2577 -0.2227 -0.2319
19413W        W23813   7.087   0.778  33.342  0.1426 -0.1265  0.1035
19414W        W23814   1.324   2.724  35.360  0.0982 -0.1227  0.1049
19415W        W23815  10.986   2.894  11.059 -0.1360  0.1816  0.2921
19416W        W23816   7.430   3.191  25.996  0.0890 -0.2280  0.1881
19417W        W23817  25.121   0.881  26.730 -0.5983 -0.2062  0.0922
19418W        W23818  11.664   1.946   8.422  0.1969 -0.0891 -0.1291
19419W        W23819   3.881   4.391  14.337  0.0191 -0.0331 -0.3347
19420W        W23820  13.179   3.723   7.476 -0.4458  0.0820  0.5817
19421W        W23821   9.762   5.200   6.130  0.0511  0.2021  0.0891
19422W        W23822  13.186   5.975  21.634  0.3583 -0.1287  0.1352
19423W        W23823   7.525   2.733  36.060  0.2473  0.1663 -0.4786
19424W        W23824   5.581   0.327   8.301 -0.2101  0.0303  0.0909
19425W        W23825  21.282   5.367  27.968 -0.0025  0.2344 -0.1589
19426W        W23826  14.530   0.375  21.211  0.0099  0.1792  0.0518
19427W        W23827  24.375   1.088  27.952  0.2666  0.0799 -0.0802
19428W        W23828   7.489   6.548  10.221 -0.1286  0.2293  0.0431
19429W        W23829   3.260   5.947  26.827  0.1269 -0.2849 -0.3210
19430W        W23830  12.672   1.559  30.730  0.1828  0.1624  0.1652
19431W        W23831  15.102   4.124   4.419  0.0139 -0.0215  0.3893
19432W        W23832   7.484   0.943  12.247  0.1010 -0.0118 -0.1734
19433W        W23833   2.163   2.952  11.913 -0.1540  0.2589  0.2049
19434W        W23834  22.626   2.714   1.723  0.2482 -0.0756  0.0379
19435W        W23835   8.467   4.425  11.839 -0.1315 -0.1452  0.0972
19436W        W23836  18.908   3.338   4.096 -0.1285 -0.0416 -0.3011
19437W        W23837  21.507   5.609  34.679  0.0444  0.0289 -0.0219
19438W        W23838  17.581   0.507  29.844 -0.0562  0.0775  0.0557
19439W        W23839   3.981   6.036  24.855 -0.1103  0.1054  0.0815
19440W        W23840   0.896   4.167  23.379  0.2106 -0.1853  0.1625
19441W        W23841   5.437   4.623  15.497 -0.2529 -0.1212  0.0056
19442W        W23842  22.133   4.032  24.297 -0.1559  0.2281 -0.1087
19443W        W23843  23.866   1.243  21.419 -0.3273 -0.0033 -0.2058
19444W        W23844  13.230   2.893  27.343 -0.2332 -0.1228 -0.1587
19445W        W23845  12.004   2.772  15.462  0.1087 -0.1302 -0.0167
19446W        W23846   9.846   3.794  25.591 -0.0624  0.0499 -0.0110
19447W        W23847  17.459   1.681  30.538  0.4725  0.0401 -0.1062
19448W        W23848  15.375   0.877   2.562  0.0663  0.0464  0.1534
19449W        W23849   0.897   3.937   3.351 -0.0365  0.2627  0.0905
19450W        W23850  21.548   3.883   3.509  0.2392 -0.1774 -0.3430
19451W        W23851  13.256   0.814   4.060 -0.3581  0.3391  0.0730
19452W        W23852  10.725   1.981  23.843 -0.1685  0.1928  0.1978
19453W        W23853   6.506   3.861  21.148 -0.0514 -0.0284  0.0228
19454W        W23854   0.833   3.493  14.560  0.1001  0.1663 -0.1029
19455W        W23855   4.497   3.410  36.099  0.1374  0.1185  0.1433
19456W        W23856  24.226   3.060  25.312 -0.0185 -0.1443 -0.2306
19457W        W23857   6.120   5.056   3.814 -0.1068  0.0380  0.1484
19458W        W23858  16.326   1.142  26.724  0.0854  0.0199 -0.1828
19459W        W23859   9.587   1.850  33.330  0.1235  0.0940  0.3027
19460W        W23860  17.890   5.332   5.314 -0.0354 -0.1502  0.0928
19461W        W23861  16.919   1.083  34.444  0.0243 -0.0712 -0.0082
19462W        W23862   1.961   2.713  27.600 -0.1229 -0.0401  0.2657
19463W        W23863  25.479   1.041  14.937  0.2332 -0.1199 -0.1444
19464W        W23864  13.957   6.356  27.533  0.1450  0.0710  0.0975
19465W        W23865   1.528   5.719  10.818 -0.1670  0.2370  0.1633
19466W        W23866  13.158   2.048  24.095 -0.0695 -0.1788 -0.0204
19467W        W23867  14.067   2.256   0.607  0.1978 -0.0625  0.0252
19468W        W23868   5.433   5.844  31.070  0.0601 -0.1490 -0.0733
19469W        W23869   2.111   4.629   1.442 -0.0145 -0.1647  0.1974
19470W        W23870  24.728   0.361   5.647 -0.1060  0.0165 -0.0379
19471W        W23871  20.498   4.240   7.882 -0.2003 -0.2994  0.2495
19472W        W23872  12.964   4.052  33.607  0.1045  0.2326  0.1250
19473W        W23873   2.095   4.811  13.811 -0.0020  0.1113  0.1475
19474W        W23874  23.340   3.676  13.153 -0.2816 -0.2419  0.0183
19475W        W23875   4.242   6.220  22.683  0.0134  0.2575  0.1352
19476W        W23876  24.190   0.286  22.034 -0.2103 -0.2162  0.0998
19477W        W23877  26.407   0.435  27.094  0.1455  0.0949 -0.0850
19478W        W23878  17.928   4.096  12.624  0.2232  0.2346 -0.3258
19479W        W23879   6.513   4.676  28.599  0.0030  0.1048  0.0606
19480W        W23880   0.043   3.062  22.296  0.1229  0.3361  0.3123
19481W        W23881   5.343   6.197  29.365  0.2025  0.2623 -0.0311
19482W        W23882   9.589   1.391  28.205  0.0687  0.2417 -0.0852
19483W        W23883   1.636   0.839   1.115 -0.1847 -0.1088  0.0146
19484W        W23884  21.601   4.097  21.346  0.0966 -0.0574 -0.2017
19485W        W23885  10.738   6.013  26.786  0.1779 -0.1741 -0.3355
19486W        W23886  10.862   5.916  35.160  0.2825  0.2313 -0.0961
19487W        W23887   8.286   0.406   6.264  0.0359 -0.0074 -0.1095
19488W        W23888   8.143   1.136   5.721 -0.2328  0.1463 -0.3395
19489W        W23889   0.274   0.129  32.052  0.2811  0.2635 -0.0530
19490W        W23890   7.218   5.326   6.480 -0.1714 -0.0907  0.2148
19491W        W23891  16.900   3.792  25.708  0.0281  0.2768  0.1989
19492W        W23892   3.644   0.543  28.741  0.1943 -0.0582 -0.1425
19493W        W23893   2.475   3.993  23.538  0.0845  0.4242  0.1494
19494W        W23894   9.356   6.457   1.847 -0.0346  0.1711  0.1605
19495W        W23895  10.745   5.956  21.943 -0.0152  0.1982 -0.0085
19496W        W23896  16.472   4.248   6.214  0.2949 -0.0473  0.1367
19497W        W23897   2.884   5.086   0.245  0.3207 -0.2870 -0.0898
19498W        W23898   5.052   1.501   4.713  0.0064 -0.0073  0.1418
19499W        W23899   7.730   3.454   5.100 -0.0188  0.1904 -0.1785
19500W        W23900  17.703   2.059   4.184 -0.1826 -0.3964 -0.3540
19501W        W23901  25.068   0.206  29.476  0.1948  0.0177 -0.0247
19502W        W23902   6.391   5.973  27.633 -0.5211 -0.1560  0.3220
19503W        W23903  11.030   0.559  23.653 -0.0557 -0.1467  0.0902
19504W        W23904  12.306   1.567  13.754  0.1257  0.2069 -0.0762
19505W        W23905  20.759   0.360   9.148 -0.0745  0.2008  0.1647
19506W        W23906   7.015   3.078  26.678  0.1955 -0.2650 -0.1248
19507W        W23907  25.880   4.870   1.151  0.0538 -0.4627  0.1232
19508W        W23908   3.961   1.887   7.385  0.2349 -0.1317  0.0690
19509W        W23909  20.959   4.185   5.542  0.0778 -0.1088 -0.0219
19510W        W23910  11.104   4.173  26.667 -0.0096  0.1134 -0.1625
19511W        W23911   4.129   6.225  25.309  0.1473 -0.1059 -0.5915
19512W        W23912   6.770   5.047   4.620  0.1162  0.1969 -0.0089
19513W        W23913  22.779   2.106   9.157 -0.2563 -0.0977  0.4089
19514W        W23914   0.808   5.992  34.941  0.2768  0.2114 -0.3032
19515W        W23915   3.998   3.038  30.656 -0.0682  0.0496  0.0421
19516W        W23916   6.854   2.742   5.065 -0.0655 -0.2236  0.2008
19517W        W23917  18.335   0.246  11.109 -0.2896 -0.0324 -0.0798
19518W        W23918   1.000   6.578  20.567 -0.2666  0.1587  0.4225
19519W        W23919   5.585   0.794  21.500  0.3216 -0.4135 -0.0488
19520W        W23920   1.431   0.295   4.627  0.0509  0.2675  0.0885
19521W        W23921  20.157   3.946  34.921  0.1772 -0.0933  0.1395
19522W        W23922  13.222   4.621  28.754 -0.3034 -0.1664  0.1251
19523W        W23923  11.380   4.725   7.362  0.1282 -0.2001 -0.0872
19524W        W23924  17.777   1.148  31.060  0.0283 -0.0043  0.3937
19525W        W23925  17.039   2.345  14.699 -0.1089 -0.0818 -0.0719
19526W        W23926  26.240   1.719  20.792 -0.2386  0.0043  0.0083
19527W        W23927   7.739   1.635  25.985 -0.0699 -0.2909  0.2329
19528W        W23928  11.834   1.117  30.088  0.2636  0.0838  0.2266
19529W        W23929   9.613   0.201  24.083  0.0049  0.1140  0.4546
19530W        W23930  16.399   3.751  35.053 -0.0458  0.1971  0.0120
19531W        W23931  23.665   4.514  28.206 -0.0029 -0.0199 -0.6261
19532W        W23932  20.609   5.728   4.644  0.1168 -0.1894 -0.0573
19533W        W23933  19.370   5.332  29.231 -0.0181 -0.0314  0.0089
19534W        W23934   4.040   1.848  26.570 -0.4326  0.1668 -0.1348
19535W        W23935  22.773   2.165   4.372  0.0314 -0.1860  0.0883
19536W        W23936  13.560   2.773   0.280 -0.0779 -0.1749  0.4038
19537W        W23937   8.194   1.143  34.559  0.2544  0.0101  0.0711
19538W        W23938  23.740   4.718   1.311 -0.1023  0.0843  0.0937
19539W        W23939  25.630   1.355  32.374  0.0822 -0.3645  0.0112
19540W        W23940   8.715   5.367  29.750 -0.0228  0.0063 -0.0210
19541W        W23941  25.067   0.208   5.001 -0.0236  0.0157 -0.0330
19542W        W23942  11.023   6.193   2.604 -0.0896  0.0547 -0.2186
19543W        W23943   4.718   0.580  24.229 -0.1606  0.5236 -0.2026
19544W        W23944  10.841   1.504  34.494  0.0530 -0.2040  0.1586
19545W        W23945   7.940   0.044   2.420  0.1362  0.0395  0.1573
19546W        W23946   8.027   3.783  28.437 -0.2722  0.3123  0.0107
19547W        W23947  23.736   5.899  23.340  0.2338 -0.2750 -0.0855
19548W        W23948  17.620   2.053   8.003 -0.0006 -0.0612 -0.0547
19549W        W23949  24.124   5.829  27.977 -0.3200 -0.2336  0.2165
19550W        W23950  21.843   5.822  11.211 -0.0873  0.2191 -0.1783
19551W        W23951  10.652   2.916   1.013  0.1137  0.0985 -0.0456
19552W        W23952   0.129   6.083   4.923  0.0659  0.0746 -0.3499
19553W        W23953  22.304   1.119  34.372  0.0028  0.0556 -0.2380
19554W        W23954   9.093   5.743  35.872  0.1354 -0.2398 -0.0680
19555W        W23955  23.721   5.203   8.913 -0.0691 -0.1022  0.0389
19556W        W23956   4.205   0.145  27.607  0.1891 -0.0611  0.1236
19557W        W23957   2.066   4.387  33.974  0.0891  0.1533 -0.0009
19558W        W23958  12.584   5.401  21.400  0.1908 -0.2564 -0.1723
19559W        W23959   1.168   0.002  13.178  0.0325  0.1990 -0.1759
19560W        W23960   2.125   1.717  31.277  0.0886 -0.0349 -0.3123
19561W        W23961   8.369   2.798  34.321 -0.1840 -0.0324 -0.3248
19562W        W23962  19.551   5.566   5.426  0.1283  0.2383  0.0367
19563W        W23963  15.581   1.978  12.416  0.0205 -0.0535  0.4293
19564W        W23964  18.395   2.189   3.456  0.3241 -0.1807 -0.2907
19565W        W23965   7.639   2.378  24.288 -0.2894 -0.0500  0.0794
19566W        W23966  10.250   4.224  22.781  0.0010 -0.3710 -0.1641
19567W        W23967  21.273   2.605  20.736  0.0466  0.1627  0.0934
19568W        W23968   7.534   2.438  31.149 -0.1423  0.0317 -0.0408
19569W        W23969  18.101   4.196   7.734  0.0606 -0.3028  0.0384
19570W        W23970  24.427   5.790  22.910  0.2554  0.2051 -0.2844
19571W        W23971  14.062   2.722  22.411  0.1021  0.1267  0.1421
19572W        W23972   5.419   4.162   3.631 -0.3205 -0.2749  0.0873
19573W        W23973   8.937   1.329   4.024 -0.1490  0.1498 -0.2226
19574W        W23974   2.114   0.152  14.887  0.0504 -0.1196 -0.2302
19575W        W23975  22.344   5.817   5.999 -0.0086  0.0082  0.0744
19576W        W23976  15.190   6.394  13.783  0.0853  0.0144 -0.2764
19577W        W23977   9.717   0.577  33.948  0.1951 -0.0842 -0.2566
19578W        W23978   7.562   4.555   2.268 -0.1801 -0.0732  0.1637
19579W        W23979  11.535   3.679  26.343 -0.0462  0.2221  0.1327
19580W        W23980  15.759   1.536   4.129  0.1742 -0.1384  0.1785
19581W        W23981   2.137   4.897  33.883 -0.1737  0.0376 -0.2923
19582W        W23982   2.422   4.497  27.142 -0.4855  0.2040 -0.1326
19583W        W23983  15.293   0.253  24.279  0.1184  0.3369  0.0713
19584W        W23984   3.102   0.132  26.203  0.0983  0.1230 -0.0351
19585W        W23985   5.130   3.505   2.069 -0.0687  0.2591 -0.0880
19586W        W23986   4.913   0.471  12.928 -0.1037  0.3827 -0.0646
19587W        W23987  26.172   5.332  21.643  0.0587  0.1027  0.2892
19588W        W23988   3.588   5.782   8.908  0.0738  0.0080 -0.3823
19589W        W23989  19.471   1.767  30.729  0.3077  0.1289 -0.1778
19590W        W23990  13.407   2.442  24.556 -0.0298  0.1961 -0.0342
19591W        W23991  13.611   2.753  13.181  0.0833  0.0291 -0.0921
19592W        W23992  10.312   4.540  30.605 -0.1518 -0.0559 -0.0539
19593W        W23993  12.542   1.768   9.273  0.2161 -0.1031 -0.1176
19594W        W23994  10.614   1.780  32.745  0.1009  0.1518 -0.1773
19595W        W23995   0.512   5.147  11.179 -0.2635  0.2498 -0.1127
19596W        W23996  22.399   1.892  28.557  0.0121 -0.0925 -0.1450
19597W        W23997  11.504   5.871  15.768 -0.0036 -0.1223  0.2736
19598W        W23998  20.289   0.858  27.457 -0.5102 -0.1083  0.1821
19599W        W23999   1.077   4.723   8.070 -0.5683 -0.1043  0.0221
19600W        W24000  23.280   1.923  26.039  0.2621 -0.4887  0.0891
19601W        W24001  22.905   4.819  24.177 -0.0491  0.2318 -0.4816
19602W        W24002  23.927   4.989  34.345 -0.0532  0.2168 -0.1534
19603W        W24003   1.781   6.162  26.160  0.1510  0.0776  0.3188
19604W        W24004   3.786   2.782   1.924  0.2168  0.3137  0.1473
19605W        W24005  11.493   6.253   4.721 -0.1687 -0.1732 -0.2030
19606W        W24006   8.934   5.795  10.798  0.0913 -0.2816  0.3719
19607W        W24007   3.182   3.038  32.771  0.0675 -0.1411  0.0130
19608W        W24008   1.305   0.437   1.528 -0.2311  0.3133 -0.0765
19609W        W24009   6.537   6.139   9.430 -0.2002  0.2310  0.1539
19610W        W24010   9.745   3.830  12.147 -0.3304  0.1929  0.0014
19611W        W24011  13.904   4.074  30.135 -0.1736 -0.0554 -0.1790
19612W        W24012   3.759   2.530   0.150 -0.0928  0.0402 -0.2995
19613W        W24013  21.469   2.824   3.938 -0.0349  0.0237 -0.2461
19614W        W24014   7.637   4.168  13.701 -0.1655 -0.1651 -0.0731
19615W        W24015  22.792   1.958   9.707 -0.0297 -0.1847  0.1397
19616W        W24016   9.740   5.497  29.650 -0.1263  0.0281 -0.1960
19617W        W24017  15.155   2.259  35.878  0.2391  0.0764 -0.0933
19618W        W24018  12.420   2.237  34.696 -0.0472  0.0783  0.3045
19619W        W24019   3.078   4.842  21.347 -0.2955 -0.2766  0.1551
19620W        W24020  16.076   2.046   0.228  0.3183  0.0964 -0.3088
19621W        W24021  23.129   2.469  26.157  0.0231  0.0799 -0.0014
19622W        W24022  22.647   5.385  26.454  0.1348 -0.4678 -0.4815
19623W        W24023  24.484   0.713  11.485 -0.1068 -0.0394  0.3664
19624W        W24024  18.615   4.775  13.483  0.1003 -0.2407 -0.0838
19625W        W24025  12.474   1.516   5.703 -0.1085  0.3302 -0.1301
19626W        W24026  23.474   6.097   7.608  0.0480  0.2012  0.0847
19627W        W24027  24.857   5.080  32.081  0.3603  0.1835  0.2404
19628W        W24028   8.077   2.726  33.183 -0.0669 -0.1801 -0.2738
19629W        W24029   7.673   1.108   1.199 -0.1422 -0.3286 -0.0560
19630W        W24030  11.961   0.045  33.564  0.0988 -0.1111 -0.1171
19631W        W24031  26.189   4.312   6.785 -0.0300  0.0653  0.2428
19632W        W24032  14.230   4.115  26.070  0.0564 -0.0246 -0.1596
19633W        W24033  23.438   1.253  26.992  0.2344 -0.2359  0.2738
19634W        W24034   0.783   0.223  13.099  0.2182  0.1261  0.0238
19635W        W24035  24.080   0.172  22.739  0.1173 -0.0502 -0.1445
19636W        W24036   6.024   1.118   7.156  0.3297  0.1640 -0.1922
19637W        W24037  25.705   0.455  30.099 -0.1510 -0.1338 -0.0656
19638W        W24038   6.269   6.240  11.041  0.1103  0.3328 -0.2081
19639W        W24039   0.942   3.737   6.987  0.4077 -0.0397  0.0917
19640W        W24040   0.818   2.138   5.512 -0.0069  0.1902 -0.0641
19641W        W24041   3.404   6.275  11.379 -0.0372 -0.0174 -0.0370
19642W        W24042  16.977   1.713  33.781 -0.0090 -0.0706 -0.0138
19643W        W24043  23.660   2.817   5.934  0.0178 -0.0693 -0.3687
19644W        W24044  17.369   2.263  26.715  0.2784  0.2128 -0.0038
19645W        W24045   9.185   3.354  23.080  0.2968 -0.1540 -0.2063
19646W        W24046  26.017   3.831  35.703  0.1922  0.2314  0.2529
19647W        W24047  23.837   0.091   0.373 -0.0744 -0.2895 -0.2251
19648W        W24048   5.787   4.812  25.921  0.1972 -0.0226 -0.4128
19649W        W24049  15.151   2.809  29.823  0.1699  0.0810  0.1283
19650W        W24050   1.688   0.649  21.522 -0.0149  0.1303 -0.0089
19651W        W24051  12.645   2.166  12.531 -0.0247 -0.5531  0.0936
19652W        W24052   1.285   3.285  35.834 -0.0037 -0.2458  0.0017
19653W        W24053  21.284   1.373  35.176  0.0485 -0.3787  0.1229
19654W        W24054  12.319   0.240  25.470  0.2634  0.3259 -0.2235
19655W        W24055   2.100   6.482  32.720 -0.3334  0.3712 -0.0262
19656W        W24056  22.037   6.538   1.996  0.0673  0.0932  0.0598
19657W        W24057  21.488   4.922  21.104  0.4299 -0.0976  0.1227
19658W        W24058  12.566   3.578  32.813 -0.0071 -0.2055  0.1492
19659W        W24059   0.672   1.735  14.130  0.0526  0.1534 -0.0098
19660W        W24060  22.208   3.302  11.205  0.0246 -0.0792 -0.2437
19661W        W24061   2.758   4.262  30.413 -0.4407  0.1742 -0.1142
19662W        W24062  18.722   0.967  30.716 -0.0806  0.2065  0.1536
19663W        W24063  23.305   5.678  27.501 -0.1283 -0.2103  0.1826
19664W        W24064  22.040   2.088  34.354 -0.3112  0.3290 -0.1520
19665W        W24065  17.177   1.408  26.818  0.2720  0.0465  0.1362
19666W        W24066   2.966   0.233  13.443  0.2699  0.0362  0.0071
19667W        W24067  19.555   5.426   7.460 -0.0753  0.2241 -0.1531
19668W        W24068  10.744   2.860   9.724  0.1243  0.1264  0.0351
19669W        W24069  22.437   1.384  31.328  0.0645  0.1145  0.0654
19670W        W24070   2.194   5.899   5.003  0.0288  0.2746 -0.0058
19671W        W24071   0.931   1.306   3.658 -0.2423  0.0817  0.0971
19672W        W24072  19.721   6.446  13.125 -0.3437 -0.1609 -0.1105
19673W        W24073  25.246   3.173  12.418 -0.1600  0.2437  0.2104
19674W        W24074   1.335   4.466  12.204  0.1119 -0.0355 -0.5641
19675W        W24075  14.709   0.394  21.869  0.1992  0.2422  0.2018
19676W        W24076  12.860   3.135  31.803  0.1583 -0.2296 -0.3360
19677W        W24077  12.656   1.830  22.741 -0.3672 -0.1744  0.3936
19678W        W24078   0.250   0.353  29.267 -0.1491 -0.1199 -0.0883
19679W        W24079   6.934   0.596  26.166 -0.0173  0.1480 -0.1540
19680W        W24080   8.402   0.158   3.981  0.1456  0.1295  0.0421
19681W        W24081  11.966   4.941   1.709 -0.1814 -0.2294  0.2161
19682W        W24082  11.985   6.252   2.269 -0.0385 -0.0530 -0.3311
19683W        W24083  13.576   0.040  15.927  0.1292  0.0481 -0.1897
19684W        W24084  22.280   0.678  22.526 -0.2450 -0.2402  0.2959
19685W        W24085  13.401   3.279   6.713  0.0722  0.3322  0.1305
19686W        W24086  23.961   6.160   7.893  0.2936  0.1586  0.1234
19687W        W24087  10.745   1.304   2.184 -0.2196 -0.1060  0.0072
19688W        W24088   5.704   0.215   4.498  0.0977  0.2657  0.0888
19689W        W24089  22.146   2.876  28.254 -0.0022  0.0628 -0.0065
19690W        W24090   8.138   5.647   6.403  0.1316 -0.2084 -0.0504
19691W        W24091   0.530   2.787  30.148 -0.1615  0.0929  0.0877
19692W        W24092  15.458   6.240   0.685  0.1582  0.0340 -0.0780
19693W        W24093  17.404   1.737  28.394  0.0221 -0.2941  0.1775
19694W        W24094  13.694   6.338  31.254  0.1703 -0.1893  0.1684
19695W        W24095  12.322   0.399  12.972  0.2064 -0.4516 -0.0572
19696W        W24096  14.006   4.285  31.352  0.0999 -0.0118  0.1488
19697W        W24097   4.506   5.574  28.028  0.2014  0.1298 -0.2304
19698W        W24098  12.953   6.491   6.342  0.1881 -0.1597 -0.2729
19699W        W24099  24.669   2.544  21.376  0.1349  0.3408  0.0261
19700W        W24100  14.179   3.990  34.902 -0.3323 -0.0784  0.0014
19701W        W24101   5.384   4.888   6.581  0.1504  0.2116 -0.0296
19702W        W24102   4.020   3.764   0.443  0.3335 -0.2620  0.0405
19703W        W24103  24.438   6.557  27.379 -0.0501 -0.0077  0.0972
19704W        W24104  18.996   3.282  21.382 -0.0847 -0.0164 -0.0926
19705W        W24105  13.139   1.274  30.658 -0.0999  0.0054  0.1982
19706W        W24106  12.856   1.714  33.941  0.0311 -0.1586 -0.0986
19707W        W24107   9.601   3.762   1.703  0.2448 -0.1588 -0.1624
19708W        W24108  11.583   0.379   9.808  0.1574 -0.1849  0.2273
19709W        W24109  21.700   4.912  10.836 -0.1031  0.0274  0.1809
19710W        W24110   0.606   0.780   2.595  0.1483 -0.2734 -0.1290
19711W        W24111  18.251   4.040   6.743 -0.2874  0.1976 -0.0697
19712W        W24112  22.883   2.390   8.154  0.0087  0.0386 -0.0144
19713W        W24113  25.310   2.197  31.127 -0.1356 -0.0627  0.1610
19714W        W24114  25.616   2.137  30.307 -0.3029  0.0773 -0.1915
19715W        W24115  15.816   6.297  28.987  0.3882 -0.3041 -0.0607
19716W        W24116   1.693   1.077   8.684 -0.0467  0.0508 -0.1600
19717W        W24117  14.895   2.217   6.253 -0.1322  0.0021  0.0995
19718W        W24118   4.340   5.776  25.605  0.1092  0.4018 -0.2581
19719W        W24119   8.470   2.663  35.844 -0.1584  0.0706  0.0996
19720W        W24120   0.287   0.123  23.752 -0.0869  0.2510  0.1037
19721W        W24121   5.776   1.491   5.706  0.0925  0.2894  0.0465
19722W        W24122  10.442   3.770  15.627 -0.2222  0.0735 -0.1072
19723W        W24123  13.989   0.900  32.864 -0.0180 -0.2344 -0.1266
19724W        W24124  11.974   3.557  27.400  0.1844  0.0106 -0.2156
19725W        W24125   7.091   1.780  29.968 -0.2262  0.3213  0.2609
19726W        W24126  10.786   3.565  34.092  0.0211 -0.2767 -0.0764
19727W        W24127  18.220   6.391  13.017 -0.1454  0.2265  0.2878
19728W        W24128   8.840   2.107   5.075 -0.0507 -0.2609  0.0909
19729W        W24129  15.321   2.497   7.680  0.0209  0.0771 -0.1021
19730W        W24130   8.597   6.524   7.622  0.4555  0.2398  0.3608
19731W        W24131  23.177   0.913   2.232 -0.1270  0.0012 -0.0571
19732W        W24132   9.899   5.749  30.121  0.1353 -0.1831 -0.0940
19733W        W24133  19.656   1.472  34.564  0.0097 -0.0317  0.3535
19734W        W24134  12.999   6.593  12.318 -0.2165  0.0123 -0.2402
19735W        W24135   4.523   3.035   2.613 -0.1164 -0.1042 -0.1405
19736W        W24136  13.773   5.884  24.542 -0.0420 -0.2176  0.0448
19737W        W24137  11.691   1.629   4.482  0.5592  0.1568 -0.2435
19738W        W24138   2.054   5.064   3.910 -0.0616  0.2779  0.2708
19739W        W24139   6.353   5.649  33.917 -0.1108  0.2388 -0.2735
19740W        W24140  21.763   6.237  32.163 -0.0717  0.1119  0.0570
19741W        W24141  12.389   1.901   5.125 -0.2070  0.0286  0.2342
19742W        W24142  16.916   5.150   4.650  0.3496  0.1155 -0.2798
19743W        W24143  14.313   4.792  32.146 -0.1469 -0.0749  0.0431
19744W        W24144   6.970   3.250  33.846  0.2573 -0.1612 -0.1953
19745W        W24145   3.635   1.698  31.538 -0.2363  0.1921  0.3907
19746W        W24146  25.931   4.726   5.500 -0.0620  0.2048 -0.0292
19747W        W24147   0.561   4.352  12.865 -0.2127  0.0594  0.1692
19748W        W24148  17.035   5.733  25.305  0.2162 -0.1703 -0.0278
19749W        W24149  12.976   5.519  12.212  0.0339  0.0244  0.3694
19750W        W24150   1.985   3.903   9.042  0.1618  0.1127  0.0541
19751W        W24151   8.771   3.509  12.669 -0.4454 -0.1455  0.2809
19752W        W24152   3.101   0.863  28.269 -0.2676 -0.0448  0.2201
19753W        W24153  12.891   4.237  29.881  0.0223 -0.1175 -0.0691
19754W        W24154  20.557   1.293  21.002  0.1633  0.0782 -0.2722
19755W        W24155  19.751   1.646  34.035 -0.0359  0.1735  0.1477
19756W        W24156  15.808   3.171   3.022 -0.0550  0.0424  0.2191
19757W        W24157   6.308   2.556  27.766  0.1589 -0.1141  0.1964
19758W        W24158  17.631   6.267  10.842  0.0536  0.1038 -0.0316
19759W        W24159  11.431   5.944  25.973 -0.2259 -0.0336  0.0453
19760W        W24160   6.311   5.146   9.391  0.1357  0.0610 -0.1730
19761W        W24161   4.781   0.707   1.954  0.0238  0.2388  0.0122
19762W        W24162  10.365   1.361  27.094 -0.3455  0.2049 -0.2069
19763W        W24163  16.933   5.626  22.170  0.2967 -0.3128  0.2377
19764W        W24164  26.034   2.075   2.339  0.1523  0.2226 -0.3103
19765W        W24165  11.254   6.037  12.202  0.0829 -0.0770  0.0542
19766W        W24166  10.341   2.943  21.953 -0.2625  0.0527 -0.0933
19767W        W24167  20.914   6.311  31.253 -0.1098 -0.3289  0.0735
19768W        W24168  15.310   6.544  12.731 -0.1150  0.2533 -0.3207
19769W        W24169   5.224   0.399  34.958  0.2289  0.2504 -0.4157
19770W        W24170  21.520   4.612  30.893  0.1364  0.3869  0.1219
19771W        W24171   5.672   4.476   5.597  0.4136 -0.0037  0.0617
19772W        W24172   4.545   5.084   3.695  0.0750  0.0284  0.0836
19773W        W24173   9.302   1.329   7.353  0.2197  0.2154 -0.2594
19774W        W24174   5.946   2.300  26.604 -0.1039 -0.3910 -0.2357
19775W        W24175  14.159   2.728   8.335 -0.1092 -0.0392 -0.2366
19776W        W24176  23.552   0.918   1.806 -0.0836  0.0104  0.0243
19777W        W24177  17.154   1.308  13.782  0.1422  0.0891  0.2177
19778W        W24178  12.937   6.291  26.628 -0.1110  0.1148  0.0998
19779W        W24179  24.201   5.963  11.154  0.2379  0.0871  0.1437
19780W        W24180   5.556   2.019  21.030 -0.1484  0.3032 -0.1206
19781W        W24181  21.933   2.499  15.889  0.3169 -0.5694  0.1919
19782W        W24182  19.255   1.368   8.056  0.2133 -0.1898  0.0445
19783W        W24183  12.856   1.242  12.140  0.1859 -0.1086  0.1164
19784W        W24184   9.625   3.542  13.083  0.0241  0.2556 -0.1810
19785W        W24185   0.771   3.478   7.483 -0.0772 -0.1982  0.1626
19786W        W24186  13.196   5.658   3.871  0.0095  0.1578 -0.3174
19787W        W24187   0.113   4.917  24.786  0.0607  0.1669 -0.0406
19788W        W24188  19.501   3.516  30.656 -0.3888  0.1762  0.1763
19789W        W24189   2.145   0.098  29.371 -0.0128  0.1328  0.1688
19790W        W24190  22.206   5.933  26.929 -0.2512  0.3353  0.2275
19791W        W24191  24.752   3.165  28.233 -0.0916 -0.2454 -0.0892
19792W        W24192   3.858   0.741   4.836  0.1990  0.0370  0.2501
19793W        W24193   9.335   6.050   4.902  0.0781  0.2063  0.1772
19794W        W24194  13.952   5.579   1.802  0.1708 -0.1076 -0.2952
19795W        W24195   1.788   2.607  14.063 -0.0401 -0.1776 -0.0619
19796W        W24196   0.178   6.570  26.478 -0.0512  0.1775  0.1974
19797W        W24197   7.987   6.095  34.257  0.0942  0.4220 -0.0424
19798W        W24198   1.235   3.196  35.131 -0.1640 -0.0956  0.0842
19799W        W24199   6.476   0.364  24.314 -0.0038  0.1576 -0.2346
19800W        W24200  23.416   2.603   9.647  0.2828  0.2160 -0.0924
19801W        W24201  24.045   3.900  30.015  0.0789  0.0695  0.0256
19802W        W24202  19.837   4.105  14.162 -0.3593  0.0974  0.1389
19803W        W24203  25.159   2.697   7.685  0.0239  0.0727  0.1196
19804W        W24204  17.884   2.385  21.026  0.2046  0.1667 -0.2008
19805W        W24205   5.685   5.765   1.027 -0.1327 -0.0395 -0.2339
19806W        W24206  15.453   4.233  13.249  0.2611 -0.0691  0.2147
19807W        W24207  13.876   4.269  20.942 -0.0634  0.0676 -0.0681
19808W        W24208   3.850   3.434  31.358  0.2049 -0.2284 -0.0077
19809W        W24209  12.217   5.363  32.164  0.2835 -0.1421  0.1261
19810W        W24210  24.336   4.679  31.100  0.2567  0.3346 -0.0045
19811W        W24211  18.599   1.370  13.698  0.2287 -0.0788 -0.0980
19812W        W24212  23.923   3.646   2.587 -0.2039 -0.3781 -0.0328
19813W        W24213  10.632   0.898  26.977  0.2010 -0.2153 -0.1145
19814W        W24214  23.177   0.773  23.722 -0.1749 -0.1938 -0.4283
19815W        W24215  14.154   1.192   9.200 -0.2655  0.1187 -0.0885
19816W        W24216   4.123   5.830  27.009  0.0841 -0.1124  0.2566
19817W        W24217  13.206   3.322  11.782  0.2393  0.0912 -0.0663
19818W        W24218  22.186   4.157   2.969  0.4187  0.1167 -0.1159
19819W        W24219  13.338   0.100   2.501  0.0395 -0.0500 -0.1507
19820W        W24220  11.854   6.533  15.645 -0.0897 -0.2272  0.1636
19821W        W24221   4.728   2.182  22.496 -0.0770 -0.0569 -0.0683
19822W        W24222  15.720   4.450  30.334  0.0674  0.0886 -0.4189
19823W        W24223  12.041   0.915   3.819  0.0801 -0.1387  0.2613
19824W        W24224   8.050   0.641  22.198 -0.0540 -0.1695 -0.0644
19825W        W24225  19.297   5.979  27.047 -0.4079 -0.0792  0.2713
19826W        W24226  11.811   6.177  28.750 -0.1807 -0.0063  0.1907
19827W        W24227  18.503   6.505  13.469 -0.0060 -0.2519 -0.0142
19828W        W24228  18.263   0.070  15.380 -0.0169 -0.4557 -0.1705
19829W        W24229  23.191   2.493   4.272  0.2494 -0.1192  0.1862
19830W        W24230  15.566   3.443  15.152  0.2953 -0.1174 -0.1413
19831W        W24231  10.004   3.048   1.608  0.1226 -0.1790  0.2285
19832W        W24232  23.762   4.570  22.821  0.0013  0.0763 -0.1286
19833W        W24233  22.048   2.865  14.905 -0.0539 -0.2020 -0.0157
19834W        W24234  11.612   3.548  14.097 -0.3555  0.4076 -0.1954
19835W        W24235   5.410   2.542   0.197 -0.0761 -0.0780  0.3409
19836W        W24236  16.292   1.456   9.981 -0.1815  0.0980  0.2670
19837W        W24237   5.911   5.168  29.892  0.3068  0.2969 -0.3336
19838W        W24238  20.729   3.557   5.507  0.0294 -0.1575 -0.0608
19839W        W24239  23.298   2.322  22.796  0.0847  0.3444 -0.1242
19840W        W24240  16.008   1.302  33.650  0.1864 -0.3669  0.0402
19841W        W24241  23.085   0.438   9.919 -0.0448 -0.0641 -0.1107
19842W        W24242   6.802   6.221  32.582  0.0739 -0.0053 -0.3511
19843W        W24243   7.221   1.316  23.006  0.0159  0.1536 -0.1828
19844W        W24244  22.661   3.207  32.952  0.1810  0.0369  0.3476
19845W        W24245  22.375   5.077   2.194 -0.1131 -0.5344  0.0545
19846W        W24246  12.458   5.975  16.024 -0.1673  0.0323  0.0537
19847W        W24247   4.032   1.144  35.550  0.4551 -0.1476  0.2254
19848W        W24248  10.880   4.196  34.562  0.0433  0.2262  0.0853
19849W        W24249   2.105   2.756   3.468  0.0264  0.2378  0.2150
19850W        W24250   8.485   0.175  31.449  0.2843 -0.0550  0.1887
19851W        W24251  23.259   4.115   6.332  0.3621 -0.1937  0.1130
19852W        W24252  13.923   1.293  12.984  0.0488  0.2225  0.0130
19853W        W24253  14.926   2.915  32.892 -0.1081 -0.1999 -0.1159
19854W        W24254  13.226   2.933  28.188  0.0852  0.0200 -0.1910
19855W        W24255  16.612   5.538  25.852  0.2338 -0.0411  0.0344
19856W        W24256  16.766   1.859  22.108  0.2172  0.0092  0.2172
19857W        W24257  12.104   1.531  29.752 -0.1045  0.0566  0.0611
19858W        W24258  19.700   2.548   9.815 -0.3381  0.0765 -0.0490
19859W        W24259  19.632   4.394  10.384 -0.2267  0.2723  0.0930
19860W        W24260  21.384   4.763  30.129  0.0007  0.1486 -0.0154
19861W        W24261   0.811   0.221  22.935 -0.0519  0.1343 -0.0316
19862W        W24262  26.217   4.127  13.509 -0.2089 -0.1720  0.2164
19863W        W24263   7.805   2.446   1.202  0.1687  0.0849  0.0804
19864W        W24264   1.887   1.234   1.524  0.3540 -0.0372  0.0466
19865W        W24265   9.741   2.122  32.880  0.1751 -0.0479 -0.2692
19866W        W24266   8.022   2.058   9.859 -0.1417  0.0250  0.2545
19867W        W24267   2.660   4.803  11.500 -0.5469 -0.1293 -0.0206
19868W        W24268  10.619   0.732  13.648  0.0562 -0.3320 -0.1648
19869W        W24269  11.463   6.377  29.526 -0.1462  0.0748 -0.0299
19870W        W24270  19.461   2.662  35.017  0.3324 -0.0636 -0.0373
19871W        W24271   4.704   1.425  33.862  0.1672  0.1790  0.0284
19872W        W24272  18.415   3.062  26.216  0.0413 -0.1170 -0.1292
19873W        W24273  22.729   0.290   8.392 -0.1844 -0.0133  0.1026
19874W        W24274   8.418   6.036   7.663  0.1803  0.0227 -0.1148
19875W        W24275  11.610   4.916  15.224 -0.0129 -0.0592 -0.0345
19876W        W24276  20.305   4.358  10.775  0.2881 -0.1590  0.2502
19877W        W24277  17.023   4.307   3.680  0.0922 -0.1550  0.1355
19878W        W24278  20.703   1.066  24.113 -0.1243  0.4061 -0.2887
19879W        W24279   0.168   5.235  34.881 -0.1921 -0.0020 -0.0148
19880W        W24280  17.579   2.536   7.841 -0.1235  0.3677  0.1384
19881W        W24281  19.075   1.638   8.559 -0.1158 -0.1417  0.0582
19882W        W24282  11.680   6.177  24.121  0.0805 -0.1783 -0.0858
19883W        W24283  12.965   4.686  25.847  0.2886 -0.0187 -0.2327
19884W        W24284  23.375   3.508  31.047  0.2317 -0.0057  0.0016
19885W        W24285  25.039   3.643  15.121  0.0336 -0.1010  0.1796
19886W        W24286  18.359   5.780   3.509  0.0930 -0.0499 -0.0292
19887W        W24287  16.626   5.846  30.458  0.0193 -0.1138 -0.1228
19888W        W24288   7.683   4.121  28.317 -0.2065 -0.2492 -0.1201
19889W        W24289   5.861   5.886   5.852  0.0728  0.1413 -0.0588
19890W        W24290   5.524   1.370  22.225  0.3490 -0.1164  0.1285
19891W        W24291  14.939   0.791   9.793  0.0033  0.1766 -0.0049
19892W        W24292  14.747   1.483  24.870 -0.0052  0.1537 -0.2959
19893W        W24293  10.440   2.919   5.448  0.1484 -0.0157  0.0698
19894W        W24294  23.062   2.938  32.052 -0.3434  0.3644 -0.0447
19895W        W24295  26.243   1.688   2.044 -0.2235  0.0828  0.0265
19896W        W24296  19.402   3.127  32.522  0.2817  0.1284  0.4424
19897W        W24297  13.426   1.199  15.009  0.1372  0.2351  0.0305
19898W        W24298  20.848   5.842  33.735 -0.4408  0.1743  0.1570
19899W        W24299  11.802   6.248  22.738  0.1936 -0.1269  0.0560
19900W        W24300   9.116   2.000   3.096 -0.0220 -0.0051  0.3855
19901W        W24301   7.638   2.527   0.740 -0.2950  0.0967 -0.0812
19902W        W24302  23.695   0.843  21.054  0.0964  0.2175 -0.0812
19903W        W24303  18.373   2.710  24.810 -0.2887 -0.2620  0.0016
19904W        W24304  20.508   3.309  24.548 -0.0426  0.1869 -0.1389
19905W        W24305  10.470   1.401  27.765 -0.2045 -0.0074  0.0020
19906W        W24306  11.432   4.373  27.652  0.2303  0.1236  0.3178
19907W        W24307  15.346   0.774  32.972 -0.0093  0.0337 -0.0260
19908W        W24308  16.927   0.579   4.836  0.2567  0.0555  0.0075
19909W        W24309   9.626   3.913  30.667 -0.0456 -0.0242 -0.0753
19910W        W24310  13.148   3.640  34.284  0.0578  0.0874 -0.3415
19911W        W24311   8.844   2.020  12.345  0.1052 -0.3524 -0.0357
19912W        W24312   6.562   2.563  26.178  0.0244  0.0527  0.0545
19913W        W24313  10.053   3.835  22.186 -0.2526  0.1549  0.0210
19914W        W24314  11.567   0.637  10.313  0.0449  0.1530 -0.4243
19915W        W24315   9.396   0.277   1.554  0.1192  0.0173 -0.0235
19916W        W24316  15.064   0.331  35.935  0.3036  0.2142 -0.0182
19917W        W24317  24.140   0.783   1.096 -0.0068 -0.1232  0.1626
19918W        W24318   7.259   2.483  12.312 -0.0288  0.0188  0.2058
19919W        W24319   6.885   4.586  23.046 -0.3085 -0.3445  0.3118
19920W        W24320  15.711   5.863  20.934 -0.1099  0.0482 -0.0890
19921W        W24321   2.919   0.158  11.104  0.1143 -0.0955 -0.3332
19922W        W24322  24.377   2.774  33.191 -0.0286  0.0344 -0.0579
19923W        W24323  20.073   4.170   4.468 -0.2431 -0.2107  0.0776
19924W        W24324  12.727   0.921   4.232  0.0433  0.0377 -0.0682
19925W        W24325  10.562   4.198   9.791  0.1146 -0.0722  0.0062
19926W        W24326   6.565   2.499  24.826  0.0142  0.2920 -0.3190
19927W        W24327   7.427   1.275  29.160 -0.1432 -0.1579  0.0772
19928W        W24328   2.948   1.804  34.449 -0.1601  0.1371 -0.1061
19929W        W24329   8.649   3.358   7.013 -0.0658  0.1924  0.1593
19930W        W24330  23.215   6.341  21.191  0.3943 -0.0543  0.0181
19931W        W24331   5.431   5.145  27.984 -0.0796 -0.2178 -0.0245
19932W        W24332  20.996   3.920  21.250 -0.0116 -0.0263  0.1412
19933W        W24333   4.235   1.281  11.782  0.0948 -0.1638 -0.2130
19934W        W24334  21.681   1.861  34.632 -0.0329 -0.1679  0.1139
19935W        W24335  17.049   0.849  32.945  0.0725 -0.4293 -0.0427
19936W        W24336  24.515   6.382  31.805  0.1846  0.2663 -0.2012
19937W        W24337  13.771   2.900   3.858 -0.0131  0.0591 -0.0559
19938W        W24338  11.851   4.722  28.714 -0.2061  0.1584 -0.0083
19939W        W24339   8.674   0.067  32.817 -0.1477  0.0775 -0.0363
19940W        W24340  14.901   4.872   8.828  0.1570 -0.1065 -0.1841
19941W        W24341   2.228   0.566   2.968 -0.1890 -0.3230 -0.1692
19942W        W24342  25.354   0.525   8.194  0.1247  0.1841  0.0151
19943W        W24343  18.628   0.726  11.047  0.1934  0.2192 -0.3161
19944W        W24344   6.902   6.427  21.358 -0.2052 -0.1295  0.1370
19945W        W24345  24.316   0.070  14.017 -0.0490 -0.1932  0.1783
19946W        W24346  20.539   5.832  25.995 -0.3295  0.0324 -0.0345
19947W        W24347  20.375   3.697  33.272  0.0117 -0.1787 -0.1053
19948W        W24348  15.676   0.296  14.940  0.1168 -0.0869  0.3481
19949W        W24349   5.688   5.240   0.652  0.1609  0.0460  0.2247
19950W        W24350   9.610   5.562   3.441 -0.0184  0.0034 -0.1109
19951W        W24351  14.664   0.484   8.156  0.0566  0.1145 -0.0968
19952W        W24352  12.098   3.276  11.888 -0.2077  0.2716  0.3703
19953W        W24353   9.023   4.432  35.343  0.2631 -0.0284 -0.1228
19954W        W24354  16.193   2.519  22.257  0.0281 -0.0527  0.0854
19955W        W24355   0.631   6.241  13.309 -0.1101  0.1845 -0.5953
19956W        W24356  13.271   4.513  15.523  0.0444 -0.1872 -0.1953
19957W        W24357  11.592   5.976   9.989  0.3297 -0.1374 -0.1572
19958W        W24358   9.068   2.125  34.000  0.3117 -0.0595  0.0788
19959W        W24359  22.339   4.239   1.849 -0.4759 -0.2540  0.3224
19960W        W24360   1.641   0.007  36.149  0.1188  0.2910 -0.2060
19961W        W24361   5.708   6.215  30.088  0.1597 -0.1374  0.1563
19962W        W24362  25.398   1.972   6.975 -0.1098 -0.3154  0.3688
19963W        W24363   0.078   4.644  26.803  0.3707 -0.0819  0.0063
19964W        W24364   1.777   0.490   3.255  0.0368  0.1217 -0.1223
19965W        W24365  16.876   4.186  10.639 -0.0717  0.0506  0.1299
19966W        W24366  15.332   2.384  30.652  0.0421  0.0972 -0.0372
19967W        W24367  12.300   2.735   1.022 -0.5052 -0.0605  0.2767
19968W        W24368  21.158   6.082   3.738  0.0987  0.2289 -0.2819
19969W        W24369   2.760   6.546   6.074 -0.0598  0.0122  0.2012
19970W        W24370   9.831   4.198  24.528  0.3910 -0.1430 -0.0803
19971W        W24371   8.634   0.349  14.998 -0.0934  0.0948  0.0456
19972W        W24372  22.636   5.999   0.033  0.0997 -0.0876  0.1574
19973W        W24373   5.528   0.634  11.512 -0.0673  0.0924  0.0206
19974W        W24374   2.941   0.951  13.032 -0.0858  0.2040 -0.0391
19975W        W24375   5.161   3.362  30.903 -0.3810 -0.0680  0.2819
19976W        W24376  25.848   5.342  20.661 -0.3743 -0.1743 -0.2170
19977W        W24377  18.662   2.886   1.545 -0.2199  0.2855 -0.2405
19978W        W24378   8.949   3.114   1.502  0.1566  0.3444 -0.0979
19979W        W24379   7.581   2.160   4.198 -0.2378 -0.1425  0.2237
19980W        W24380  17.338   0.710   1.040  0.3463  0.0050 -0.0181
19981W        W24381  25.616   5.684  26.021  0.0570 -0.1030  0.1017
19982W        W24382  19.906   5.943  27.074  0.1484  0.0237  0.0136
19983W        W24383   8.883   0.096  11.443 -0.0243 -0.0427  0.3878
19984W        W24384   4.062   3.883  32.257 -0.0549  0.0292 -0.2756
19985W        W24385  21.604   3.883  28.935  0.0498 -0.1002 -0.0755
19986W        W24386  19.855   4.026  31.035 -0.2109 -0.2047  0.1085
19987W        W24387  25.308   2.709  13.992 -0.0031  0.0289  0.3756
19988W        W24388  16.853   6.437  22.291  0.0518 -0.0048  0.2933
19989W        W24389  14.781   0.311   7.517 -0.1356  0.0905  0.2422
19990W        W24390   1.701   6.084  25.626 -0.0646  0.0196 -0.1048
19991W        W24391   2.332   0.897  10.976  0.5538 -0.2242 -0.0877
19992W        W24392   7.422   1.069   0.346 -0.0738 -0.1863  0.0331
19993W        W24393  14.571   4.132  25.247 -0.1092  0.2252  0.0133
19994W        W24394  21.031   4.414   7.617  0.2397  0.0701  0.1216
19995W        W24395  22.870   3.426  25.683 -0.2300 -0.2914  0.1003
19996W        W24396  25.193   3.893  28.063 -0.1702 -0.0107  0.1543
19997W        W24397   0.821   3.191   5.311 -0.1894 -0.1201 -0.1724
19998W        W24398  11.753   2.487  23.152  0.1024 -0.2410  0.0886
19999W        W24399   5.843   6.056  22.290 -0.0449 -0.1307  0.0853
20000W        W24400  21.066   3.820  15.147 -0.4924  0.1215  0.0019
20001W        W24401   9.855   0.356  31.330 -0.0650 -0.0535  0.2582
20002W        W24402  13.289   4.958  13.735 -0.2127 -0.0225  0.0660
20003W        W24403  10.603   2.582   9.248  0.2374  0.1100  0.3747
20004W        W24404  26.188   5.606  30.694 -0.2821 -0.2756 -0.1113
20005W        W24405   2.124   0.055  12.216  0.2154  0.1155 -0.0244
20006W        W24406   8.217   4.227   4.440  0.3001 -0.1635  0.2550
20007W        W24407  23.152   4.728  10.152  0.0563 -0.1020  0.1904
20008W        W24408  24.378   0.557  34.017 -0.3212 -0.3660  0.0340
20009W        W24409   8.471   1.391   3.913 -0.0579 -0.1751  0.0626
20010W        W24410  24.977   4.520   7.676 -0.1432  0.0684 -0.0507
20011W        W24411  23.677   4.254  34.706  0.3496  0.2879 -0.0404
20012W        W24412  19.070   5.577  25.659 -0.0973  0.0880 -0.1980
20013W        W24413   8.051   0.248  11.923 -0.2186  0.0741 -0.0670
20014W        W24414   9.829   4.350  31.291 -0.0378 -0.1340  0.0248
20015W        W24415  17.718   2.144  29.388  0.0531  0.3086 -0.3137
20016W        W24416  15.247   2.840  15.210  0.0708  0.0798  0.1665
20017W        W24417  23.088   5.555   9.359  0.2783 -0.1230  0.2756
20018W        W24418   2.569   5.685   5.637  0.0930 -0.1153  0.0483
20019W        W24419  26.341   3.749   1.720 -0.0479 -0.1450  0.2463
20020W        W24420  24.831   1.939  26.223 -0.0730  0.2901  0.0588
20021W        W24421  14.807   2.763   6.453 -0.0662  0.1228 -0.4419
20022W        W24422  15.573   1.003   6.557  0.4363  0.2096  0.1830
20023W        W24423   5.671   0.371  14.765 -0.0154 -0.0785  0.0072
20024W        W24424  21.603   3.864  31.905 -0.0179  0.3876  0.0787
20025W        W24425  21.975   2.376   0.003 -0.0117  0.1183  0.0849
20026W        W24426   0.601   0.789   1.389 -0.4240 -0.0717  0.0027
20027W        W24427  17.242   3.572  26.662  0.0370 -0.2788 -0.2787
20028W        W24428  16.863   0.766  10.176 -0.0115  0.0181  0.0779
20029W        W24429  10.496   3.542  26.316  0.0437  0.1536 -0.1029
20030W        W24430   6.337   2.899  31.353  0.0327 -0.0667 -0.1626
20031W        W24431   5.922   5.390  28.988  0.3347 -0.0426 -0.1179
20032W        W24432  16.047   5.788   8.159 -0.1338  0.1134  0.1469
20033W        W24433  15.942   4.239   8.720  0.0187  0.0947  0.2268
20034W        W24434  17.643   1.762  34.412  0.2481  0.0517  0.0578
20035W        W24435  23.939   0.351  26.385 -0.0292  0.1104  0.0795
20036W        W24436   9.298   5.938   7.856  0.0101 -0.0631  0.0876
20037W        W24437   5.537   1.091  10.689 -0.2055 -0.3448 -0.0754
20038W        W24438  21.138   2.724  34.435  0.0560  0.0797 -0.1190
20039W        W24439   1.110   1.516   0.599  0.0629  0.0245  0.0538
20040W        W24440   1.042   4.093   2.826  0.0009  0.1070 -0.0023
20041W        W24441  21.777   0.651  33.753  0.1261  0.0120 -0.2946
20042W        W24442  25.431   5.560   6.851 -0.2296  0.1536 -0.0377
20043W        W24443   3.093   5.863  25.953  0.0364  0.0920  0.0213
20044W        W24444  15.666   1.957  25.755  0.0511 -0.1386 -0.0809
20045W        W24445   1.062   6.560  32.257 -0.1124 -0.1313 -0.0613
20046W        W24446   1.616   1.324  27.186  0.1460 -0.1715 -0.0637
20047W        W24447  12.721   6.202  21.656 -0.2430  0.0718  0.0730
20048W        W24448   1.462   3.087  13.995  0.0161 -0.0580  0.0786
20049W        W24449   8.427   4.723   6.203 -0.1417 -0.1782 -0.0300
20050W        W24450   1.167   3.086  11.333  0.0318  0.2258 -0.1810
20051W        W24451   4.290   2.746   5.841  0.2257  0.0275 -0.1347
20052W        W24452  16.941   4.829  28.979  0.0633  0.1169  0.0356
20053W        W24453  20.570   2.778   8.467  0.0124  0.2512 -0.0376
20054W        W24454  23.600   5.914  30.914  0.1242 -0.1207 -0.1802
20055W        W24455  22.613   4.256  11.931 -0.2010  0.1867 -0.0390
20056W        W24456  15.250   4.408  29.221 -0.0934  0.0424 -0.4276
20057W        W24457   8.441   1.458  24.936 -0.0086  0.0909  0.0455
20058W        W24458  23.666   5.458  27.938 -0.2842 -0.0943 -0.1689
20059W        W24459   1.993   0.589   4.995 -0.4511  0.0365 -0.0146
20060W        W24460   4.295   2.325  24.478  0.1432  0.2688  0.2381
20061W        W24461  24.164   0.841  23.323 -0.0515  0.3158 -0.2386
20062W        W24462   4.410   5.440   6.326 -0.1359  0.2676 -0.2476
20063W        W24463   6.891   4.532   5.805  0.3699  0.1746  0.4957
20064W        W24464   3.277   2.031  15.210 -0.0043 -0.0305 -0.0850
20065W        W24465   6.704   2.764  27.569  0.0913 -0.0834 -0.2074
20066W        W24466  16.305   3.019  21.207  0.1069 -0.1690  0.1981
20067W        W24467  18.640   2.076   5.973  0.0438  0.1602  0.3060
20068W        W24468  10.993   5.866  28.495 -0.1717  0.0710  0.1522
20069W        W24469  15.888   3.130  28.904  0.2721  0.0466  0.2375
20070W        W24470  19.287   5.906   8.939  0.0425 -0.0290  0.2196
20071W        W24471  17.174   4.143  28.582 -0.4997  0.0400 -0.1949
20072W        W24472  16.768   3.406   3.734  0.1943 -0.0254  0.0789
20073W        W24473  16.568   3.848  35.569 -0.1460  0.0228 -0.0838
20074W        W24474  13.252   0.480  12.404  0.3613 -0.1981 -0.1652
20075W        W24475  20.942   3.401  15.522  0.2260  0.1739 -0.0913
20076W        W24476  25.491   0.989   5.128 -0.0960 -0.2886 -0.1818
20077W        W24477  16.940   5.503   0.376 -0.0520 -0.1846  0.3543
20078W        W24478  10.654   2.439  23.277  0.0765 -0.1744  0.0374
20079W        W24479  16.330   5.904  30.047  0.1267 -0.1749  0.2326
20080W        W24480  19.569   1.533   0.668  0.1785  0.3061 -0.1708
20081W        W24481   1.891   2.431  33.907 -0.1065 -0.0833 -0.0110
20082W        W24482  11.074   0.006  26.841  0.1991 -0.0110 -0.1796
20083W        W24483   8.839   4.696  11.596  0.1555 -0.1409 -0.0902
20084W        W24484  16.723   2.193  27.462  0.5124 -0.5432  0.0108
20085W        W24485  20.704   0.943  11.990  0.1560 -0.3266  0.1602
20086W        W24486  23.731   1.692  33.682  0.0176  0.1858  0.2012
20087W        W24487  12.592   4.418  27.064 -0.0587 -0.3381 -0.2096
20088W        W24488  19.161   6.552  14.894  0.2876  0.1812  0.1216
20089W        W24489   2.703   4.100  21.707 -0.1813 -0.0205 -0.0599
20090W        W24490  11.293   5.908  27.493  0.1280 -0.0064 -0.0270
20091W        W24491  14.482   5.546  35.708  0.2344 -0.1582  0.1457
20092W        W24492  19.054   2.253  13.909 -0.1518  0.0490  0.0579
20093W        W24493  23.585   5.071  22.746 -0.3630 -0.1768  0.0301
20094W        W24494   6.257   3.606  23.477 -0.1069 -0.3061 -0.2044
20095W        W24495   3.685   1.075  34.045  0.2063 -0.0477  0.1634
20096W        W24496  10.844   1.547  33.125 -0.0286  0.0827  0.0523
20097W        W24497   6.873   2.271  12.055  0.0341 -0.1281  0.1306
20098W        W24498  10.151   4.427  24.849  0.2610 -0.3141  0.1963
20099W        W24499  15.446   3.917  35.619 -0.0704  0.0489 -0.1645
20100W        W24500  15.429   2.509  24.788  0.1213 -0.0196  0.0440
20101W        W24501  14.688   3.277   3.016 -0.0061  0.6914  0.0496
20102W        W24502  13.635   4.203  10.594  0.2592 -0.0314  0.0568
20103W        W24503  24.987   3.069   9.559 -0.2350  0.2178  0.0024
20104W        W24504  17.457   6.200  11.707 -0.1997  0.0993 -0.1503
20105W        W24505  17.285   5.208  11.998  0.0311 -0.2193  0.2144
20106W        W24506  18.865   5.871  34.428 -0.2516 -0.3629  0.2318
20107W        W24507   2.178   2.676  11.009 -0.2093 -0.1307  0.3598
20108W        W24508   6.334   3.507  30.296 -0.0464  0.0550  0.1065
20109W        W24509  16.691   1.195   8.549  0.0281  0.0533  0.1351
20110W        W24510  17.394   6.528  33.292  0.1154  0.5494 -0.0841
20111W        W24511   5.064   6.216   7.034 -0.0292 -0.0668  0.2638
20112W        W24512  17.716   2.771   8.884 -0.0780 -0.1134  0.2338
20113W        W24513  14.395   4.498  28.163 -0.1360  0.0108 -0.5302
20114W        W24514   0.253   4.949  14.424 -0.2288  0.1593 -0.2210
20115W        W24515  10.746   0.160  27.524 -0.1341 -0.1320 -0.0453
20116W        W24516  15.551   2.691  14.159 -0.2406 -0.4134  0.1106
20117W        W24517  21.970   4.263  33.234  0.0458  0.0539  0.0799
20118W        W24518  23.365   0.889   3.420  0.2429 -0.2193  0.4231
20119W        W24519  11.081   3.506  26.359 -0.0018  0.2419  0.0252
20120W        W24520  10.624   0.312  22.155  0.3786  0.0736  0.1269
20121W        W24521  11.686   1.175  15.467  0.2041  0.1683  0.0096
20122W        W24522   5.727   3.437  26.729  0.0170 -0.2063 -0.0744
20123W        W24523  21.036   6.241  33.399 -0.1314 -0.0687 -0.0506
20124W        W24524   0.768   0.323  10.458  0.0248 -0.0863 -0.1677
20125W        W24525  23.370   2.869  11.628 -0.3477 -0.0674 -0.5038
20126W        W24526  20.986   1.456  10.065  0.1012 -0.0936 -0.5218
20127W        W24527  14.689   1.932  29.120  0.2894  0.0832  0.0540
20128W        W24528  19.033   1.274  26.539  0.1490  0.0091 -0.1683
20129W        W24529  20.308   0.481  13.878  0.1011 -0.0689 -0.0615
20130W        W24530   3.108   1.399  33.721 -0.0504  0.1677  0.1164
20131W        W24531   7.928   4.843  10.461  0.1364 -0.2219  0.0174
20132W        W24532  10.099   2.589   5.152 -0.0656  0.1699 -0.2499
20133W        W24533  22.459   0.736  20.474  0.1487 -0.0768  0.0738
20134W        W24534  25.435   1.495  12.372  0.1064 -0.0225  0.1408
20135W        W24535  23.270   3.020  26.048  0.0507 -0.3331  0.0230
20136W        W24536  15.639   4.375  14.832  0.1547  0.2198 -0.1747
20137W        W24537  16.815   5.444   1.678  0.1392 -0.2524 -0.3288
20138W        W24538  13.543   4.862  24.080 -0.2790 -0.0161  0.0565
20139W        W24539  14.689   2.189   5.205  0.1876  0.1163  0.0109
20140W        W24540  19.531   4.193  20.077 -0.0734 -0.1093 -0.0183
20141W        W24541   8.467   6.039   0.143 -0.1734  0.0664 -0.0360
20142W        W24542  23.033   0.797  22.701  0.1437  0.0143 -0.2152
20143W        W24543  18.763   6.070  22.480  0.2612 -0.1251  0.0278
20144W        W24544  10.687   4.013   7.517  0.2218  0.1202 -0.0424
20145W        W24545   5.791   4.708  27.984  0.1637 -0.1372 -0.1784
20146W        W24546  11.026   5.756   2.408 -0.3683 -0.1902  0.0393
20147W        W24547  15.263   0.023  11.000  0.1361 -0.0813  0.1393
20148W        W24548  21.508   2.072   6.172  0.1418  0.1758  0.0044
20149W        W24549  15.684   2.290  21.995  0.4389  0.0343 -0.0541
20150W        W24550   8.075   2.162  14.108  0.0301  0.0404  0.4355
20151W        W24551  10.505   6.221   3.421  0.0663 -0.0977  0.0704
20152W        W24552  23.709   2.834  24.577 -0.0520  0.1958 -0.1225
20153W        W24553  24.082   4.571  24.551 -0.0417 -0.0564 -0.0106
20154W        W24554  21.368   1.983  25.463 -0.1233 -0.0273  0.3712
20155W        W24555  22.717   4.442  22.891  0.1462 -0.4144  0.1273
20156W        W24556  19.667   6.450  33.587  0.0968 -0.2028  0.0876
20157W        W24557  18.783   5.336  15.187 -0.0410 -0.1915 -0.3533
20158W        W24558  14.687   4.084   5.541  0.1936  0.0252  0.1399
20159W        W24559  17.743   0.487   5.790  0.1037  0.0867  0.3561
20160W        W24560  23.443   0.629   2.653  0.0413  0.2687 -0.2149
20161W        W24561  17.559   5.369  30.814 -0.0771  0.2011 -0.0054
20162W        W24562   4.515   1.544  31.893  0.1177  0.2053 -0.1887
20163W        W24563   1.641   6.601   0.546 -0.1800  0.1240  0.1819
20164W        W24564   6.392   2.942  13.765  0.0690  0.0583 -0.2149
20165W        W24565  15.441   4.973   7.208  0.0557 -0.1739  0.0227
20166W        W24566   4.194   1.186  31.152  0.1434 -0.3190  0.2854
20167W        W24567  14.387   6.217  34.599  0.2272 -0.0791 -0.2745
20168W        W24568  10.421   5.622  13.487 -0.0445  0.0272  0.1478
20169W        W24569  22.953   0.487  12.057 -0.0889 -0.0668 -0.2819
20170W        W24570  20.558   5.751   5.600 -0.1375  0.3983  0.1139
20171W        W24571  12.252   6.465  27.110 -0.0994 -0.2018 -0.0366
20172W        W24572   1.608   1.093   2.588  0.1147 -0.3955  0.3333
20173W        W24573   9.497   0.799  12.235  0.1714  0.0940  0.3768
20174W        W24574   4.182   4.448  25.214 -0.0119 -0.0116 -0.0918
20175W        W24575  12.159   0.332   3.055 -0.0059  0.2788 -0.2380
20176W        W24576   4.992   1.719  12.303 -0.0141 -0.2410 -0.1413
20177W        W24577   7.539   2.622  23.429  0.1379  0.4687 -0.0057
20178W        W24578   8.047   5.903   1.432 -0.5075 -0.1859 -0.2322
20179W        W24579   1.560   0.416   8.009 -0.1461 -0.0528 -0.0708
20180W        W24580  22.912   0.837  27.497  0.1078  0.1582  0.1424
20181W        W24581  15.305   5.772  34.911  0.0783 -0.1905  0.2377
20182W        W24582   5.041   5.154   3.564  0.2121 -0.2210 -0.4144
20183W        W24583  21.146   0.260  31.177 -0.0291  0.0656  0.0219
20184W        W24584   2.097   6.466   7.856 -0.2158  0.0642  0.2565
20185W        W24585  22.523   6.492  31.806  0.1625  0.1209 -0.1239
20186W        W24586  23.503   0.676   6.549  0.1010  0.0493 -0.1441
20187W        W24587   0.269   3.356   2.130  0.1476 -0.0348  0.0158
20188W        W24588  16.742   0.111  33.983  0.0228  0.2036 -0.0034
20189W        W24589  14.083   4.600  12.343  0.1617  0.0256  0.1064
20190W        W24590   6.538   1.694   7.876 -0.1626 -0.0958 -0.0222
20191W        W24591  21.811   2.934  30.380  0.0290 -0.0334  0.0190
20192W        W24592  14.343   1.208  20.634 -0.1495  0.1986  0.2491
20193W        W24593  21.703   2.972  29.163 -0.1185  0.2105 -0.1732
20194W        W24594  14.325   2.416   7.235 -0.0031  0.2299 -0.0702
20195W        W24595  12.302   3.051   8.890 -0.2329 -0.0258  0.1424
20196W        W24596  18.490   3.074  25.633  0.1253 -0.1153  0.1092
20197W        W24597   0.809   5.439  10.007 -0.1086 -0.3696 -0.2174
20198W        W24598  21.102   0.609   4.786  0.2289 -0.0641  0.0465
20199W        W24599  12.265   3.973   0.067  0.0433  0.1574 -0.0471
20200W        W24600  13.534   4.085  15.466 -0.1428 -0.0440  0.1425
20201W        W24601  22.894   1.269  25.175  0.2348  0.0354  0.1558
20202W        W24602   8.820   1.087  24.209  0.0364 -0.2565 -0.0512
20203W        W24603   7.650   3.811  26.535  0.0790  0.1303  0.1910
20204W        W24604  13.981   0.233  33.449 -0.2037 -0.1883 -0.1736
20205W        W24605  21.954   5.521   0.536  0.0267  0.2249  0.0197
20206W        W24606  23.423   3.101  27.364  0.0093 -0.1196 -0.1522
20207W        W24607  21.569   2.477  32.629  0.0157 -0.0595  0.1828
20208W        W24608  18.448   6.509  12.598  0.1577 -0.1259 -0.2933
20209W        W24609  15.029   1.396  13.847  0.0379 -0.3364 -0.2229
20210W        W24610  22.411   4.553   8.764 -0.1037  0.1316  0.3713
20211W        W24611  24.265   0.159   3.149  0.0739  0.2435 -0.3093
20212W        W24612   7.422   2.971   8.371 -0.1509  0.0782  0.0283
20213W        W24613  12.014   2.611   1.974  0.0005 -0.1656 -0.0714
20214W        W24614   0.352   3.765  14.203 -0.0707 -0.0657  0.1638
20215W        W24615  16.913   0.186  12.588  0.2237 -0.1143  0.1399
20216W        W24616  12.897   5.675  31.519 -0.2345  0.0687  0.1604
20217W        W24617   6.196   3.884   0.901 -0.0985  0.1218  0.0335
20218W        W24618   0.030   1.637  33.328 -0.0908  0.0688  0.1922
20219W        W24619  19.696   1.842  23.680 -0.1809  0.2552  0.1889
20220W        W24620   2.412   6.188  34.139 -0.0405 -0.1483  0.2091
20221W        W24621   6.446   0.864  12.735 -0.0990  0.0321  0.3269
20222W        W24622  20.719   4.480  33.426 -0.2020  0.0243 -0.0389
20223W        W24623  10.203   0.629  22.831  0.2479 -0.0333 -0.2393
20224W        W24624  19.710   3.854  26.790  0.2672  0.3903 -0.1930
20225W        W24625  25.658   4.680  31.758 -0.0613 -0.1043 -0.1258
20226W        W24626  16.921   6.360   8.220  0.3592  0.1044  0.2233
20227W        W24627  20.469   6.424   8.649 -0.4998 -0.0365  0.0368
20228W        W24628   1.207   1.042  24.037 -0.1872 -0.0839  0.0623
20229W        W24629   7.755   3.535   0.405  0.0237  0.1991 -0.2937
20230W        W24630   5.389   2.698   7.865  0.0613  0.0196 -0.1203
20231W        W24631   1.577   3.615   1.847  0.0592 -0.0700  0.2466
20232W        W24632   7.115   5.024  34.822  0.1240 -0.1198 -0.1840
20233W        W24633  15.521   5.033   6.588 -0.1669 -0.0731  0.3281
20234W        W24634  23.316   1.526  13.290 -0.0798  0.1094  0.1833
20235W        W24635  12.817   4.342  28.911 -0.1110  0.1961 -0.0730
20236W        W24636   2.550   2.892  13.855 -0.1922 -0.0737 -0.0277
20237W        W24637   5.318   0.298  21.022 -0.3368  0.0298 -0.2946
20238W        W24638   7.287   3.200   0.108  0.0610 -0.0972  0.2281
20239W        W24639  17.496   2.383  24.843  0.1205  0.0660 -0.1651
20240W        W24640  16.187   3.581  10.953 -0.1912  0.0127  0.1877
20241W        W24641   9.002   6.010  24.199  0.2102 -0.0079  0.0870
20242W        W24642  18.838   0.550  14.611 -0.0284 -0.0621 -0.1016
20243W        W24643  12.018   5.589  21.357  0.0682 -0.0961  0.1081
20244W        W24644  19.753   2.797  34.084 -0.0150 -0.0443  0.0133
20245W        W24645  12.589   5.750  12.552  0.0760 -0.0327  0.2627
20246W        W24646   4.469   5.500  22.868 -0.1828  0.1993  0.1659
20247W        W24647  12.120   5.053  23.337  0.1729  0.4242 -0.2014
20248W        W24648   8.505   5.355  13.962 -0.0214  0.2202  0.1610
20249W        W24649  16.815   4.821   9.510  0.1390  0.0586 -0.0603
20250W        W24650  19.514   3.728  29.682 -0.0245  0.1637  0.1829
20251W        W24651   7.753   5.786  24.694 -0.2651 -0.0376 -0.2399
20252W        W24652  18.576   5.438  25.702 -0.0502  0.0290 -0.1574
20253W        W24653  23.351   5.486   6.254  0.1724  0.0841  0.1227
20254W        W24654  16.525   1.769   7.356  0.0925  0.0565 -0.0761
20255W        W24655   7.678   2.992   4.068 -0.1511 -0.0136  0.0323
20256W        W24656  15.180   4.263  25.216  0.1100 -0.2787  0.0484
20257W        W24657   3.874   6.115  28.607  0.0513 -0.3388 -0.0470
20258W        W24658  16.299   2.456  26.796 -0.1272 -0.3856  0.0552
20259W        W24659   5.037   0.171  35.451  0.1635  0.1020  0.0062
20260W        W24660  11.246   6.483   9.024 -0.4459  0.2034  0.0481
20261W        W24661  20.338   5.778  13.465  0.2325  0.0900 -0.1411
20262W        W24662  16.767   0.164  31.210  0.1103  0.1603 -0.0977
20263W        W24663   4.189   3.665   4.235 -0.0341  0.1609 -0.2052
20264W        W24664  17.849   3.840  35.666 -0.5373  0.1183  0.1048
20265W        W24665  14.527   0.117  33.958 -0.2705  0.0403 -0.0801
20266W        W24666   3.904   3.885   1.524  0.0670  0.1445  0.2679
20267W        W24667  19.581   6.104   3.682 -0.1165 -0.0632 -0.0504
20268W        W24668   1.886   3.159   1.758 -0.1054 -0.6418  0.0909
20269W        W24669  24.732   4.671   3.201 -0.0104  0.0114  0.1021
20270W        W24670  23.632   4.793  14.195 -0.0692  0.0894  0.2295
20271W        W24671  16.538   4.255  12.119  0.1246 -0.1773 -0.0647
20272W        W24672   6.831   5.815  13.036 -0.0947  0.1682  0.3405
20273W        W24673  24.812   1.961  35.259 -0.2578 -0.3263  0.1839
20274W        W24674   5.270   5.010  22.783  0.0807 -0.1015  0.2330
20275W        W24675  11.456   5.892  22.753 -0.1595 -0.0174  0.0517
20276W        W24676  14.039   6.292   9.571  0.2995 -0.0781  0.1855
20277W        W24677  11.367   5.937  33.996 -0.0360  0.0841  0.6009
20278W        W24678   1.954   3.415  26.542 -0.1063 -0.2783  0.0369
20279W        W24679  12.166   3.695  23.133 -0.2685  0.0525 -0.0576
20280W        W24680  14.568   0.186  23.763 -0.2393  0.2938 -0.0093
20281W        W24681  10.512   4.995  31.335 -0.1271 -0.1881 -0.0238
20282W        W24682  10.266   5.353  34.521 -0.3713 -0.2489 -0.0320
20283W        W24683  21.137   1.399  12.585 -0.0381  0.2037 -0.3550
20284W        W24684  22.736   1.345  33.028 -0.0137  0.0361 -0.2080
20285W        W24685   3.382   2.287  24.662  0.0238 -0.2001 -0.1793
20286W        W24686   2.205   6.063   8.337 -0.0553  0.1965 -0.0892
20287W        W24687   0.700   3.101  34.296 -0.1382 -0.0740 -0.1307
20288W        W24688  19.341   3.087   8.427  0.0747 -0.0775  0.0233
20289W        W24689  22.679   2.843   8.405  0.0870 -0.1133  0.2203
20290W        W24690   7.394   3.353   7.555  0.0431  0.1839  0.1161
20291W        W24691  13.332   0.299  35.069  0.1655 -0.0446 -0.1665
20292W        W24692  19.892   4.671  35.540  0.3873  0.1923 -0.1534
20293W        W24693  17.045   2.062   3.668 -0.2006  0.0177 -0.2489
20294W        W24694   8.347   3.858  35.376  0.1618  0.0905 -0.1704
20295W        W24695   1.446   2.505   1.004 -0.2698  0.0380 -0.0566
20296W        W24696   1.728   4.715   9.770  0.1675  0.2918  0.0652
20297W        W24697  15.195   2.210  11.305 -0.0378  0.1469 -0.1660
20298W        W24698  21.575   6.052  31.357  0.0721  0.0240 -0.0114
20299W        W24699   1.924   2.024   2.070 -0.0122  0.0115 -0.2265
20300W        W24700  15.261   3.987  15.735  0.2610  0.2148  0.4375
20301W        W24701  19.131   5.366   9.240 -0.2044  0.0644 -0.0340
20302W        W24702  10.889   0.385   2.173  0.0215 -0.1920 -0.0666
20303W        W24703   0.920   4.299  26.182 -0.1042 -0.2175 -0.0022
20304W        W24704  13.569   2.099   1.412 -0.1207 -0.0424 -0.0601
20305W        W24705   6.809   2.033  35.714  0.0355  0.1893  0.2443
20306W        W24706  19.353   0.867   2.997  0.2706 -0.1260  0.0411
20307W        W24707  15.299   5.005  21.706  0.3637  0.1905 -0.2182
20308W        W24708  21.314   2.640  11.901 -0.1772  0.1451  0.0094
20309W        W24709  12.035   1.882   9.837  0.1104  0.2061 -0.0705
20310W        W24710  15.402   6.421  31.496 -0.1956  0.0793  0.1533
20311W        W24711  10.186   4.708  22.109 -0.0916  0.1384 -0.5814
20312W        W24712  11.539   5.510  35.104  0.0799  0.2878 -0.0650
20313W        W24713  23.786   5.335  10.398  0.2681  0.1232 -0.4179
20314W        W24714   0.922   4.606  10.844  0.1072 -0.0136 -0.2278
20315W        W24715   5.668   3.949  27.668  0.0517  0.1961  0.2010
20316W        W24716  19.197   3.598   9.530 -0.1460 -0.0942  0.0627
20317W        W24717   5.405   5.068  14.522  0.1667 -0.1072  0.1247
20318W        W24718   2.390   0.264   6.994 -0.0775 -0.0231  0.1298
20319W        W24719  11.084   0.655  33.733  0.0737  0.2337  0.1294
20320W        W24720  25.944   1.452  14.049  0.0304 -0.1429 -0.0380
20321W        W24721  24.533   0.649  23.628  0.1047 -0.0855  0.0895
20322W        W24722  10.798   5.041  27.248 -0.1511  0.2105  0.1244
20323W        W24723  21.692   6.446  13.827 -0.2113 -0.1199 -0.3167
20324W        W24724  25.572   3.284  31.799 -0.2608  0.1005  0.1210
20325W        W24725  17.138   6.361  10.851 -0.1901 -0.1342  0.2567
20326W        W24726  15.367   3.539  28.558 -0.1792  0.0879  0.3777
20327W        W24727  19.811   1.315  29.837 -0.0944  0.0503  0.0649
20328W        W24728  25.327   6.093  22.157  0.1871 -0.2343  0.3927
20329W        W24729   7.465   2.592   9.909  0.0518 -0.3384 -0.0169
20330W        W24730  22.851   2.477   8.791 -0.0841 -0.1037 -0.3981
20331W        W24731  12.937   6.149   6.890  0.0466  0.0981  0.0682
20332W        W24732   2.667   6.527  29.457 -0.0795 -0.4558  0.1145
20333W        W24733   3.933   2.416   3.574  0.1280 -0.1177 -0.0111
20334W        W24734  12.193   2.070  34.264 -0.2317 -0.0782  0.0100
20335W        W24735  13.919   4.764  21.897  0.0012  0.0826 -0.0174
20336W        W24736   0.780   3.529  27.509  0.0193  0.0288  0.0803
20337W        W24737  22.302   5.493   0.193 -0.3650  0.0106 -0.1592
20338W        W24738   7.966   6.091   9.793  0.0039  0.0139  0.2787
20339W        W24739   7.248   5.025  27.057 -0.1201  0.0726 -0.1633
20340W        W24740   4.605   3.008  21.061  0.0722  0.1011 -0.0042
20341W        W24741   5.914   4.092   7.621 -0.1882 -0.0404 -0.2047
20342W        W24742  14.565   4.138  23.064 -0.4438  0.2588  0.2374
20343W        W24743   0.441   6.534  22.705  0.2091 -0.3211 -0.0312
20344W        W24744  25.154   3.707   0.244  0.1164  0.2757  0.0881
20345W        W24745   5.600   0.451  12.619  0.1953 -0.1846 -0.2421
20346W        W24746  22.508   6.297   9.624  0.3851 -0.2894  0.1287
20347W        W24747  21.544   0.833   3.600  0.1818  0.0599 -0.1433
20348W        W24748   2.441   5.536  33.019  0.4410 -0.0227  0.0553
20349W        W24749  17.334   1.146  35.367 -0.0704 -0.2458  0.0523
20350W        W24750   7.329   0.252  25.874  0.0365 -0.4173 -0.0826
20351W        W24751  12.272   3.472  30.641  0.3039  0.1535 -0.0379
20352W        W24752  14.661   2.850  29.730  0.0253  0.1097  0.0316
20353W        W24753  19.980   2.304  31.679 -0.1725  0.0688  0.2087
20354W        W24754  22.907   6.495  27.785 -0.0585  0.0474  0.3333
20355W        W24755  15.528   0.794   3.605  0.1023  0.0280  0.2893
20356W        W24756   8.400   4.087  22.713  0.0983  0.0050  0.2992
20357W        W24757   1.795   0.827  11.481  0.4297 -0.2085  0.0245
20358W        W24758  22.040   4.283   1.460  0.1796 -0.3553 -0.2847
20359W        W24759  24.592   1.652  20.983 -0.1592  0.0652 -0.3696
20360W        W24760   1.288   6.283  23.893 -0.0145 -0.1702  0.3223
20361W        W24761   1.499   3.708  24.201  0.0241  0.0594  0.0582
20362W        W24762   1.754   2.292  20.305 -0.2144 -0.0532  0.1145
20363W        W24763  16.650   2.379  33.861  0.2459  0.1818 -0.3072
20364W        W24764  22.706   0.977  31.546 -0.0727  0.1162 -0.1382
20365W        W24765   6.024   6.437  22.592 -0.0029  0.0592  0.0700
20366W        W24766  25.752   2.379  12.407 -0.0845  0.1863 -0.0196
20367W        W24767  13.519   3.854   3.318 -0.1811  0.2895  0.0920
20368W        W24768   9.133   0.824  30.102  0.2162  0.1783  0.0948
20369W        W24769  10.230   4.655   6.811  0.2279  0.0972 -0.0235
20370W        W24770   2.334   1.477  29.819 -0.2740 -0.2310 -0.3623
20371W        W24771   5.979   2.821   1.526 -0.1499 -0.0848  0.0357
20372W        W24772  18.269   5.885  20.497 -0.5083 -0.0487 -0.1226
20373W        W24773  15.376   1.136  31.755  0.1844  0.1316  0.1617
20374W        W24774  17.736   3.139  25.481  0.1361 -0.3345 -0.0160
20375W        W24775  20.435   0.683  35.465 -0.3161 -0.1709  0.0250
20376W        W24776  22.335   3.769  21.537  0.2797  0.0291 -0.2051
20377W        W24777  24.642   5.939   1.490 -0.0008 -0.1384  0.1064
20378W        W24778  14.377   0.954  25.345  0.0286  0.0890  0.2010
20379W        W24779   8.024   4.072   9.330 -0.1192 -0.4368 -0.2864
20380W        W24780  24.214   0.320   8.506 -0.3012  0.0083  0.1988
20381W        W24781   2.228   0.989   1.328  0.3124  0.2652  0.2052
20382W        W24782   3.580   0.235  25.662  0.1666 -0.1405  0.3558
20383W        W24783   3.760   0.946   3.488 -0.1920  0.0668  0.0831
20384W        W24784   2.197   1.308  33.183 -0.1103  0.1026 -0.1916
20385W        W24785  20.904   2.440  28.509  0.0697 -0.1885  0.2726
20386W        W24786  15.931   1.327  23.499 -0.2331  0.2500 -0.1917
20387W        W24787  17.373   1.027  32.462 -0.0355  0.1679 -0.0189
20388W        W24788  16.904   6.411  23.922  0.1636 -0.0086 -0.0272
20389W        W24789  25.555   4.280  22.512  0.1680 -0.2370  0.1758
20390W        W24790   2.974   1.646   8.877  0.0661 -0.0074 -0.0069
20391W        W24791  14.843   1.823  21.616 -0.1172 -0.1205 -0.1803
20392W        W24792   5.909   2.714  24.154  0.0496  0.2120  0.1518
20393W        W24793   8.318   4.190   5.872  0.2234 -0.0275  0.0886
20394W        W24794   7.614   4.732  22.899  0.1264 -0.1162  0.0926
20395W        W24795  23.253   2.321  26.880 -0.1812 -0.1746  0.2265
20396W        W24796   2.409   1.085  28.400 -0.4243  0.2636 -0.1136
20397W        W24797   5.609   0.596  28.480 -0.0198  0.1881  0.3313
20398W        W24798  21.743   1.992   2.035 -0.1814  0.2345 -0.1751
20399W        W24799   9.435   4.607   0.333 -0.0430 -0.1291  0.1757
20400W        W24800   9.459   0.547  13.121  0.0891  0.0382 -0.2688
20401W        W24801   7.566   4.723  33.637 -0.0000 -0.1223  0.4589
20402W        W24802  14.173   5.848  27.434 -0.2185 -0.2475  0.1532
20403W        W24803  14.013   3.334  27.678 -0.0718 -0.0304 -0.0372
20404W        W24804   5.787   2.936  22.916 -0.0460 -0.0990 -0.0110
20405W        W24805   2.416   3.331   4.941  0.1658 -0.2228  0.1954
20406W        W24806  20.863   6.124  13.530 -0.1465 -0.1204  0.1091
20407W        W24807   4.859   5.685   6.281 -0.2920  0.1085  0.0671
20408W        W24808  22.838   3.985  26.771 -0.1244 -0.0910 -0.0856
20409W        W24809   5.064   3.707  11.119 -0.0628 -0.0320 -0.0298
20410W        W24810  21.050   1.293  15.893 -0.1704  0.0638  0.0801
20411W        W24811  11.995   3.183  13.699  0.0959 -0.2899  0.0832
20412W        W24812  14.888   1.722  23.157  0.1510 -0.2223 -0.1744
20413W        W24813   1.294   1.981  10.127  0.0111 -0.1309  0.1511
20414W        W24814  23.177   1.397  22.616  0.0315 -0.0152  0.2261
20415W        W24815  14.860   6.170  36.136  0.2595 -0.1396 -0.1751
20416W        W24816   7.335   5.999  35.938  0.2107 -0.1627 -0.0769
20417W        W24817   3.414   1.856   0.130  0.0331  0.0944 -0.3476
20418W        W24818   7.877   3.735  13.037  0.0419 -0.3471  0.1769
20419W        W24819  24.086   0.294   5.379 -0.2062 -0.1622 -0.1278
20420W        W24820   6.038   0.409   9.977  0.2433 -0.0334  0.4135
20421W        W24821  11.970   5.171   3.952 -0.0127 -0.2978 -0.0100
20422W        W24822  21.317   4.871   6.176  0.1034 -0.2890 -0.1569
20423W        W24823   1.748   4.470  29.686 -0.1217 -0.2603  0.1010
20424W        W24824  22.227   6.396  27.247  0.2682 -0.0101  0.0038
20425W        W24825  24.663   1.979   1.105  0.0994  0.1579 -0.2463
20426W        W24826  15.800   5.845  12.509 -0.2800  0.2146  0.0206
20427W        W24827  22.458   3.704  26.816  0.1204  0.1668  0.1919
20428W        W24828  19.576   3.510  35.210  0.0794 -0.0135  0.0552
20429W        W24829  17.085   0.312  33.134 -0.0450 -0.1805  0.0526
20430W        W24830  12.961   2.626   5.509 -0.1433 -0.0407  0.1608
20431W        W24831   4.321   0.055  12.830 -0.4127  0.2035  0.0603
20432W        W24832  11.581   0.621   7.501  0.0971 -0.0448  0.0452
20433W        W24833   3.181   6.556  26.689 -0.1553  0.1044  0.2104
20434W        W24834   7.148   4.507  29.348 -0.3247  0.1856  0.0127
20435W        W24835   5.376   1.927  23.010 -0.0870  0.1873  0.0310
20436W        W24836   2.632   3.350  34.056 -0.1572  0.3633 -0.0094
20437W        W24837  12.120   3.208  15.714  0.3803 -0.2986  0.1614
20438W        W24838   5.136   5.840  27.343  0.1126 -0.0222 -0.0507
20439W        W24839  17.846   1.057  20.584 -0.0609 -0.2603 -0.1566
20440W        W24840  24.995   4.024  20.970  0.0591 -0.2935 -0.1028
20441W        W24841  25.065   0.656  12.889  0.3978  0.1177 -0.1281
20442W        W24842  18.949   4.203   7.075 -0.0561  0.2233 -0.1354
20443W        W24843  17.923   0.721   8.152  0.0604 -0.0493 -0.2173
20444W        W24844   1.252   0.832  21.240 -0.1739  0.0133 -0.0899
20445W        W24845   6.546   2.760  29.730  0.1290 -0.1265 -0.0649
20446W        W24846   3.643   6.004  22.421 -0.1314  0.2562 -0.0495
20447W        W24847  22.524   2.751  27.497 -0.0672 -0.1690 -0.2680
20448W        W24848  10.967   4.672  29.224  0.1274  0.1684 -0.3406
20449W        W24849  18.331   3.243   1.895 -0.3333 -0.0976 -0.0959
20450W        W24850  22.699   2.671   4.496  0.3644 -0.0748 -0.2111
20451W        W24851  10.811   3.807   9.978 -0.1024  0.0677  0.0884
20452W        W24852   8.627   3.089  26.698 -0.1711 -0.1907 -0.0893
20453W        W24853  19.829   4.681  36.047 -0.2072 -0.0940  0.3473
20454W        W24854   2.251   0.510  27.806  0.0194  0.0004 -0.1757
20455W        W24855   3.907   5.870  20.579  0.2801  0.1869  0.0578
20456W        W24856  19.293   2.130   9.303 -0.1950 -0.2882 -0.1500
20457W        W24857  21.617   6.096   2.869 -0.0082  0.0020 -0.1111
20458W        W24858  22.788   0.354  33.524  0.1081 -0.0480 -0.0203
20459W        W24859  24.275   3.171   3.790  0.3572  0.2837 -0.3808
20460W        W24860  22.684   1.818  30.067 -0.0925  0.0906  0.3168
20461W        W24861   5.723   3.588  23.443 -0.0222 -0.1222 -0.1286
20462W        W24862  20.916   3.912  33.675 -0.1884 -0.2398 -0.2886
20463W        W24863  17.590   5.626  24.592  0.2318  0.0635  0.1283
20464W        W24864  13.532   5.204  35.311 -0.0398  0.1400 -0.2401
20465W        W24865  19.326   3.570  34.463  0.1573 -0.2341 -0.0073
20466W        W24866  18.197   6.018   5.724  0.3666  0.1270  0.0165
20467W        W24867   5.407   4.442   0.196 -0.1095 -0.0528  0.1022
20468W        W24868  16.975   3.956   4.126 -0.0856  0.3904  0.0272
20469W        W24869  11.938   2.399   8.126 -0.0802  0.3757  0.1162
20470W        W24870   3.028   1.465  23.988  0.0254  0.2685 -0.1403
20471W        W24871   8.367   5.415  26.387 -0.1452 -0.2475 -0.0762
20472W        W24872  21.981   6.171  14.511 -0.0624 -0.2479 -0.2638
20473W        W24873   4.938   5.069  28.900  0.0639  0.0717  0.0676
20474W        W24874  20.341   1.054  26.878  0.2307 -0.4052 -0.0248
20475W        W24875  25.099   5.372  13.449 -0.3808 -0.0193  0.2769
20476W        W24876  13.499   5.116  13.309  0.0193  0.0662  0.1085
20477W        W24877  16.405   0.490  31.565 -0.1662 -0.0773  0.0663
20478W        W24878  18.448   4.645  27.893 -0.0526 -0.0263 -0.1085
20479W        W24879   8.491   1.244  34.930  0.1214 -0.0368 -0.2091
20480W        W24880  13.238   2.827  34.388  0.0541  0.0757 -0.1245
20481W        W24881   0.272   2.359  32.525 -0.0884 -0.0638 -0.1170
20482W        W24882   6.042   1.637   3.747 -0.2442 -0.0804 -0.0323
20483W        W24883  25.127   2.346  22.103  0.1554 -0.0461  0.0632
20484W        W24884  10.938   0.997  15.103  0.0433 -0.0067  0.0972
20485W        W24885  26.023   5.394   4.889 -0.0752  0.2575  0.0415
20486W        W24886   6.315   5.326  30.886  0.0709 -0.4096  0.2124
20487W        W24887   0.980   1.749   9.803  0.2046 -0.0053 -0.3309
20488W        W24888   9.071   3.287  30.544 -0.3422  0.2186  0.1381
20489W        W24889   0.701   2.856  10.315  0.0759 -0.0625 -0.0359
20490W        W24890  20.137   3.559   2.233 -0.4371 -0.0074 -0.0979
20491W        W24891  11.246   5.431  21.539  0.1094  0.0568 -0.2478
20492W        W24892  10.343   0.169   8.239  0.1153 -0.0128  0.0464
20493W        W24893  10.790   2.144  26.516 -0.1094  0.0782  0.1949
20494W        W24894  24.388   5.667   8.431 -0.0244  0.1425 -0.2333
20495W        W24895   1.686   5.139   2.747  0.0569  0.2070 -0.3309
20496W        W24896  11.240   5.958  34.472  0.1444  0.1032 -0.2377
20497W        W24897   7.667   1.740  35.930 -0.1492  0.0306  0.1184
20498W        W24898  24.549   0.965  23.996  0.2346 -0.0152  0.0852
20499W        W24899  14.549   5.265   9.605  0.2954  0.1276  0.0556
20500W        W24900   4.866   3.302  21.348  0.1684 -0.1167 -0.0717
20501W        W24901  21.043   0.180  21.311 -0.0895 -0.1775  0.1551
20502W        W24902   1.674   2.907  25.613  0.0128  0.0365 -0.1427
20503W        W24903  25.351   1.102  12.006  0.2397  0.1201  0.1208
20504W        W24904  16.080   5.446   7.046  0.3433  0.1616 -0.0993
20505W        W24905   7.728   3.834  12.062 -0.0566  0.2413  0.1211
20506W        W24906   8.545   2.148  23.264 -0.4464  0.0874  0.2377
20507W        W24907  11.717   1.589  11.358 -0.2545  0.0844  0.3065
20508W        W24908   0.676   4.998   8.650 -0.0325 -0.0160  0.0725
20509W        W24909  15.785   2.339   0.795 -0.4017  0.0834  0.0374
20510W        W24910   4.903   2.661  26.968 -0.0369 -0.2034  0.1522
20511W        W24911   3.889   0.245   3.278 -0.1973  0.2045 -0.2421
20512W        W24912   5.803   1.398  15.080 -0.1400  0.1783 -0.0332
20513W        W24913  13.315   5.571  27.222 -0.1686  0.1396 -0.2059
20514W        W24914   9.164   4.733   9.063  0.0715  0.1427  0.2888
20515W        W24915  15.865   3.730  28.069 -0.2081  0.2654  0.1504
20516W        W24916  22.215   6.473   3.659  0.1482  0.0090 -0.1296
20517W        W24917   0.980   5.406  26.882 -0.0237 -0.1157 -0.1129
20518W        W24918  16.773   1.222  28.801 -0.2345 -0.2250 -0.1477
20519W        W24919   7.848   2.846  34.507 -0.1367 -0.0425  0.1309
20520W        W24920  18.224   4.770  29.793  0.0859 -0.1954  0.3924
20521W        W24921   2.082   0.350  32.240  0.1675  0.2376  0.2089
20522W        W24922   1.321   2.536  20.355 -0.1166 -0.0912  0.0364
20523W        W24923   4.171   3.781  22.541 -0.2627  0.2429 -0.2265
20524W        W24924   7.929   4.062  21.833 -0.2115  0.1567  0.0203
20525W        W24925  24.248   5.990   3.808 -0.0207 -0.0032 -0.0172
20526W        W24926  12.073   5.453  11.907  0.1486  0.2266 -0.0325
20527W        W24927   0.177   3.054  28.975  0.1314 -0.0350 -0.1278
20528W        W24928   4.572   4.065  21.022  0.0572 -0.0001 -0.0322
20529W        W24929  15.170   4.807  22.998 -0.1253  0.1615  0.3365
20530W        W24930  18.381   2.445  30.032  0.2803  0.3034 -0.0539
20531W        W24931   9.974   5.107  28.526 -0.3935  0.2121 -0.2635
20532W        W24932  19.222   2.659  11.967  0.0658 -0.1814  0.1345
20533W        W24933  17.650   0.887  22.440 -0.1802 -0.1589  0.2954
20534W        W24934  13.816   0.883   6.940 -0.0470 -0.0542  0.1279
20535W        W24935   2.287   2.500   4.456  0.1036  0.1534  0.3481
20536W        W24936  13.363   0.238  10.844 -0.0458  0.0477 -0.1004
20537W        W24937   7.359   4.906   3.915 -0.0732 -0.2789 -0.3185
20538W        W24938  10.342   1.307  34.411 -0.3440 -0.1619 -0.2869
20539W        W24939   0.154   0.768   1.675 -0.2764  0.0085 -0.2050
20540W        W24940  10.194   5.164  22.436  0.3011  0.0644  0.2378
20541W        W24941   2.921   5.682  22.944 -0.0460 -0.2543  0.0295
20542W        W24942   6.561   0.594   2.870 -0.1863 -0.1931 -0.0849
20543W        W24943   0.996   4.386  35.365 -0.6107  0.1081  0.2060
20544W        W24944  20.646   3.013  15.662 -0.0561 -0.0676  0.2617
20545W        W24945  12.891   2.852  26.845  0.2807 -0.0657  0.1562
20546W        W24946   9.986   4.062   4.476  0.1534  0.0123 -0.2368
20547W        W24947  16.924   5.892   0.887  0.1562 -0.0767  0.0862
20548W        W24948  23.530   0.469   2.156  0.1007  0.2765 -0.0171
20549W        W24949  17.718   0.175  10.659 -0.0543  0.0171  0.0356
20550W        W24950   1.056   3.944   5.864 -0.0950  0.4106  0.0352
20551W        W24951   2.910   3.152   1.554  0.2527  0.1697  0.2256
20552W        W24952  17.377   5.604  27.913  0.0566  0.1293 -0.0109
20553W        W24953  23.592   3.239  22.472  0.1345 -0.0284 -0.1118
20554W        W24954  24.446   0.315   4.113  0.2627  0.3484 -0.0010
20555W        W24955   9.969   2.368  36.138 -0.2569 -0.5465 -0.0233
20556W        W24956  25.579   2.538  21.093 -0.2515 -0.2617  0.2097
20557W        W24957  13.884   6.018  25.965 -0.1702 -0.1646  0.0984
20558W        W24958   3.808   6.502  22.558  0.1302  0.0751  0.2273
20559W        W24959  21.650   6.476   2.460 -0.1673  0.0670  0.2260
20560W        W24960  20.663   5.041  28.643 -0.3192  0.4352  0.3647
20561W        W24961  25.503   5.383  34.199  0.1703  0.1249 -0.1998
20562W        W24962  21.807   2.984   8.542 -0.2912 -0.1419 -0.1068
20563W        W24963   7.042   4.672  12.292 -0.2164  0.0594  0.0343
20564W        W24964  25.508   1.886  26.715  0.1054  0.1753 -0.0886
20565W        W24965  19.765   1.942  29.330 -0.0261  0.1601  0.2412
20566W        W24966   8.090   1.100  21.232  0.0743  0.0821  0.0363
20567W        W24967   2.412   0.619  32.015 -0.1311  0.1187 -0.1606
20568W        W24968  21.209   1.110  32.772  0.2385 -0.1097  0.0467
20569W        W24969  12.271   2.854  34.952  0.4171  0.1684 -0.0728
20570W        W24970  12.321   5.838  32.208 -0.0157  0.2496  0.0026
20571W        W24971   3.055   0.283   6.146  0.1437 -0.1336  0.0452
20572W        W24972   6.987   2.134  25.472  0.0981  0.2506 -0.1029
20573W        W24973   3.612   4.176  21.176  0.2100 -0.2825  0.1270
20574W        W24974  23.808   0.574  34.528 -0.2876 -0.1193 -0.0605
20575W        W24975   5.526   6.412  21.415  0.0716 -0.0957 -0.2948
20576W        W24976  18.442   0.943  13.503 -0.3098  0.0939  0.2052
20577W        W24977   2.167   1.979   9.174  0.0224  0.4540  0.4072
20578W        W24978   6.850   0.593  22.523  0.2324  0.1645 -0.2417
20579W        W24979  19.667   2.161  31.020  0.0895 -0.1069  0.1080
20580W        W24980  10.711   5.460  25.482 -0.1398  0.2629  0.3174
20581W        W24981  12.180   6.111   8.796 -0.1554 -0.2745 -0.2155
20582W        W24982  12.743   4.367   3.477  0.1891 -0.1732 -0.0475
20583W        W24983  12.253   4.327  12.902 -0.2274 -0.0449  0.1052
20584W        W24984  16.127   3.379  32.993 -0.0288  0.0699 -0.0280
20585W        W24985   7.149   5.840  22.635 -0.0936 -0.4693  0.3064
20586W        W24986  11.970   3.854  29.287  0.1934 -0.0859  0.1519
20587W        W24987  21.532   3.072  28.328  0.2980  0.1503 -0.2350
20588W        W24988   0.444   5.517   6.202  0.2199  0.2459 -0.1296
20589W        W24989   3.906   3.423  11.775  0.0404 -0.0376  0.0031
20590W        W24990  25.619   3.011  25.526  0.2494 -0.1256 -0.0394
20591W        W24991  15.267   4.555  25.612  0.1306 -0.1286 -0.2726
20592W        W24992  12.195   3.625   0.967 -0.0154  0.1766 -0.2016
20593W        W24993  24.068   4.550  29.487  0.2405 -0.1452 -0.0903
20594W        W24994  12.660   4.044  10.864  0.0732 -0.0243  0.2198
20595W        W24995  12.625   3.613  35.155 -0.0578 -0.0150  0.1103
20596W        W24996  19.706   5.385  11.224 -0.0161 -0.3063 -0.4012
20597W        W24997  17.016   4.075  21.669 -0.3632  0.0757  0.2562
20598W        W24998  21.439   6.387  25.085 -0.1916  0.3831 -0.0606
20599W        W24999  14.618   1.779   2.944 -0.1632  0.0139  0.1822
20600W        W25000  12.111   2.109   9.337 -0.0153  0.0359 -0.0207
20601W        W25001  20.550   5.908  28.499  0.0868 -0.2637  0.1023
20602W        W25002  22.350   2.676   0.798  0.2453  0.1033  0.1503
20603W        W25003   4.923   3.185  33.421  0.1725 -0.0541  0.0970
20604W        W25004  17.232   3.184  30.482  0.2292 -0.0284  0.4035
20605W        W25005  16.733   0.319   8.317  0.0180  0.2344 -0.0300
20606W        W25006   4.267   2.873  11.923  0.1361  0.0899 -0.0065
20607W        W25007   1.047   2.998  25.797 -0.1345 -0.0960 -0.0890
20608W        W25008  25.559   5.089   4.778 -0.2232  0.3035  0.0923
20609W        W25009  10.386   3.885   5.544  0.1074  0.1235 -0.1012
20610W        W25010  26.183   4.460  27.109 -0.1179 -0.1937 -0.1141
20611W        W25011  17.494   5.909   6.547  0.1251 -0.0423 -0.1295
20612W        W25012   1.684   2.419  25.540  0.0364 -0.1496  0.0109
20613W        W25013  24.668   0.482  28.201  0.0717  0.0623  0.0214
20614W        W25014  26.370   5.087   9.358  0.0671 -0.2070  0.0334
20615W        W25015   3.771   4.988   7.787  0.2246 -0.1934 -0.2019
20616W        W25016   2.951   5.671  24.477 -0.4748 -0.0025 -0.1234
20617W        W25017  18.784   0.927  10.186 -0.4712 -0.1665 -0.2007
20618W        W25018  11.916   4.749  24.056 -0.0901 -0.2228  0.0121
20619W        W25019  18.763   4.081  10.212  0.0976  0.0781  0.0755
20620W        W25020  22.595   1.665  12.441 -0.4199  0.3303 -0.3218
20621W        W25021  17.024   4.253  33.360 -0.2692 -0.2320 -0.1551
20622W        W25022   1.430   1.309  14.671  0.0481  0.0980  0.1103
20623W        W25023  15.129   2.145   1.879  0.1236  0.2709  0.2198
20624W        W25024  12.084   4.671  32.689 -0.0681 -0.0161 -0.0073
20625W        W25025   2.430   1.958  13.074 -0.1742 -0.2018 -0.0730
20626W        W25026   7.452   2.417   9.324  0.1520  0.1306 -0.0335
20627W        W25027  11.344   3.898  31.373  0.0468  0.4123  0.0864
20628W        W25028  19.408   2.043  27.175 -0.0713  0.1595 -0.0491
20629W        W25029  16.142   0.383   6.211  0.3848  0.1020 -0.2245
20630W        W25030   7.270   2.692   3.055  0.2033  0.3035  0.0922
20631W        W25031  23.785   0.702  22.184 -0.2617  0.1442 -0.1308
20632W        W25032  13.648   5.533  11.018  0.0411  0.1325  0.5654
20633W        W25033  24.583   6.204  23.747 -0.3005 -0.2694  0.1569
20634W        W25034   3.070   5.283  30.021  0.1075  0.2041  0.0632
20635W        W25035   3.101   2.281  32.349  0.1022  0.0213  0.0500
20636W        W25036   9.460   4.082   5.427  0.2678  0.0099  0.2651
20637W        W25037  21.274   0.691   8.716  0.1435  0.1038  0.2303
20638W        W25038  13.092   0.838  29.448 -0.0644 -0.1159  0.1806
20639W        W25039   8.516   4.219  23.291 -0.0355  0.0105  0.0535
20640W        W25040   3.688   2.528   2.956  0.0538  0.3739  0.3642
20641W        W25041  17.096   2.623  31.228  0.1762  0.0515  0.1230
20642W        W25042  25.281   4.445  13.988 -0.1930 -0.1257 -0.0680
20643W        W25043   1.311   3.282   9.935 -0.0591 -0.1595 -0.0818
20644W        W25044  11.364   6.085   2.231 -0.1468 -0.0670 -0.2172
20645W        W25045   4.664   5.291  15.334 -0.1957 -0.3429 -0.0651
20646W        W25046  13.689   5.891   0.476  0.0532  0.0503  0.1821
20647W        W25047  26.106   5.204  29.465 -0.2336  0.0333 -0.2094
20648W        W25048   9.424   1.159  33.981  0.0491 -0.1630 -0.2560
20649W        W25049   8.856   5.381  32.168 -0.0191 -0.2262 -0.1464
20650W        W25050   5.623   2.035  12.251 -0.1177 -0.1474  0.0260
20651W        W25051  12.825   3.905   0.783 -0.3365  0.0493 -0.2404
20652W        W25052  23.623   2.001  23.078  0.3048  0.0096 -0.2220
20653W        W25053  11.417   5.633   6.981 -0.2195  0.2693 -0.1848
20654W        W25054  14.034   2.389   9.159  0.3168 -0.3814  0.4018
20655W        W25055   6.098   2.467  32.331  0.1373 -0.1575  0.3585
20656W        W25056   6.997   5.729  29.949 -0.1672 -0.1810 -0.0492
20657W        W25057   7.775   5.039  31.294 -0.1999  0.1807  0.2205
20658W        W25058  16.693   1.649   2.453  0.0366  0.2517 -0.0868
20659W        W25059  11.986   1.953  11.609  0.0533  0.0659  0.1551
20660W        W25060  23.756   2.930  24.026  0.0602 -0.1297 -0.5935
20661W        W25061  25.426   6.282  30.670 -0.4219  0.0013  0.0632
20662W        W25062  11.631   1.520   6.752  0.2508  0.0209 -0.0673
20663W        W25063  14.747   0.131  22.806  0.1403  0.4269  0.1518
20664W        W25064   9.876   1.693   2.809 -0.2573 -0.1305 -0.1585
20665W        W25065   5.786   3.607  26.287 -0.0258 -0.0386 -0.1131
20666W        W25066  23.970   3.561  33.483  0.0285  0.2791  0.1113
20667W        W25067  25.340   5.447  29.681 -0.1151 -0.0424  0.4013
20668W        W25068   6.398   2.882   8.465  0.2013  0.1288  0.0302
20669W        W25069  24.355   3.664  35.807  0.0800  0.0818  0.1732
20670W        W25070  12.920   0.529   4.430  0.1094 -0.1865  0.2111
20671W        W25071  23.808   5.491  13.300 -0.0372  0.1692 -0.0534
20672W        W25072   1.926   1.282  14.409  0.1856  0.0947  0.1466
20673W        W25073  12.295   1.180  22.500  0.1573 -0.0387 -0.0985
20674W        W25074  12.618   4.905  13.150 -0.3477  0.1884 -0.1077
20675W        W25075  11.187   2.323  12.766  0.2078 -0.1835  0.3990
20676W        W25076  16.330   5.443  22.979 -0.2140  0.1227  0.0137
20677W        W25077  12.278   4.065   1.708  0.2881 -0.0413 -0.0706
20678W        W25078  18.659   5.367  10.998  0.0865  0.0285  0.2205
20679W        W25079  15.189   6.161  31.941 -0.0081 -0.0289  0.1745
20680W        W25080   0.381   3.342  14.424 -0.0114  0.2293 -0.1109
20681W        W25081   6.905   0.964  13.590 -0.0524 -0.1619 -0.0674
20682W        W25082   0.238   1.074  35.445  0.2823 -0.4727 -0.0065
20683W        W25083   7.387   2.656  12.785  0.0146  0.3033  0.2224
20684W        W25084  13.570   2.040  22.517 -0.0767 -0.1734 -0.0873
20685W        W25085  14.675   5.084  24.733 -0.2650  0.0345 -0.2315
20686W        W25086   8.835   3.993   6.503  0.0667 -0.2845  0.2837
20687W        W25087  23.244   4.276  28.063  0.1184  0.2874 -0.1715
20688W        W25088  17.917   1.976   2.773 -0.1590  0.3051 -0.0190
20689W        W25089  16.899   1.812   1.987 -0.0967 -0.1643  0.0722
20690W        W25090  12.044   1.131  22.990  0.0212 -0.1626  0.2792
20691W        W25091   4.253   4.631  29.572 -0.1083 -0.1419 -0.2315
20692W        W25092   4.180   2.992  35.037 -0.3171 -0.2348  0.0424
20693W        W25093   7.229   0.518   8.942 -0.1792 -0.0650 -0.1657
20694W        W25094  12.552   3.539  25.325  0.1007  0.0094  0.0551
20695W        W25095  23.488   1.990   0.943 -0.0319  0.2310  0.1159
20696W        W25096  21.519   1.682  32.126 -0.0608  0.0541  0.0237
20697W        W25097  20.379   5.842  34.431 -0.0147  0.0727  0.0629
20698W        W25098  18.479   1.891  23.714  0.0710 -0.2752  0.1410
20699W        W25099   9.007   5.491  35.421  0.0553 -0.1235 -0.1754
20700W        W25100  17.570   2.839  10.531  0.1767 -0.0346 -0.0660
20701W        W25101  22.577   1.147   7.904 -0.0130  0.1219 -0.1731
20702W        W25102   6.544   0.432   4.714  0.0566 -0.3161 -0.1606
20703W        W25103  16.175   1.037  25.834  0.1126  0.0082 -0.0529
20704W        W25104  20.465   1.740  31.794 -0.1904  0.1414  0.2042
20705W        W25105  16.042   0.791  22.872  0.1473 -0.0662 -0.3206
20706W        W25106  11.367   0.876  12.405 -0.0005 -0.0880  0.2770
20707W        W25107  25.499   4.462  23.730 -0.0718 -0.0090 -0.2562
20708W        W25108  19.254   3.865   1.520  0.2520  0.0393 -0.0601
20709W        W25109  20.577   3.592  25.469  0.1434 -0.1333 -0.1171
20710W        W25110  25.933   2.383  24.708  0.1121 -0.0836 -0.3590
20711W        W25111   6.890   4.899  35.361  0.1637  0.0645 -0.1529
20712W        W25112   7.533   2.019   6.313 -0.0724  0.0591 -0.0352
20713W        W25113   3.393   1.755   7.345  0.2796 -0.1178 -0.2336
20714W        W25114  18.730   0.141  15.130 -0.0124 -0.1984  0.3693
20715W        W25115  10.678   1.664  11.067 -0.1255 -0.0849  0.1459
20716W        W25116   4.349   0.956  30.204  0.0397 -0.1318  0.0546
20717W        W25117  13.593   3.862  34.405  0.0404 -0.1796  0.1115
20718W        W25118   6.107   1.586   4.888  0.1988  0.0905 -0.0693
20719W        W25119  23.321   3.721  22.648  0.0023  0.1327 -0.0374
20720W        W25120  17.374   1.254  35.930 -0.1673 -0.1459  0.0760
20721W        W25121   6.579   1.147  10.247 -0.4592  0.0681  0.0294
20722W        W25122  19.684   3.135   9.481  0.2734 -0.0302  0.0905
20723W        W25123  20.888   0.880  33.080 -0.3592  0.0027  0.0020
20724W        W25124  14.787   4.989  29.531 -0.1736 -0.0105 -0.2050
20725W        W25125  21.767   2.758  20.271  0.1444 -0.0378 -0.0863
20726W        W25126  25.550   2.039   1.983 -0.2440  0.2184 -0.1092
20727W        W25127  21.597   6.437  21.348  0.0633  0.2930 -0.0828
20728W        W25128  23.304   5.561   0.214 -0.0924 -0.0826  0.2182
20729W        W25129  13.639   6.277   2.544 -0.0036 -0.1727 -0.2634
20730W        W25130  20.747   0.854   5.895  0.0300  0.0944  0.0442
20731W        W25131  24.743   5.191  26.214 -0.0068 -0.0416  0.3054
20732W        W25132  19.350   3.682   6.004 -0.0874 -0.0749 -0.2479
20733W        W25133   8.434   1.515  12.090 -0.1467 -0.2693  0.1786
20734W        W25134  23.618   5.366   4.061  0.1324  0.2596 -0.1449
20735W        W25135  15.291   3.292   3.730  0.3676  0.1538 -0.1947
20736W        W25136  11.430   4.220   8.798 -0.3266 -0.0967  0.2331
20737W        W25137   7.239   5.369   4.184  0.0215 -0.6234 -0.1885
20738W        W25138   6.969   0.047  32.866  0.3461 -0.2296  0.2571
20739W        W25139  26.002   1.989  21.878 -0.2596 -0.1776 -0.2556
20740W        W25140  18.206   4.590  15.161 -0.0191 -0.2750  0.1205
20741W        W25141  15.216   3.502   2.881  0.0132 -0.0198 -0.2071
20742W        W25142   3.315   1.547  30.163 -0.3138  0.0074 -0.1212
20743W        W25143  25.921   0.147   2.636  0.0111 -0.1192 -0.0143
20744W        W25144   0.734   3.869  24.874 -0.2640 -0.0706 -0.0605
20745W        W25145  22.591   0.344  22.776 -0.0358  0.2406 -0.1546
20746W        W25146  10.802   5.937  13.685 -0.2718  0.0550  0.0878
20747W        W25147   8.267   2.434   3.809 -0.0783  0.1397  0.0894
20748W        W25148  15.294   4.378  30.152  0.0431 -0.1212 -0.3105
20749W        W25149  24.450   2.465   3.225  0.0268  0.1367  0.1754
20750W        W25150   0.383   3.370  23.044  0.2337  0.2043  0.2319
20751W        W25151   5.148   2.914  26.129 -0.1465 -0.1864 -0.3314
20752W        W25152  13.845   3.687   4.885  0.0095  0.0766  0.2228
20753W        W25153   1.991   6.579  11.197  0.0541  0.1145 -0.1630
20754W        W25154  22.013   2.989  32.037  0.1311 -0.0242  0.2019
20755W        W25155   5.129   5.210   6.957 -0.4664  0.0266 -0.0584
20756W        W25156  25.830   2.186  14.121  0.0811 -0.0218 -0.3422
20757W        W25157  14.836   2.800  26.720  0.1817 -0.0642 -0.1277
20758W        W25158  17.404   3.974  25.297  0.0950 -0.1370 -0.0200
20759W        W25159  15.198   1.665   0.564  0.0953 -0.2790  0.0357
20760W        W25160   2.175   3.359  10.525  0.0897 -0.2258 -0.2245
20761W        W25161   1.470   4.165  25.911 -0.0451  0.1753  0.0461
20762W        W25162   0.323   1.913   0.943  0.0597 -0.1125 -0.5418
20763W        W25163   5.614   4.565  13.586  0.1192  0.1592 -0.3001
20764W        W25164  24.063   4.930  14.507  0.0059  0.1664 -0.1421
20765W        W25165  14.632   4.047  11.612 -0.2014  0.1187 -0.0273
20766W        W25166  13.084   1.139   1.009  0.2127 -0.2821  0.1302
20767W        W25167  12.393   0.722   4.539  0.0632 -0.1553  0.1263
20768W        W25168   7.081   4.410  20.874 -0.2071  0.2043  0.0175
20769W        W25169   2.018   3.889  24.871  0.1759  0.0153 -0.0526
20770W        W25170   9.201   0.246  34.683 -0.0185  0.1166  0.0041
20771W        W25171  20.945   2.528  33.415  0.2010  0.0984  0.0983
20772W        W25172  22.611   5.036  34.205 -0.1135 -0.0823 -0.4263
20773W        W25173  24.583   6.277   4.374 -0.3720 -0.0742  0.0486
20774W        W25174  26.422   2.523  27.089 -0.0513  0.0787 -0.0117
20775W        W25175  11.965   3.690   2.745 -0.1903 -0.3562 -0.1557
20776W        W25176   5.308   6.155   4.063 -0.0359  0.0018 -0.2588
20777W        W25177   0.636   3.371  29.067 -0.1927 -0.0982  0.3422
20778W        W25178  22.490   2.290  36.023  0.0757 -0.1345 -0.0799
20779W        W25179  23.820   6.136   6.964  0.0403  0.0220 -0.0397
20780W        W25180   7.198   2.597  21.342 -0.2171  0.0546 -0.1018
20781W        W25181   1.192   2.777  32.804 -0.0203  0.3661  0.1993
20782W        W25182  23.110   5.529  32.306  0.1950 -0.0158 -0.1912
20783W        W25183  13.011   0.979   0.089 -0.1304 -0.1267 -0.1209
20784W        W25184  22.718   4.855  26.373  0.2098  0.1271  0.1481
20785W        W25185  16.757   2.417   0.808 -0.1275 -0.4285 -0.0136
20786W        W25186  14.579   1.014  14.496 -0.4026  0.0300  0.1479
20787W        W25187  18.120   3.707  13.132 -0.0531  0.2566 -0.1968
20788W        W25188  24.369   3.722  24.159 -0.0356 -0.0824 -0.2858
20789W        W25189   6.234   4.650  14.445  0.1438 -0.0917 -0.0464
20790W        W25190  17.395   1.079   9.756 -0.1147 -0.2669 -0.1938
20791W        W25191   6.012   1.729  27.566  0.1987 -0.2517 -0.1772
20792W        W25192   7.635   3.991  24.283  0.1038  0.1929 -0.1563
20793W        W25193   8.825   0.666   2.429  0.1540 -0.3138 -0.3235
20794W        W25194  23.865   5.384  29.448  0.0770 -0.0054 -0.0502
20795W        W25195   0.798   5.749  25.950 -0.1027  0.0073 -0.1130
20796W        W25196   8.053   3.181  34.851  0.2578  0.1846 -0.1295
20797W        W25197  14.831   6.498  32.153  0.0531 -0.0104  0.1847
20798W        W25198  10.116   0.524   2.146  0.0990 -0.1821  0.0622
20799W        W25199  13.588   3.028  22.170  0.0266 -0.1306 -0.0242
20800W        W25200  21.684   0.965  15.173  0.0176  0.1421  0.0258
20801W        W25201   6.095   0.763  26.422  0.0969  0.3267 -0.3037
20802W        W25202  25.454   0.815  22.086 -0.2425 -0.0481 -0.0551
20803W        W25203  18.267   3.575  26.887 -0.2013 -0.0954 -0.1519
20804W        W25204  14.866   2.881  30.923 -0.1932 -0.0155 -0.0038
20805W        W25205  13.802   4.996  22.324  0.0372  0.2182 -0.1102
20806W        W25206  15.644   1.974  26.314 -0.3017  0.1021  0.0622
20807W        W25207   7.404   2.376  27.207 -0.2138  0.1345 -0.0187
20808W        W25208  25.784   5.384  34.724 -0.0155 -0.2733 -0.0618
20809W        W25209   7.387   1.926  29.520  0.0249  0.1657  0.0049
20810W        W25210  10.091   0.326  24.964 -0.0868  0.0476  0.0914
20811W        W25211  21.122   5.876  31.448 -0.0207  0.0776 -0.4507
20812W        W25212  14.577   5.748  21.296  0.0056 -0.0159 -0.1050
20813W        W25213  13.350   5.786  29.508 -0.1807  0.0253  0.1481
20814W        W25214   0.765   4.759   1.048 -0.0455  0.4029 -0.0656
20815W        W25215   9.530   1.220  22.415 -0.1765 -0.0313 -0.0346
20816W        W25216  12.303   5.472  34.133  0.0794 -0.2223  0.2359
20817W        W25217   1.040   5.128   4.775  0.0884  0.0365 -0.2634
20818W        W25218  16.934   4.302  22.184 -0.2242  0.0746  0.0784
20819W        W25219  23.439   5.972  28.897 -0.3640 -0.1624 -0.2386
20820W        W25220   6.772   3.321   0.075  0.2678  0.2210  0.0271
20821W        W25221  13.661   6.180   7.489 -0.0372 -0.1686 -0.2013
20822W        W25222  16.164   6.099   6.581  0.1158 -0.0772  0.0704
20823W        W25223  15.799   6.304   2.276 -0.2201 -0.1773 -0.0107
20824W        W25224   2.603   1.225  20.937  0.0310 -0.2396 -0.0428
20825W        W25225   1.349   2.082   4.625  0.1030  0.1940  0.0193
20826W        W25226  22.108   6.167   6.571 -0.1529  0.2324  0.0632
20827W        W25227  24.194   0.462  30.501 -0.1249 -0.1955  0.0306
20828W        W25228   7.311   4.810  23.307  0.0533 -0.1170 -0.0401
20829W        W25229  19.375   1.792   6.635 -0.0771  0.1365 -0.1450
20830W        W25230   1.754   0.743   4.576 -0.1842 -0.0971  0.1881
20831W        W25231   5.758   5.664  12.169 -0.0358 -0.1862 -0.1043
20832W        W25232   6.489   4.289  11.118  0.0441  0.0256  0.2153
20833W        W25233   0.993   0.572  21.639  0.2463  0.1922 -0.0058
20834W        W25234   8.212   2.233  13.623  0.0872 -0.0217  0.1562
20835W        W25235   1.580   2.087   2.494  0.0611  0.0202 -0.1546
20836W        W25236  17.807   1.547  27.254 -0.2208 -0.3849 -0.4953
20837W        W25237  26.013   5.167  11.341 -0.1775  0.1404 -0.0708
20838W        W25238   4.869   5.253  12.304 -0.1026  0.0779  0.4904
20839W        W25239   1.944   4.458   0.784  0.1313 -0.0229  0.2886
20840W        W25240  18.223   0.032   1.662  0.0375 -0.0037  0.0012
20841W        W25241  24.430   6.496  11.850 -0.2369 -0.1524  0.0602
20842W        W25242  12.344   4.574   6.721 -0.0742 -0.0701 -0.0646
20843W        W25243   5.167   2.472   5.071 -0.2977 -0.3503 -0.1142
20844W        W25244  16.747   3.735   1.379  0.1765  0.4886 -0.0169
20845W        W25245   2.368   3.600  10.087 -0.1839 -0.1838  0.1752
20846W        W25246   4.783   0.295  20.921 -0.0795 -0.0223 -0.3320
20847W        W25247  16.863   5.529   4.145  0.1692 -0.2037  0.0097
20848W        W25248  25.444   3.556   7.604 -0.0492 -0.0359  0.0273
20849W        W25249  11.977   3.977  31.552 -0.1249 -0.1444 -0.1166
20850W        W25250  11.704   0.001  28.511 -0.0039 -0.0790 -0.1248
20851W        W25251  25.195   1.921  21.630  0.2571  0.1699 -0.2861
20852W        W25252  25.366   0.062  13.539 -0.0302  0.0194  0.0399
20853W        W25253   3.868   3.025  31.148  0.2316  0.1796  0.1633
20854W        W25254   2.680   6.540  21.238 -0.1842 -0.0102 -0.1212
20855W        W25255   6.251   3.510  26.141 -0.0219  0.0585  0.3247
20856W        W25256  19.391   0.409  14.634  0.1188  0.1569 -0.0898
20857W        W25257  17.880   3.093  22.006 -0.0640  0.0732  0.2734
20858W        W25258  17.077   5.149  14.904  0.0473  0.1136  0.3277
20859W        W25259   4.586   4.753   2.843 -0.0022 -0.1629  0.0234
20860W        W25260  20.312   1.310  12.261 -0.0563  0.3017  0.4715
20861W        W25261   8.170   3.908   2.374 -0.0540 -0.0486 -0.1676
20862W        W25262   1.940   2.845  24.064 -0.3286 -0.0911 -0.4760
20863W        W25263  12.702   6.328  13.434 -0.1576  0.1529  0.2817
20864W        W25264   6.386   2.885  22.165 -0.2214  0.0476  0.0908
20865W        W25265  22.064   4.458  22.727  0.1150  0.0918 -0.0139
20866W        W25266  25.030   1.837   7.360 -0.0160 -0.2820  0.1837
20867W        W25267  19.549   0.650  15.064 -0.3109 -0.2339 -0.0538
20868W        W25268  23.801   3.071  15.729  0.0983  0.0055  0.2671
20869W        W25269  10.249   4.761  33.233 -0.0295  0.1940 -0.1245
20870W        W25270  26.111   4.419  36.034 -0.0430  0.0180  0.4493
20871W        W25271  10.491   0.327  27.122  0.0104 -0.1747 -0.0387
20872W        W25272   6.084   3.350  33.336 -0.0793 -0.1542  0.1621
20873W        W25273   5.656   6.493  30.545 -0.1172 -0.0397  0.0579
20874W        W25274  24.791   4.106  34.916  0.0198 -0.0712  0.0669
20875W        W25275   2.029   2.115  22.834 -0.0038 -0.0147 -0.0552
20876W        W25276  22.027   3.500   7.008  0.0000  0.1992 -0.2578
20877W        W25277   9.416   5.592   7.505  0.1678 -0.4114 -0.1406
20878W        W25278   5.754   1.099  26.289  0.0085  0.1733  0.0968
20879W        W25279   8.601   1.307   5.211  0.1594 -0.2712 -0.2038
20880W        W25280  18.603   2.808  26.664 -0.0604  0.0904 -0.0474
20881W        W25281  14.980   6.595  24.600 -0.1775  0.0462 -0.0361
20882W        W25282  23.139   2.979   0.866  0.1213  0.1767 -0.1407
20883W        W25283  19.665   2.939   7.160  0.1158  0.0455  0.0450
20884W        W25284  11.422   4.591  14.571 -0.3813  0.2358 -0.3990
20885W        W25285   1.478   1.749  27.528 -0.1581  0.0769 -0.0914
20886W        W25286  10.247   6.325  14.318 -0.3997  0.1168 -0.3401
20887W        W25287   9.474   0.648   4.239 -0.1675  0.0455 -0.0230
20888W        W25288  14.773   4.950  11.393 -0.2946 -0.2158 -0.0080
20889W        W25289   7.826   6.096  33.547  0.1656 -0.2624  0.2470
20890W        W25290  21.097   0.583  32.801 -0.1156 -0.1430  0.0528
20891W        W25291  18.543   3.094   8.737  0.0386  0.3014 -0.1011
20892W        W25292  10.439   5.143   1.877 -0.2407 -0.0438 -0.1954
20893W        W25293   4.274   2.688  12.915  0.0079  0.0257  0.0090
20894W        W25294   3.760   3.981  12.820 -0.1586  0.0611 -0.0645
20895W        W25295   7.330   4.335  21.312  0.1803  0.0859  0.0374
20896W        W25296  18.371   1.991  35.772  0.0994  0.0679 -0.2293
20897W        W25297  16.573   4.317  35.648 -0.0323  0.1046  0.1233
20898W        W25298  24.962   1.346   3.919  0.1168  0.0027 -0.0939
20899W        W25299  19.539   1.746  14.714 -0.2751  0.4194 -0.2040
20900W        W25300  15.518   2.965  28.473  0.0220  0.2453 -0.0040
20901W        W25301  25.498   2.653  14.940 -0.0106 -0.4739 -0.0937
20902W        W25302  18.284   3.430  15.790  0.1519  0.1818  0.0905
20903W        W25303  24.241   3.667  13.687  0.2040 -0.1478  0.3054
20904W        W25304  12.790   5.141  10.766  0.2217  0.1145  0.0938
20905W        W25305  11.379   2.667  26.411  0.0544 -0.1049  0.0469
20906W        W25306   4.388   0.624  24.664  0.0078 -0.0967 -0.0105
20907W        W25307   8.048   3.476  28.007  0.1447 -0.1861  0.0342
20908W        W25308  15.923   1.154   4.408  0.2631 -0.4806  0.1576
20909W        W25309  19.523   3.526  23.339  0.0532  0.2390  0.1044
20910W        W25310   5.912   5.356  10.178  0.0843  0.0321 -0.0670
20911W        W25311   9.698   1.784  25.814 -0.4445  0.1428  0.1120
20912W        W25312   7.955   2.574   3.440 -0.1911 -0.2528  0.1306
20913W        W25313  25.296   6.532  31.105  0.0782  0.1410  0.0412
20914W        W25314   6.250   5.910  32.441  0.1687  0.2493  0.1971
20915W        W25315   4.441   5.978   6.274 -0.0459 -0.0966  0.0027
20916W        W25316   1.921   4.529  13.383 -0.1087 -0.4644 -0.0283
20917W        W25317   0.198   1.151   8.287 -0.2617  0.1049 -0.0828
20918W        W25318  15.583   0.387  20.840  0.0415 -0.0475  0.1162
20919W        W25319  11.619   6.331  32.771  0.2203  0.0281 -0.0294
20920W        W25320   9.002   3.502  31.427  0.0211 -0.2956  0.2111
20921W        W25321  24.791   2.443   2.104  0.1622  0.0979 -0.2129
20922W        W25322  25.608   4.592  20.398 -0.1268 -0.0243  0.0668
20923W        W25323   5.896   4.841   4.194 -0.1681 -0.1851 -0.2301
20924W        W25324   4.718   2.019  31.036  0.2074  0.1677 -0.0646
20925W        W25325   7.527   6.573  21.546  0.0393  0.1853  0.0764
20926W        W25326  13.042   2.963  21.537 -0.1035  0.0439 -0.0149
20927W        W25327  14.222   5.272   3.908  0.0124  0.0214  0.1493
20928W        W25328   5.277   6.044  32.987 -0.2869 -0.1641  0.0643
20929W        W25329   0.385   0.178  13.936 -0.1704  0.1949 -0.3161
20930W        W25330  16.828   4.764   0.963 -0.1407  0.0642 -0.1022
20931W        W25331   1.791   4.514   6.307 -0.2102 -0.1189 -0.3621
20932W        W25332  12.430   6.377  21.276 -0.0540 -0.0703 -0.0184
20933W        W25333  10.080   3.298  28.648 -0.0477  0.1419  0.1430
20934W        W25334  13.183   5.006  12.737 -0.2402 -0.1691  0.0234
20935W        W25335  21.236   3.874   4.347  0.1493  0.0769  0.0444
20936W        W25336  23.510   4.594   3.648  0.0715 -0.1280  0.1904
20937W        W25337  18.070   4.722  24.981 -0.0318 -0.0680 -0.0608
20938W        W25338   4.930   3.190  22.311  0.2887 -0.1255  0.0963
20939W        W25339  25.504   0.773   0.421 -0.0174 -0.0420 -0.1812
20940W        W25340  18.167   0.349  25.299  0.1111  0.2153 -0.0129
20941W        W25341   6.264   1.499  21.004  0.0337  0.1497  0.1351
20942W        W25342  13.780   0.985  25.937 -0.1379  0.0882 -0.1195
20943W        W25343  23.472   5.846  14.502 -0.2028 -0.2077 -0.2418
20944W        W25344  19.365   4.480  12.985  0.3613 -0.0024  0.1211
20945W        W25345  13.206   5.178   8.914  0.3021  0.0446  0.1069
20946W        W25346  24.842   4.596  14.159 -0.2937 -0.2151  0.0288
20947W        W25347  21.688   2.354  24.752 -0.4362  0.2602  0.0145
20948W        W25348   9.258   3.072   8.179 -0.0256  0.1826  0.0622
20949W        W25349  24.735   4.145   0.872 -0.4768  0.2143  0.2398
20950W        W25350  14.408   2.646  10.823 -0.0521 -0.1097  0.3200
20951W        W25351   0.403   2.892  25.290  0.1175 -0.1372 -0.0099
20952W        W25352   0.828   2.516   7.673 -0.2176  0.1606  0.0077
20953W        W25353  21.106   3.777  26.243  0.1275  0.1582 -0.0275
20954W        W25354  24.924   0.324  34.169  0.1294  0.0940  0.0373
20955W        W25355  17.674   5.106  22.934 -0.1970  0.1646 -0.0290
20956W        W25356  19.307   5.369   6.394 -0.0272  0.0489 -0.2017
20957W        W25357  24.029   2.290  27.544 -0.0265 -0.0024  0.0080
20958W        W25358   9.397   1.979  10.716  0.0959  0.0891  0.2250
20959W        W25359  11.824   2.391   8.604  0.0017  0.0218  0.1247
20960W        W25360  16.491   3.460  21.224 -0.1538 -0.1169  0.2234
20961W        W25361  11.779   2.069  21.299 -0.0648 -0.0292  0.1631
20962W        W25362  20.813   0.363   5.692  0.0163  0.1618  0.1559
20963W        W25363  14.616   1.399  31.136  0.0068  0.1348 -0.0813
20964W        W25364  17.101   4.935   1.783 -0.3435 -0.0318  0.1582
20965W        W25365  23.344   3.340  29.014  0.2014  0.0227 -0.2223
20966W        W25366  24.296   3.151  29.463 -0.2476  0.1653 -0.0411
20967W        W25367  22.693   0.231  12.937 -0.0767  0.0789  0.1205
20968W        W25368  24.823   5.134  21.711 -0.1681 -0.1499 -0.0310
20969W        W25369   0.142   4.159  24.391 -0.2396 -0.0350 -0.0858
20970W        W25370   4.328   3.683   2.872  0.2073  0.2827 -0.0231
20971W        W25371   5.321   2.136  34.454 -0.1191 -0.3655  0.0797
20972W        W25372  16.853   5.017   8.998  0.0589  0.3330  0.0678
20973W        W25373   2.905   3.115  35.291 -0.0343  0.0221 -0.3830
20974W        W25374   7.403   0.391  15.211 -0.0524 -0.1920 -0.0480
20975W        W25375   7.124   6.224  29.752  0.0200 -0.0147 -0.0757
20976W        W25376   2.002   6.513   9.351  0.0089  0.1713 -0.0906
20977W        W25377  18.086   4.962   5.564 -0.1469 -0.0218 -0.0610
20978W        W25378  12.654   2.778   7.337  0.1781  0.3036 -0.1027
20979W        W25379   9.534   3.129  35.125 -0.1026  0.0204 -0.0651
20980W        W25380   7.295   5.872   1.819 -0.3005 -0.0655  0.2746
20981W        W25381  25.815   2.631  30.300  0.0106 -0.0874  0.4099
20982W        W25382   8.081   5.144  31.777 -0.0203 -0.3189  0.2441
20983W        W25383   3.819   0.561   9.194 -0.0327  0.0333 -0.0198
20984W        W25384  15.333   4.489   7.302  0.0813  0.0039 -0.2046
20985W        W25385  25.650   1.669  23.039  0.1582 -0.0123  0.0649
20986W        W25386  21.535   1.580  23.493 -0.3350 -0.2316 -0.3289
20987W        W25387  17.271   6.096  32.402  0.2662 -0.0538 -0.1641
20988W        W25388  25.789   1.099   1.903 -0.0265 -0.3572  0.0512
20989W        W25389  20.849   3.514  31.952  0.2673  0.2159 -0.1060
20990W        W25390   8.809   0.396  29.073  0.5155 -0.2552 -0.3066
20991W        W25391  20.939   1.713  22.103  0.0213 -0.0715  0.0358
20992W        W25392  21.358   4.997  21.555 -0.0554 -0.1874 -0.1289
20993W        W25393  24.478   3.066  23.413  0.2801 -0.1960 -0.0783
20994W        W25394  17.029   3.827  35.389  0.0252 -0.0176 -0.2240
20995W        W25395   8.171   4.897  23.095  0.0890 -0.2411  0.2708
20996W        W25396   9.768   1.741  14.421  0.3087 -0.2522  0.2715
20997W        W25397   7.393   6.209  15.214  0.0883 -0.1120 -0.1473
20998W        W25398   6.002   2.078   2.646 -0.2539  0.1541  0.0486
20999W        W25399  17.909   0.315  29.022  0.2144 -0.0617  0.0004
21000W        W25400   0.820   1.854  20.601  0.0952 -0.1150  0.1316
21001W        W25401  21.338   0.136  35.588  0.1787  0.1385 -0.1939
21002W        W25402  22.629   0.885   6.474  0.2348  0.2580 -0.3920
21003W        W25403  25.264   4.776   5.917  0.3052  0.0512  0.0434
21004W        W25404   4.030   5.101  27.519 -0.0635 -0.2222  0.2592
21005W        W25405  21.078   1.997   3.374 -0.0237  0.2459 -0.0706
21006W        W25406  25.227   3.473  26.439 -0.1025  0.1100 -0.0018
21007W        W25407  18.534   2.140  27.301 -0.2000 -0.0528  0.0721
21008W        W25408  12.203   5.780   2.446  0.1864 -0.1082 -0.0186
21009W        W25409   6.149   4.934  10.989 -0.0189  0.2636  0.0482
21010W        W25410  20.702   4.737  32.226 -0.0068  0.1198  0.0341
21011W        W25411  18.442   2.297   0.780 -0.0527 -0.0862  0.1585
21012W        W25412   1.882   5.512   1.479  0.0502  0.1434  0.3217
21013W        W25413   0.075   4.088   1.310  0.0093 -0.3116 -0.0106
21014W        W25414  19.812   1.674  25.486  0.0199 -0.2970 -0.0549
21015W        W25415  15.443   5.548   3.827 -0.2507 -0.1740  0.1095
21016W        W25416   9.597   6.607  11.437 -0.0897 -0.1534 -0.0432
21017W        W25417   2.014   1.166   6.654  0.1184 -0.0035  0.0507
21018W        W25418  25.610   5.875   8.277  0.1032  0.2410  0.0655
21019W        W25419  14.443   5.332  29.758 -0.2479 -0.1871  0.0517
21020W        W25420  25.630   3.885  21.678 -0.1288  0.0753 -0.2039
21021W        W25421  14.975   3.024  13.646  0.1138 -0.0187  0.0756
21022W        W25422   2.557   6.031   8.741 -0.0724  0.4426  0.0078
21023W        W25423  26.095   3.526  10.824  0.2027 -0.3406  0.0300
21024W        W25424  24.183   1.675  12.664  0.1398  0.0406 -0.2715
21025W        W25425  24.112   0.166  28.287 -0.1970 -0.3527  0.1213
21026W        W25426  24.872   4.608  34.239 -0.0408  0.0723 -0.0198
21027W        W25427  13.555   0.865  34.558 -0.0103  0.2725 -0.1645
21028W        W25428  21.710   2.219  26.697 -0.1116  0.1456 -0.2118
21029W        W25429   6.603   4.465  26.814 -0.0968 -0.1113 -0.0613
21030W        W25430  22.045   1.369   8.606  0.1338 -0.1020  0.0246
21031W        W25431   6.810   5.692  24.889  0.4465 -0.1475  0.0753
21032W        W25432   2.773   4.202  10.888  0.2797 -0.2375 -0.1335
21033W        W25433   5.938   4.459   8.045  0.0514  0.0854  0.0390
21034W        W25434  23.102   4.306   2.023 -0.2017 -0.0031  0.0050
21035W        W25435  10.240   2.988  33.000 -0.1334  0.0298  0.0470
21036W        W25436  15.336   2.861  11.922  0.1699  0.1601 -0.2101
21037W        W25437  17.157   0.291   0.728 -0.3026 -0.1234 -0.0003
21038W        W25438  14.500   0.014  11.263 -0.2439  0.0732  0.0745
21039W        W25439   5.893   5.719  30.043 -0.3309 -0.3071 -0.0683
21040W        W25440  17.617   4.488  12.352  0.0203  0.0663 -0.0424
21041W        W25441  19.868   5.762  14.583  0.1289 -0.0428 -0.1030
21042W        W25442   1.622   0.924  32.978  0.1139 -0.0719 -0.0352
21043W        W25443   2.377   2.031   5.658  0.2473 -0.2210 -0.1865
21044W        W25444  25.627   5.296  35.188 -0.0733 -0.0445 -0.0737
21045W        W25445  19.541   0.065   4.474 -0.1239 -0.3459 -0.1552
21046W        W25446   3.475   3.549   1.408  0.2934  0.3132 -0.1612
21047W        W25447   3.503   4.691  35.246  0.1208 -0.1101 -0.0741
21048W        W25448  14.509   1.612  26.681  0.1623  0.1348 -0.1204
21049W        W25449  26.362   0.478  30.623 -0.1231 -0.0556  0.2088
21050W        W25450   1.192   3.049  20.223 -0.0409  0.1237 -0.0835
21051W        W25451  20.214   3.540  28.529  0.1598 -0.0844 -0.3190
21052W        W25452   5.750   4.398  20.740  0.2156  0.0663  0.2031
21053W        W25453   6.346   6.273  23.751  0.5793 -0.1251  0.1726
21054W        W25454  13.014   5.828   1.982  0.3095  0.4579  0.1567
21055W        W25455  22.955   5.256  21.931  0.1248 -0.1472 -0.0677
21056W        W25456  17.836   4.145  22.017  0.0319 -0.2008 -0.0901
21057W        W25457   0.959   4.193  33.858 -0.2048 -0.1759  0.0638
21058W        W25458  18.746   1.787  28.589  0.1813  0.2069  0.2298
21059W        W25459  20.474   4.075  34.132  0.3309  0.1845 -0.1111
21060W        W25460  12.365   0.425  24.575 -0.0175 -0.1392 -0.2880
21061W        W25461   4.130   2.393  13.776  0.0854 -0.1906 -0.2375
21062W        W25462  23.475   5.906   4.049 -0.0467 -0.1806 -0.3282
21063W        W25463  22.583   1.164  13.110 -0.2190  0.1519 -0.0051
21064W        W25464  22.869   2.476  13.032 -0.0786 -0.0708  0.4688
21065W        W25465   4.440   3.855   1.569  0.1884  0.0182  0.3089
21066W        W25466  11.966   5.156  29.992  0.1208  0.2562 -0.1240
21067W        W25467   4.493   0.363  22.253 -0.1197 -0.0002  0.0049
21068W        W25468  10.117   4.026  30.488 -0.0610  0.1753  0.0051
21069W        W25469   4.254   2.928  31.979  0.0086 -0.1077 -0.0010
21070W        W25470   1.294   3.918  29.220  0.2087 -0.0242  0.1504
21071W        W25471  17.457   2.326   3.504  0.0327 -0.1280  0.4235
21072W        W25472  25.659   3.210  24.034  0.1423 -0.1032  0.0373
21073W        W25473   6.232   1.834  11.516  0.0611 -0.1794 -0.2118
21074W        W25474  17.177   1.355  28.181  0.3480 -0.1385 -0.1205
21075W        W25475  19.177   5.335  20.489 -0.0165 -0.2567 -0.1811
21076W        W25476  25.142   6.538  24.047 -0.0988 -0.3695  0.1934
21077W        W25477  17.544   0.748   1.634  0.0257  0.0080  0.1633
21078W        W25478  17.206   6.074  31.860  0.0398 -0.0503 -0.1451
21079W        W25479   0.739   5.341  23.653  0.1184 -0.0765  0.1311
21080W        W25480  23.035   1.363  28.259  0.3550  0.3465  0.0923
21081W        W25481  25.467   5.301   1.313  0.0438  0.0420 -0.1915
21082W        W25482  22.271   1.089  10.362 -0.0903  0.3159  0.2430
21083W        W25483  24.919   0.758   6.950  0.2096 -0.2655 -0.0107
21084W        W25484  18.300   5.072  14.430 -0.0230 -0.0878 -0.0942
21085W        W25485  26.355   0.399  26.504 -0.1098 -0.1688  0.0838
21086W        W25486   4.259   0.575   2.159  0.0186 -0.1321  0.2636
21087W        W25487  16.512   0.654  32.074 -0.0494 -0.0509 -0.0836
21088W        W25488  20.647   2.613  32.374  0.3279 -0.1349 -0.1513
21089W        W25489  10.108   3.586  10.475 -0.3093 -0.1671 -0.1749
21090W        W25490  15.537   1.465  24.810  0.0746  0.2793 -0.1916
21091W        W25491  10.629   4.794  29.862 -0.1502 -0.1251  0.0171
21092W        W25492  17.230   4.702  14.269 -0.0637 -0.0142  0.2746
21093W        W25493  11.779   3.858  25.962  0.0505  0.0481 -0.2284
21094W        W25494  15.695   2.400  26.752  0.0383  0.0403 -0.2289
21095W        W25495   7.232   4.760  32.706 -0.2059 -0.2432 -0.2978
21096W        W25496   2.221   3.438  25.251 -0.0182  0.1617 -0.1878
21097W        W25497  24.685   2.733  26.224 -0.1872  0.3966  0.0553
21098W        W25498   7.707   0.674  29.148  0.0203 -0.1094 -0.0064
21099W        W25499  11.597   1.727  28.751  0.0403 -0.0287  0.3680
21100W        W25500   2.243   2.603  32.908 -0.3195 -0.0589 -0.0360
21101W        W25501  16.931   3.204  25.829  0.0756  0.0199  0.1807
21102W        W25502  25.939   4.558   8.384 -0.0956  0.2023  0.2332
21103W        W25503   9.830   1.455   0.307 -0.0015  0.1674  0.2060
21104W        W25504   3.413   2.066  25.184 -0.4807  0.0464 -0.0875
21105W        W25505   3.376   3.804   5.269 -0.0120 -0.0250 -0.0860
21106W        W25506   0.910   1.136   4.430  0.1105 -0.0193  0.1493
21107W        W25507  21.629   6.489  24.556 -0.0869 -0.0542 -0.1409
21108W        W25508  19.355   4.604  32.247 -0.0092  0.0586  0.3554
21109W        W25509  21.693   0.071  32.355 -0.2401  0.2547 -0.4128
21110W        W25510   8.213   5.231  23.595 -0.2695  0.1721 -0.0612
21111W        W25511  23.846   4.704   8.709  0.0759  0.0513 -0.0842
21112W        W25512   7.655   4.489  23.493 -0.5265  0.1299  0.0508
21113W        W25513  25.784   1.342   4.627 -0.1682 -0.1365 -0.2192
21114W        W25514  16.312   5.505  23.800  0.0371 -0.1225 -0.1813
21115W        W25515   9.347   6.152   2.710  0.2289  0.1457  0.0562
21116W        W25516  14.391   4.948   9.895 -0.2224  0.0994  0.1860
21117W        W25517  23.975   0.741   6.756 -0.0746 -0.2540 -0.2931
21118W        W25518  12.935   1.108  27.148 -0.1287  0.1145 -0.0028
21119W        W25519   5.444   0.184  35.743 -0.1329  0.4369  0.0930
21120W        W25520  11.731   5.103  29.106 -0.2758  0.1451  0.3697
21121W        W25521   5.756   4.719   8.400 -0.2085 -0.0524 -0.0608
21122W        W25522   2.163   3.922  27.659  0.2843 -0.1187 -0.0633
21123W        W25523   4.209   1.672   1.291 -0.0827  0.2442 -0.0110
21124W        W25524  21.206   2.197  21.672 -0.0850 -0.1397 -0.1653
21125W        W25525   7.277   3.839   6.650 -0.0172 -0.3071 -0.0036
21126W        W25526  10.182   1.271  10.301 -0.0218 -0.1839  0.0815
21127W        W25527  24.589   3.726  15.460 -0.5839  0.3431 -0.0170
21128W        W25528   4.620   1.096  34.330 -0.0158 -0.1469  0.2210
21129W        W25529  12.780   5.289   8.666  0.2520  0.1573  0.0277
21130W        W25530  21.373   5.175  34.752  0.2056  0.0717  0.1328
21131W        W25531  16.462   0.321   7.795  0.1941  0.1761 -0.1243
21132W        W25532  11.809   2.845  33.170 -0.1116 -0.3300  0.0989
21133W        W25533  25.832   6.086   3.031  0.1134 -0.1470  0.4548
21134W        W25534   3.704   1.223   3.111 -0.0564 -0.2655 -0.2584
21135W        W25535  14.688   1.689   8.954  0.1274  0.2432  0.0150
21136W        W25536  11.211   3.595  10.359  0.1303  0.0605 -0.2419
21137W        W25537  17.865   2.785  14.442 -0.0880  0.0502  0.1382
21138W        W25538  20.477   3.667  24.158 -0.3037 -0.0259  0.1860
21139W        W25539  18.956   3.046  32.215 -0.0723 -0.1091 -0.2031
21140W        W25540  22.595   0.439  24.998  0.2932  0.2109 -0.0163
21141W        W25541   2.656   2.011  14.972  0.0442  0.1053  0.2435
21142W        W25542  13.093   6.015   6.431  0.1823 -0.1073 -0.1236
21143W        W25543   1.399   1.113  11.993 -0.0463  0.0132 -0.1886
21144W        W25544  15.248   2.764   8.086 -0.0805 -0.2441 -0.1086
21145W        W25545   0.780   3.855  10.217 -0.2572  0.0382 -0.1243
21146W        W25546   6.125   0.739  29.441  0.1111 -0.0616  0.3012
21147W        W25547  18.174   0.298  10.629 -0.2197  0.1976 -0.2943
21148W        W25548  10.659   6.427  35.956  0.1149 -0.0642 -0.1511
21149W        W25549  22.848   1.754  14.122 -0.4141  0.1080 -0.1289
21150W        W25550  15.856   3.906   0.325 -0.1455 -0.3308 -0.1653
21151W        W25551  22.934   2.689  21.447 -0.1180 -0.0202 -0.2562
21152W        W25552  23.436   4.799   4.685 -0.1326 -0.1964  0.0372
21153W        W25553   3.814   2.357  27.594 -0.1730 -0.2063 -0.1020
21154W        W25554   7.841   4.714  11.806  0.0266 -0.1389  0.0114
21155W        W25555  17.791   1.901  22.428 -0.0185  0.0885 -0.0585
21156W        W25556  16.830   3.120  28.766 -0.0152 -0.0542  0.1475
21157W        W25557  21.181   1.171   3.526  0.1721 -0.1228  0.1444
21158W        W25558  16.501   4.910  21.906 -0.0813 -0.2049  0.1411
21159W        W25559  15.558   3.383   7.136  0.3632  0.0886  0.1690
21160W        W25560  24.713   0.341  30.362 -0.0625  0.0208 -0.2200
21161W        W25561   9.380   2.082   2.314  0.1283  0.0565  0.0155
21162W        W25562  18.833   1.322   9.723 -0.2720  0.1413 -0.0649
21163W        W25563  14.899   3.759   1.550 -0.0225  0.0812 -0.0628
21164W        W25564  10.458   6.548   6.696  0.2277 -0.0966  0.1441
21165W        W25565  23.111   5.179  22.445 -0.1301 -0.0157  0.2033
21166W        W25566   9.999   2.080  10.898 -0.4711  0.0775 -0.2185
21167W        W25567  14.378   5.761  30.162  0.4611  0.2476  0.1291
21168W        W25568   6.604   2.869   2.624  0.0937  0.1057 -0.1548
21169W        W25569  22.841   4.780  28.698  0.2734 -0.0063 -0.2015
21170W        W25570  17.273   4.489  23.454 -0.1821 -0.0994 -0.1091
21171W        W25571  20.543   6.140   9.636  0.1085 -0.1423  0.0792
21172W        W25572  10.571   3.250   3.119 -0.1758  0.1725  0.1903
21173W        W25573  18.517   1.812   0.264  0.0028  0.0459  0.1239
21174W        W25574  13.430   0.460  22.378 -0.0064  0.2168  0.1629
21175W        W25575  23.420   3.470  30.125  0.2120  0.0690  0.2569
21176W        W25576  17.096   1.799  35.818  0.3159  0.0616 -0.2066
21177W        W25577   1.576   4.074  10.868 -0.3278 -0.2737  0.0060
21178W        W25578   9.173   3.191  31.892  0.0334  0.0648  0.0490
21179W        W25579   1.807   0.097  21.602 -0.0394  0.1266 -0.0018
21180W        W25580  22.531   3.020  31.896  0.2324  0.1815 -0.1800
21181W        W25581  21.260   0.645  24.596 -0.1792  0.2012 -0.0156
21182W        W25582   1.099   3.510  28.666  0.0538 -0.0881  0.1412
21183W        W25583  10.007   1.531  36.010 -0.1493 -0.1465 -0.2342
21184W        W25584  16.696   2.267  14.163 -0.0114  0.4390 -0.0621
21185W        W25585  12.498   0.043  34.238  0.0492  0.3402 -0.1056
21186W        W25586   2.992   0.341  34.125  0.0255  0.1479 -0.1451
21187W        W25587  16.816   3.853  29.803  0.1061 -0.1190  0.0551
21188W        W25588  19.636   1.291  24.576  0.0690  0.1415 -0.1682
21189W        W25589  24.278   3.836  10.572  0.2759 -0.0455  0.1012
21190W        W25590   5.380   1.968   7.387 -0.1986 -0.1805 -0.0109
21191W        W25591  19.062   2.581   6.757 -0.0592 -0.0647 -0.1723
21192W        W25592  20.190   4.890  28.319 -0.1675 -0.2472 -0.3947
21193W        W25593  12.911   6.607  10.990  0.1894  0.0591  0.0088
21194W        W25594  14.952   4.512   1.958 -0.0651 -0.3107  0.1236
21195W        W25595  11.928   5.419   7.623  0.1947 -0.2759 -0.2115
21196W        W25596  16.286   4.787   9.645 -0.2095  0.0069 -0.5009
21197W        W25597   7.276   1.412   7.389 -0.1359  0.1303  0.1926
21198W        W25598  12.037   5.264  10.434  0.2125 -0.3014  0.1240
21199W        W25599  10.271   2.200   7.984 -0.1792 -0.3483 -0.0181
21200W        W25600  10.274   6.089  21.912  0.1196 -0.1333 -0.0618
21201W        W25601  21.490   2.425   4.429  0.0611  0.1930  0.0489
21202W        W25602   7.312   2.595  23.891  0.1251  0.1131 -0.1461
21203W        W25603  10.927   5.622  10.601  0.2583  0.0941 -0.0903
21204W        W25604   3.765   4.808  26.584  0.3745 -0.0910  0.3174
21205W        W25605  13.710   5.205   3.611  0.1095 -0.0379 -0.0859
21206W        W25606  26.296   4.139   8.264  0.1002 -0.1884  0.0993
21207W        W25607  13.463   4.531  23.396  0.3622  0.0251  0.0553
21208W        W25608  24.236   3.127  25.878 -0.0130 -0.2175 -0.1132
21209W        W25609  10.154   6.132  22.432  0.0150 -0.1358 -0.1595
21210W        W25610  19.890   5.335  20.791 -0.2513  0.1648 -0.0714
21211W        W25611  21.688   4.897   1.560  0.1474  0.1478 -0.0314
21212W        W25612   7.395   6.451   1.793  0.3368  0.2182 -0.1630
21213W        W25613   4.566   1.145   5.452 -0.1187 -0.0520  0.1322
21214W        W25614   4.792   2.712  27.514  0.1931  0.2587  0.0439
21215W        W25615   9.510   3.971   7.035 -0.0090 -0.1312 -0.1523
21216W        W25616  19.693   0.743  10.303 -0.1466  0.2695  0.1647
21217W        W25617  22.675   3.387  21.485 -0.1913  0.0279  0.0373
21218W        W25618  17.804   1.485  32.772  0.0537  0.0781  0.1479
21219W        W25619   6.717   2.893   5.964  0.4004 -0.0727  0.3436
21220W        W25620   9.310   6.513  22.917  0.1170 -0.2771  0.2370
21221W        W25621  19.507   1.119  26.663  0.2864  0.3274  0.4657
21222W        W25622   5.347   0.772  32.601 -0.1399 -0.2459  0.0576
21223W        W25623  13.848   1.488   0.929  0.1789  0.1377  0.0431
21224W        W25624  23.650   5.440  31.901  0.0282 -0.2794  0.1586
21225W        W25625   7.032   0.868   4.116  0.1858  0.1246 -0.1710
21226W        W25626  26.323   3.069  24.438  0.4611  0.2687  0.3847
21227W        W25627  25.884   6.090  30.727  0.2423  0.2221 -0.0037
21228W        W25628  15.201   1.224  12.781 -0.0150 -0.1013  0.0111
21229W        W25629  18.555   0.425  32.452 -0.3565 -0.0053  0.0866
21230W        W25630  18.743   6.186  30.301  0.2735 -0.0874  0.1487
21231W        W25631  10.393   3.629   2.732 -0.0198  0.1616  0.1377
21232W        W25632  16.636   5.198  33.543 -0.2121 -0.0099  0.0685
21233W        W25633  21.014   3.568  24.435  0.1251 -0.0359 -0.3954
21234W        W25634  17.081   5.283   5.757 -0.0131 -0.3162 -0.3062
21235W        W25635   8.936   0.702   1.585 -0.0691  0.1574  0.1975
21236W        W25636  18.888   0.833  23.432  0.0695 -0.0052  0.0200
21237W        W25637  12.184   2.355   9.771 -0.1253 -0.2159  0.0636
21238W        W25638   6.206   2.092   4.989 -0.0666 -0.0241 -0.1308
21239W        W25639  20.827   3.506   7.432 -0.0846 -0.0825  0.3476
21240W        W25640  25.172   3.568  20.979 -0.1380 -0.0814 -0.1053
21241W        W25641   2.829   5.415  12.562 -0.2991  0.2366  0.1068
21242W        W25642  26.341   2.421   4.508  0.2378  0.0365  0.1763
21243W        W25643  17.517   3.154   0.057  0.2800 -0.1760  0.1418
21244W        W25644   9.261   0.672  33.810  0.0541 -0.0290  0.1721
21245W        W25645  15.818   3.192  32.521  0.0544  0.3704 -0.1316
21246W        W25646   2.165   3.685  14.781  0.0838 -0.0585  0.3066
21247W        W25647   3.378   1.672  25.927  0.0910 -0.0915  0.2003
21248W        W25648   3.843   0.589  25.830 -0.0669 -0.0435  0.0909
21249W        W25649  19.709   6.409  34.720 -0.1363 -0.1477  0.1136
21250W        W25650   3.941   0.141  28.018  0.0412 -0.0765  0.0769
21251W        W25651   3.358   5.132  13.970 -0.1229  0.0773  0.2693
21252W        W25652   0.993   5.509  32.101 -0.0315  0.0648 -0.1588
21253W        W25653  17.917   4.250   0.565  0.0138  0.1179 -0.0465
21254W        W25654   2.022   6.531  34.079  0.0259  0.0032 -0.3872
21255W        W25655   6.946   3.756  33.799  0.3773 -0.0654 -0.1125
21256W        W25656   1.821   1.864   4.309  0.1774 -0.0840 -0.0481
21257W        W25657  25.333   3.125  23.306  0.1061 -0.3613  0.0848
21258W        W25658   2.490   6.133  26.451 -0.0927 -0.1500  0.1871
21259W        W25659  17.221   4.791  35.177 -0.1327  0.0019 -0.0795
21260W        W25660   2.460   4.601   5.838 -0.0667 -0.1360  0.2597
21261W        W25661  21.040   4.774  33.119 -0.1527 -0.0644  0.0690
21262W        W25662   1.020   1.504  13.685 -0.1768  0.1319 -0.0899
21263W        W25663   4.390   5.607  35.848  0.1406 -0.0557 -0.2738
21264W        W25664   5.235   1.007   4.561 -0.0401  0.2178  0.2098
21265W        W25665   1.213   1.695  30.778 -0.2193 -0.4101  0.0877
21266W        W25666   8.059   5.632  25.046 -0.1290 -0.0407  0.4212
21267W        W25667   5.573   3.123  34.624 -0.0467 -0.0446  0.1300
21268W        W25668  15.779   0.591  34.846 -0.0576  0.3679 -0.1115
21269W        W25669   5.904   4.524  10.918 -0.2371 -0.0749  0.3151
21270W        W25670  18.075   4.703  34.643 -0.2023  0.1192 -0.2519
21271W        W25671  20.231   1.626  34.715 -0.1634  0.1770 -0.1612
21272W        W25672  19.071   2.214  34.668  0.1225  0.1465  0.0964
21273W        W25673   9.679   1.658   0.713  0.0969 -0.0667 -0.0161
21274W        W25674  11.461   4.980   5.383  0.1109  0.0705 -0.0532
21275W        W25675  10.493   1.939  33.223 -0.3243 -0.0997  0.0312
21276W        W25676  14.391   4.525   0.285 -0.0596 -0.1036 -0.0764
21277W        W25677  20.432   5.527  25.633 -0.0612 -0.4188  0.1184
21278W        W25678  15.311   6.038   7.195 -0.3309 -0.0327  0.1145
21279W        W25679   3.176   0.922  33.875  0.0486  0.0046 -0.1142
21280W        W25680   7.104   3.331  35.670 -0.0960  0.0391  0.2420
21281W        W25681   9.469   3.781  28.166  0.4049  0.3135 -0.0939
21282W        W25682  10.730   1.527  12.688  0.0802 -0.0747 -0.0070
21283W        W25683   2.766   0.453  10.263 -0.1706 -0.0429 -0.0338
21284W        W25684   3.071   1.874   4.936  0.1353 -0.0752  0.1409
21285W        W25685  16.907   4.562   7.634  0.0319  0.1933 -0.0442
21286W        W25686  15.971   6.550  10.162 -0.0049 -0.1710  0.0531
21287W        W25687   3.812   3.328   5.075 -0.1587  0.0346  0.2140
21288W        W25688  14.030   0.151  28.367  0.0345 -0.0521 -0.0560
21289W        W25689  24.927   1.988  36.147  0.3644 -0.3264  0.1266
21290W        W25690  11.142   6.220  31.439  0.0968 -0.1607 -0.0244
21291W        W25691   5.290   6.324   6.630 -0.2944  0.1507 -0.1393
21292W        W25692   8.815   0.155  14.133 -0.0507  0.1484  0.0077
21293W        W25693  20.725   4.519  14.197  0.0433  0.0544 -0.0699
21294W        W25694   1.735   3.753   5.385  0.0240 -0.1603  0.0819
21295W        W25695  14.191   1.899  30.038  0.0653  0.2006  0.0703
21296W        W25696  24.202   6.021  12.956  0.0463  0.1597 -0.0079
21297W        W25697  19.259   4.124   9.452 -0.0579  0.4677 -0.0029
21298W        W25698   9.751   0.642   1.697 -0.1728 -0.3209  0.0478
21299W        W25699  23.841   1.123  13.912 -0.1439 -0.0563 -0.1673
21300W        W25700   8.799   0.070  31.886 -0.0539  0.0642 -0.0037
21301W        W25701   6.064   4.238   8.512 -0.0501  0.0399 -0.2323
21302W        W25702  21.836   0.498  15.098 -0.0349 -0.1856 -0.0522
21303W        W25703  11.203   2.516  29.812  0.0429 -0.2884 -0.2246
21304W        W25704  26.324   0.394  11.609  0.0172  0.1009  0.0918
21305W        W25705   9.049   6.402  11.101  0.0678 -0.0284 -0.1465
21306W        W25706  13.360   1.869  23.359  0.4095 -0.0831 -0.1859
21307W        W25707  12.895   1.572   2.107  0.2418 -0.2658 -0.1885
21308W        W25708  16.138   3.325   1.988 -0.2400 -0.0434 -0.5719
21309W        W25709   2.041   4.721  32.677  0.0658  0.1193  0.3916
21310W        W25710  16.107   3.384  27.284 -0.3074 -0.2059  0.0423
21311W        W25711   9.017   5.797  26.920  0.1140 -0.1026  0.0003
21312W        W25712   1.764   6.073  23.073 -0.0703  0.1641 -0.0110
21313W        W25713   6.193   0.964   9.062  0.0112 -0.0481  0.1914
21314W        W25714  13.539   5.966  26.647  0.1866  0.1599 -0.2097
21315W        W25715  15.220   1.496   4.055  0.0037  0.3546 -0.1081
21316W        W25716  10.775   0.393  11.793  0.1949 -0.0503 -0.1243
21317W        W25717  14.716   3.137  34.358  0.3163  0.1598  0.3621
21318W        W25718  10.993   6.291  32.634 -0.2264  0.0684 -0.0593
21319W        W25719  10.212   5.008   3.487  0.1480 -0.0990  0.0602
21320W        W25720  13.049   3.072  27.757 -0.0149  0.1458  0.1896
21321W        W25721  18.351   0.705  10.485  0.0753 -0.1803  0.0981
21322W        W25722   1.887   4.833  34.871 -0.1389 -0.1075  0.0166
21323W        W25723   4.521   5.871  12.788 -0.1747 -0.2462  0.3879
21324W        W25724   4.836   4.823   8.659  0.0236 -0.0229  0.0049
21325W        W25725  23.008   5.321  34.595  0.0040 -0.0674  0.0064
21326W        W25726   1.800   6.385  14.823 -0.0145 -0.1439  0.0403
21327W        W25727  26.345   3.722  25.718  0.3661  0.2586  0.3219
21328W        W25728  21.528   3.675  32.607  0.1217 -0.0854 -0.0669
21329W        W25729   9.020   5.597  23.904  0.1906  0.2989  0.3297
21330W        W25730  18.492   2.246  25.128  0.2142 -0.0203 -0.2658
21331W        W25731  19.136   2.601  32.456  0.0733  0.0018  0.0592
21332W        W25732   8.018   4.705  26.422  0.3367  0.1135  0.0955
21333W        W25733  20.014   2.519  29.957 -0.2360  0.1598 -0.2859
21334W        W25734   8.695   1.265  31.443  0.0920 -0.0583 -0.1189
21335W        W25735   7.887   2.555   2.116 -0.1448  0.1213 -0.1783
21336W        W25736  17.106   0.504  12.224  0.0728 -0.2018  0.2439
21337W        W25737   1.572   1.226   6.842  0.0069 -0.0798 -0.1221
21338W        W25738  25.197   4.427  32.780 -0.1448 -0.2283 -0.1127
21339W        W25739  23.286   2.935  23.280 -0.3575 -0.0841  0.1100
21340W        W25740  11.313   5.086  28.134  0.0509 -0.0433 -0.3143
21341W        W25741   0.157   1.756  22.164 -0.1931  0.0637 -0.0937
21342W        W25742  12.143   2.265  35.590  0.1150  0.1003  0.3576
21343W        W25743   9.269   4.435   3.335 -0.1922  0.0260 -0.2518
21344W        W25744  23.958   6.193   5.948  0.0695  0.0991  0.2910
21345W        W25745  13.657   3.605  23.782  0.0382 -0.1152  0.1396
21346W        W25746  11.148   0.843  23.027 -0.1806 -0.0725  0.3427
21347W        W25747   8.165   5.134   3.501  0.1945 -0.0723  0.0348
21348W        W25748  25.794   2.683   2.932 -0.0086  0.1833 -0.0512
21349W        W25749  10.691   5.287  34.297 -0.2270 -0.0971 -0.2091
21350W        W25750   4.763   4.901  13.186 -0.1141 -0.2876 -0.2450
21351W        W25751  18.896   2.135  26.973 -0.3187 -0.1039  0.0442
21352W        W25752   7.395   1.330  23.486 -0.0289  0.1934  0.1067
21353W        W25753   0.206   1.256  31.962 -0.1279  0.0660  0.1628
21354W        W25754   0.498   5.648   4.303  0.0842 -0.0300 -0.1164
21355W        W25755  13.061   1.598  30.270 -0.1520 -0.1097  0.1513
21356W        W25756   4.248   0.584  23.527 -0.2834 -0.0164  0.0390
21357W        W25757   2.862   2.578   9.519  0.1229 -0.2605  0.0062
21358W        W25758  17.336   4.866   1.134  0.0676  0.0139 -0.3425
21359W        W25759   4.277   5.878   9.025  0.2052 -0.0107  0.0884
21360W        W25760  19.763   4.294  24.307  0.0753  0.0255 -0.0073
21361W        W25761  11.550   2.165  24.008 -0.0068 -0.3255  0.0379
21362W        W25762   0.195   5.836  11.904 -0.0293  0.0515  0.0159
21363W        W25763   7.126   5.440  27.847 -0.0375  0.1821  0.0794
21364W        W25764  18.731   5.043  14.146  0.1524 -0.1736 -0.3524
21365W        W25765   4.921   1.064  32.612  0.0373  0.1338 -0.1575
21366W        W25766  22.985   3.380   0.571 -0.0016  0.1670  0.0043
21367W        W25767  21.034   1.050  25.813 -0.0554  0.0520 -0.0640
21368W        W25768   4.699   1.934   1.365 -0.0534  0.3474 -0.0769
21369W        W25769  16.952   5.626  24.792  0.0802  0.0516 -0.0924
21370W        W25770   2.197   1.181  27.038  0.0962 -0.0134  0.0994
21371W        W25771  20.342   2.180   2.149  0.0641 -0.0907  0.1279
21372W        W25772  21.296   5.742   0.333  0.1485 -0.0666  0.0724
21373W        W25773  16.801   2.870  22.902 -0.1943  0.4826  0.1789
21374W        W25774  13.082   4.783  23.129 -0.0090 -0.0222  0.0511
21375W        W25775  14.188   6.256  23.627 -0.0134 -0.0335  0.0597
21376W        W25776   1.054   4.279  36.085 -0.1235  0.0192 -0.1115
21377W        W25777  12.536   6.242   6.336 -0.0885  0.1880  0.0969
21378W        W25778   3.197   4.017  30.142  0.0498 -0.1640  0.0727
21379W        W25779   0.285   6.110  27.660  0.1083  0.2000  0.0487
21380W        W25780   8.293   5.896  11.040 -0.2251 -0.0444 -0.0098
21381W        W25781  24.438   1.431  22.002 -0.3295 -0.1198  0.1475
21382W        W25782  16.087   2.974   7.406  0.0810 -0.0850  0.2239
21383W        W25783  12.406   2.292  16.038 -0.1846  0.1118 -0.0689
21384W        W25784  15.947   0.728  13.131 -0.4503  0.1018  0.1898
21385W        W25785  22.264   2.461   2.193  0.2647  0.1208  0.0554
21386W        W25786  18.107   1.389  24.609  0.1781 -0.1247  0.1341
21387W        W25787  18.176   0.344   5.500  0.3215  0.0528  0.2710
21388W        W25788  13.074   3.759   1.230 -0.6343 -0.2814  0.0994
21389W        W25789  10.924   5.796   8.353 -0.0499 -0.1514  0.0748
21390W        W25790  16.428   2.243  23.259 -0.0831  0.1431 -0.2952
21391W        W25791  18.613   3.047  30.608  0.1522 -0.3833 -0.1476
21392W        W25792  16.413   1.848  26.580  0.0140  0.0247 -0.1528
21393W        W25793   9.344   3.369  11.594 -0.0419  0.1740 -0.1894
21394W        W25794   0.615   3.231   3.821  0.1600  0.1712 -0.1450
21395W        W25795   5.078   2.250   6.954 -0.3392  0.0557 -0.0186
21396W        W25796  16.303   6.520  25.449  0.0733  0.1446 -0.1543
21397W        W25797   5.123   5.620  28.897 -0.1824  0.0052  0.0896
21398W        W25798  17.785   5.043  32.444 -0.3083 -0.1272 -0.0272
21399W        W25799  19.411   3.125   4.638 -0.1773  0.0253 -0.1763
21400W        W25800  12.996   0.359  14.777 -0.0827 -0.0604  0.0042
21401W        W25801   8.310   0.260  36.107  0.0583 -0.1932  0.0202
21402W        W25802   7.469   5.093  28.556 -0.0414 -0.1704 -0.0962
21403W        W25803  20.496   4.842  13.381 -0.0519  0.1200  0.1854
21404W        W25804   2.210   4.877   7.791 -0.1855  0.2489 -0.0133
21405W        W25805  16.690   6.485  35.505  0.0989  0.0303 -0.1319
21406W        W25806   4.338   4.471  21.101  0.0073 -0.1544  0.0204
21407W        W25807   2.928   1.193  14.326  0.1624 -0.1640  0.0502
21408W        W25808   6.690   2.593  20.532 -0.1106 -0.2557  0.2110
21409W        W25809  11.645   6.276  33.736 -0.2752 -0.0997  0.0229
21410W        W25810  15.576   2.887  26.888  0.0712 -0.1793  0.1503
21411W        W25811  21.125   1.654   0.838 -0.1585 -0.0590  0.0442
21412W        W25812  12.986   3.482  33.124 -0.0881  0.4692  0.2378
21413W        W25813  12.986   3.835  35.736 -0.0901  0.0804 -0.3100
21414W        W25814   2.232   3.075  25.573  0.1118 -0.1595  0.2135
21415W        W25815  22.337   2.363   2.713 -0.2027 -0.2011  0.2025
21416W        W25816   4.067   3.255   6.674  0.2576 -0.1947 -0.4738
21417W        W25817  21.135   4.703   1.382 -0.0042 -0.1058  0.0208
21418W        W25818  10.460   3.738  30.753 -0.2577  0.0410  0.1790
21419W        W25819  17.406   1.784  24.892 -0.0790  0.1359 -0.0333
21420W        W25820  15.807   4.162  28.977  0.1544 -0.0108 -0.1464
21421W        W25821  19.288   5.351  25.268  0.2551 -0.1111 -0.3058
21422W        W25822   0.881   0.485   2.887 -0.1690 -0.3595 -0.1865
21423W        W25823  25.923   5.750  35.236 -0.0505 -0.2438 -0.0269
21424W        W25824  21.371   0.090   0.279  0.0367 -0.2401 -0.2066
21425W        W25825  20.850   4.315   3.006 -0.2119  0.2117  0.3087
21426W        W25826  24.056   3.072  31.552 -0.2307  0.0638  0.0314
21427W        W25827  21.677   4.168  34.733 -0.1886  0.1659  0.0142
21428W        W25828  16.015   4.968   4.910 -0.0472  0.1351  0.0317
21429W        W25829  24.400   3.239  26.335 -0.1254  0.4408  0.0870
21430W        W25830  22.984   4.433   1.040  0.0146 -0.0833 -0.0238
21431W        W25831   0.310   2.734   4.012  0.0061 -0.0261 -0.1327
21432W        W25832  11.243   4.195   7.704 -0.1067  0.2430  0.1187
21433W        W25833  12.643   4.413   9.561 -0.1645 -0.1279 -0.0197
21434W        W25834  22.176   0.469  14.267  0.0896  0.0145 -0.1694
21435W        W25835  17.733   0.510  23.832 -0.5341 -0.1149 -0.2583
21436W        W25836  22.746   1.530  14.730  0.1267  0.1052  0.1813
21437W        W25837  20.641   4.819   1.613 -0.0808 -0.0164 -0.1503
21438W        W25838   9.047   2.954  11.464 -0.0204 -0.1664  0.1387
21439W        W25839  15.435   5.508  32.156 -0.3670  0.0062  0.1475
21440W        W25840  24.469   5.154  12.675 -0.0952  0.1914 -0.1780
21441W        W25841   7.947   5.883   3.811 -0.0528 -0.3504  0.0415
21442W        W25842   0.272   2.201  29.873  0.3129  0.0510 -0.1619
21443W        W25843  21.119   2.333  13.111 -0.0763 -0.1339 -0.5469
21444W        W25844  22.877   4.406  33.381 -0.2785  0.1343  0.0329
21445W        W25845  14.134   5.433  13.594 -0.0276 -0.5161 -0.0277
21446W        W25846  13.194   4.719   2.680  0.1047 -0.2384  0.1620
21447W        W25847   0.523   0.783  11.866 -0.0859  0.0432 -0.3134
21448W        W25848  25.634   4.344  13.021  0.0703  0.2936 -0.0220
21449W        W25849   7.122   3.559  35.205 -0.0341  0.1843  0.1520
21450W        W25850  13.976   4.708   4.490  0.0064  0.0967 -0.1273
21451W        W25851  13.577   4.998  28.057  0.2157  0.1269  0.2883
21452W        W25852  19.442   4.223   9.953 -0.0243  0.0804 -0.0305
21453W        W25853   8.211   2.742  13.759 -0.2220 -0.0539  0.0166
21454W        W25854  20.576   2.571   6.398 -0.1943  0.0222 -0.1017
21455W        W25855  17.494   2.181  34.099  0.0755  0.4325  0.3208
21456W        W25856   3.369   6.491   0.228 -0.2161  0.1834  0.4139
21457W        W25857  21.283   1.490  15.492  0.3608  0.1998 -0.0391
21458W        W25858   4.991   6.303  15.073  0.4286 -0.0834 -0.0330
21459W        W25859  19.840   5.115   5.185 -0.1274 -0.3013 -0.0297
21460W        W25860  17.331   4.868   4.667 -0.0788  0.3619 -0.1116
21461W        W25861  26.356   6.306  12.799 -0.0932  0.0346 -0.0382
21462W        W25862   8.133   4.471  11.441 -0.3709  0.1045  0.1682
21463W        W25863  13.388   4.364  25.782 -0.0850 -0.1982  0.0788
21464W        W25864  13.950   6.464   7.839  0.0704 -0.0760  0.1566
21465W        W25865  25.478   3.899   7.156 -0.3157  0.1745  0.0877
21466W        W25866  17.190   1.153  23.588 -0.0110  0.1512 -0.3654
21467W        W25867  13.987   3.045   7.996  0.1607  0.1193  0.1116
21468W        W25868  10.867   5.053   8.576  0.1789 -0.0726  0.0247
21469W        W25869  21.296   0.314  20.289  0.1178  0.1668 -0.1163
21470W        W25870  25.333   6.569   3.055 -0.1997 -0.0669  0.1108
21471W        W25871  12.846   4.111   7.422 -0.1615  0.0237 -0.2208
21472W        W25872   8.757   2.176  31.697  0.0535  0.1326  0.3783
21473W        W25873  14.380   2.037  32.472  0.1980 -0.1120 -0.3102
21474W        W25874  25.241   0.044  33.833 -0.3218 -0.1688 -0.1168
21475W        W25875   4.100   2.410  29.017 -0.0902 -0.0846  0.0670
21476W        W25876  15.750   6.568  21.658 -0.0202 -0.1348 -0.0445
21477W        W25877   9.907   4.512   0.086 -0.2442  0.2640 -0.1978
21478W        W25878   1.303   0.734  33.363 -0.1020 -0.0475 -0.0522
21479W        W25879   9.171   5.256   5.370 -0.0305  0.1898 -0.0842
21480W        W25880  15.404   0.127   9.146 -0.0196 -0.0264  0.0287
21481W        W25881  16.292   0.993  33.400 -0.0095  0.0166 -0.1493
21482W        W25882  21.953   4.990  28.523 -0.1443  0.3050  0.3017
21483W        W25883  19.664   3.821   6.399  0.0937 -0.0845  0.2348
21484W        W25884   3.060   1.806   3.303  0.1415  0.0925  0.1905
21485W        W25885   0.638   2.860  22.097  0.0698  0.2348 -0.1584
21486W        W25886  17.129   3.781  23.932 -0.1235  0.1248 -0.0420
21487W        W25887   0.193   3.285  34.994 -0.0672  0.1767  0.2617
21488W        W25888  14.789   4.040  25.684  0.0956 -0.2362  0.0307
21489W        W25889  23.914   0.697  12.893  0.0010 -0.2923  0.1483
21490W        W25890  24.587   4.486  34.610 -0.3559  0.1971  0.0760
21491W        W25891  15.281   0.258   0.753  0.2346  0.1000 -0.2084
21492W        W25892   4.296   4.212  22.377  0.1905 -0.0174 -0.1819
21493W        W25893  10.611   3.810   0.693 -0.4095  0.0585 -0.0388
21494W        W25894   2.422   4.514  24.185 -0.1370 -0.1583  0.1228
21495W        W25895  15.564   0.940  33.955 -0.3137  0.1448  0.1240
21496W        W25896  21.807   2.506  20.745  0.1324 -0.3429  0.0569
21497W        W25897  20.147   2.485   2.534  0.0712  0.1002 -0.1663
21498W        W25898  23.952   6.040  24.929 -0.0722 -0.3938  0.1054
21499W        W25899  16.579   2.936   1.044 -0.2173  0.1378  0.1314
21500W        W25900  15.649   5.309  26.238 -0.3391  0.4166 -0.5154
21501W        W25901   1.930   1.202  25.310 -0.1773 -0.1226  0.1132
21502W        W25902   1.834   2.847  31.812 -0.1649  0.0455 -0.2696
21503W        W25903   6.179   4.644   1.418 -0.0105 -0.0262 -0.2135
21504W        W25904  16.445   0.081  10.371  0.1663  0.1745 -0.1832
21505W        W25905  17.990   2.380  25.077  0.0007  0.0755  0.1887
21506W        W25906  10.110   4.620  23.723 -0.0341 -0.0634 -0.0730
21507W        W25907  25.993   3.094   3.877 -0.1081 -0.1334 -0.3346
21508W        W25908  16.621   5.140  27.479 -0.0599  0.0207  0.1045
21509W        W25909  22.811   2.544  31.832  0.1281  0.3440  0.0950
21510W        W25910  12.812   5.630   4.207 -0.0030 -0.0747 -0.0613
21511W        W25911  10.428   2.359   8.810 -0.3791 -0.0685  0.0360
21512W        W25912   3.583   0.466  22.945 -0.2040 -0.1572  0.1361
21513W        W25913   4.460   4.284  26.673  0.2500 -0.1296 -0.1944
21514W        W25914   2.170   3.808  14.015  0.1012  0.0397 -0.2515
21515W        W25915  15.322   2.630  22.613 -0.0359  0.0948  0.1678
21516W        W25916  24.507   1.111  21.014 -0.0103 -0.2698 -0.1826
21517W        W25917  20.454   0.806  10.767 -0.1202 -0.2515  0.1756
21518W        W25918   0.076   3.745  27.421 -0.0391 -0.1695 -0.1410
21519W        W25919  13.607   0.330   2.096  0.3948 -0.2103 -0.0323
21520W        W25920   1.050   3.315   5.748  0.2960 -0.1472  0.0261
21521W        W25921  25.662   3.021   7.672  0.1351  0.1237  0.2748
21522W        W25922  16.088   3.962  23.374  0.1200 -0.0636 -0.4220
21523W        W25923   8.125   2.292  22.125  0.1007  0.3262 -0.0485
21524W        W25924  24.322   2.798   7.952 -0.0882  0.0370  0.0338
21525W        W25925  22.502   3.832  13.156  0.4582 -0.1040  0.0198
21526W        W25926  15.062   2.144  23.815 -0.1689  0.0593 -0.0284
21527W        W25927  23.494   4.187   7.357 -0.0377 -0.1807  0.0149
21528W        W25928   8.674   3.260  11.649 -0.2234  0.0199 -0.0676
21529W        W25929  19.449   5.353   9.621  0.0985 -0.0522  0.4105
21530W        W25930   6.119   0.652  33.227 -0.0209  0.0871  0.0889
21531W        W25931  12.267   5.840  10.653 -0.1405 -0.1036  0.0035
21532W        W25932   2.834   3.601  32.069  0.2069 -0.0397 -0.0552
21533W        W25933  15.668   4.934  13.414 -0.1348  0.0970 -0.1356
21534W        W25934   1.844   4.075   1.762 -0.2419 -0.0123 -0.2513
21535W        W25935   6.961   3.250   6.220 -0.0925  0.0052 -0.1378
21536W        W25936  14.731   6.087  14.406 -0.1981  0.1107 -0.1793
21537W        W25937  24.887   1.142  10.902 -0.0462 -0.0521 -0.1294
21538W        W25938  11.336   2.431   8.824 -0.0928 -0.1549  0.1105
21539W        W25939   4.068   0.453  11.005  0.2262  0.0107  0.0393
21540W        W25940  14.983   6.063  35.293 -0.2848 -0.2830 -0.3259
21541W        W25941  24.446   2.124  35.974  0.1423  0.1870 -0.1288
21542W        W25942   6.920   1.102  34.070  0.0049  0.2907  0.1080
21543W        W25943   9.471   3.307  32.328 -0.0223  0.0560 -0.2695
21544W        W25944   2.484   0.710  25.826 -0.1746  0.1003  0.0930
21545W        W25945  19.124   0.726  21.292  0.2120 -0.2076  0.2644
21546W        W25946   9.962   6.410  26.187 -0.0772  0.0182  0.0149
21547W        W25947  19.540   4.941  22.386  0.0971  0.1720  0.0321
21548W        W25948   2.300   4.492  21.952 -0.1512  0.1860 -0.1794
21549W        W25949   9.264   2.311   9.201  0.1284  0.1448  0.0114
21550W        W25950  15.942   0.504  31.689  0.2088  0.0121 -0.1313
21551W        W25951   5.177   2.474  14.448 -0.1137 -0.0441  0.0766
21552W        W25952  14.527   0.158   8.998 -0.1892  0.0799  0.0227
21553W        W25953   1.806   5.041  10.919  0.0917  0.2188 -0.0971
21554W        W25954   0.218   1.160   2.681 -0.2262  0.1415 -0.0264
21555W        W25955  11.764   2.861   8.949  0.0328  0.0333 -0.1018
21556W        W25956   5.905   2.216  22.106  0.1984 -0.2696  0.1601
21557W        W25957  23.387   1.394  25.307 -0.2766 -0.1866  0.3273
21558W        W25958   6.082   2.677  15.513  0.2292  0.0175  0.1037
21559W        W25959   2.221   3.356  21.106 -0.1999 -0.3211  0.2562
21560W        W25960  19.366   3.147  20.979 -0.0378  0.2075 -0.1331
21561W        W25961   6.133   2.505  25.115 -0.0852 -0.1096 -0.1007
21562W        W25962  22.522   3.342  27.543 -0.1330  0.0300 -0.0205
21563W        W25963   0.189   3.497  15.627 -0.0453 -0.1417  0.2025
21564W        W25964  25.577   0.340   5.694 -0.1668 -0.0464  0.0615
21565W        W25965  11.119   1.692  25.579 -0.0255  0.0981  0.0731
21566W        W25966  11.291   0.699  31.627 -0.0105  0.1691  0.1001
21567W        W25967  17.356   3.043  15.208  0.1912  0.0891 -0.0635
21568W        W25968  13.702   0.963  22.423 -0.3075 -0.1384 -0.0084
21569W        W25969   7.466   3.857  21.809 -0.0203  0.3368 -0.1561
21570W        W25970  14.345   2.397  14.885  0.1745 -0.1821 -0.0203
21571W        W25971  18.973   3.936  20.683  0.1487 -0.2631 -0.2637
21572W        W25972  16.637   0.524  35.770 -0.1972  0.1317 -0.0999
21573W        W25973  20.381   5.255  29.067  0.2004 -0.0170 -0.1779
21574W        W25974   8.229   0.105   1.280  0.0815  0.0302  0.2567
21575W        W25975  16.111   5.008   3.838 -0.5430  0.4172  0.3616
21576W        W25976  18.330   6.546  21.662  0.0456  0.1593  0.1352
21577W        W25977   0.339   1.505  26.050 -0.2454  0.1236  0.1374
21578W        W25978  12.340   4.881  31.949 -0.0206  0.0434 -0.0422
21579W        W25979   8.541   6.378   5.227 -0.2727 -0.1743 -0.1975
21580W        W25980  16.002   6.387   5.480 -0.1021 -0.2341 -0.1226
21581W        W25981   5.312   4.549  20.861 -0.0361 -0.0772 -0.2266
21582W        W25982   6.665   3.556  25.754 -0.1701  0.0945 -0.0207
21583W        W25983   8.720   3.777  11.609 -0.0080  0.3586  0.1958
21584W        W25984   1.438   4.164  30.038 -0.0015  0.1742 -0.4199
21585W        W25985  15.890   1.783  33.638  0.3271  0.4179 -0.0076
21586W        W25986  23.223   1.874  22.596  0.0695  0.1823  0.2474
21587W        W25987  13.886   2.475   5.364  0.2115  0.2016 -0.0771
21588W        W25988   1.808   3.163  12.198  0.1350 -0.3899 -0.2245
21589W        W25989  11.318   1.052   5.286 -0.1471 -0.0198  0.1019
21590W        W25990   4.683   0.373  28.865  0.0110  0.0585 -0.5222
21591W        W25991  14.158   6.215  12.417 -0.3005 -0.0046  0.3772
21592W        W25992   7.828   2.245  22.520 -0.0806  0.1582 -0.2705
21593W        W25993  24.320   2.264  33.238  0.0729 -0.0149 -0.1646
21594W        W25994  14.562   5.337  32.154  0.0965  0.0643  0.1243
21595W        W25995  24.557   1.926  10.801 -0.2175 -0.1814 -0.0550
21596W        W25996  11.641   1.267  14.856  0.1126 -0.0480 -0.0081
21597W        W25997   1.893   3.119  10.824  0.1614  0.2254 -0.2036
21598W        W25998  17.100   0.989   1.874  0.0301 -0.4509  0.1731
21599W        W25999   9.392   4.713  31.501 -0.3305 -0.0895 -0.0833
21600W        W26000   3.767   3.637  13.909 -0.1393  0.1123  0.0366
21601W        W26001  18.957   1.252  32.789  0.0606  0.0239 -0.3366
21602W        W26002  18.315   1.346  11.961  0.1989  0.0432 -0.0901
21603W        W26003   3.862   4.951   0.749  0.0100 -0.2485  0.0076
21604W        W26004  16.273   3.942  32.287  0.3448  0.4980 -0.4509
21605W        W26005   5.295   0.895  27.683 -0.0304 -0.2434  0.0307
21606W        W26006  17.766   3.588   8.090  0.0181  0.0201  0.1039
21607W        W26007   9.206   3.390  12.494 -0.0048  0.0629  0.1009
21608W        W26008   9.959   3.860  12.924 -0.1846  0.0930 -0.5083
21609W        W26009  23.340   5.434   8.042 -0.0947 -0.3507 -0.3973
21610W        W26010   3.682   0.370   1.646  0.3303 -0.1609  0.2324
21611W        W26011  25.014   2.891  21.323 -0.1963 -0.2001 -0.1528
21612W        W26012  25.309   2.161  12.133 -0.2710  0.0163 -0.0458
21613W        W26013  23.680   0.376  24.941  0.1692 -0.2010  0.0775
21614W        W26014  23.490   6.397   6.655 -0.0952  0.0121 -0.1799
21615W        W26015   0.867   4.174   5.018  0.1215 -0.0129  0.0988
21616W        W26016  18.483   2.732   8.134 -0.1424 -0.0761  0.0057
21617W        W26017  24.068   1.716   7.386 -0.2931  0.2520  0.0048
21618W        W26018   9.537   6.455  13.202 -0.4011  0.1909  0.1001
21619W        W26019  17.368   4.471  25.538  0.0713  0.3044 -0.1252
21620W        W26020   3.603   0.817  35.703 -0.1830  0.1439 -0.0180
21621W        W26021   9.647   3.317  27.911  0.0679 -0.3917 -0.0324
21622W        W26022   6.272   1.996   8.241  0.0725 -0.0956 -0.2668
21623W        W26023  15.287   5.945  13.929 -0.1270  0.0880 -0.0170
21624W        W26024  26.188   2.468   1.596 -0.0222 -0.1076  0.0062
21625W        W26025  17.358   2.462   9.219 -0.3101 -0.1914 -0.0440
21626W        W26026   9.480   5.295  31.472 -0.2291  0.0229 -0.2404
21627W        W26027  14.281   2.829  34.409  0.1201  0.1232  0.0402
21628W        W26028  17.349   4.465   9.528 -0.2934  0.0436 -0.1753
21629W        W26029  13.608   1.811   1.933 -0.1449 -0.0873 -0.0959
21630W        W26030   0.624   1.760  24.410 -0.2001 -0.0612  0.0443
21631W        W26031  11.639   1.522   7.259 -0.1192 -0.2454 -0.2191
21632W        W26032  13.311   0.274   0.556 -0.0232 -0.0220  0.1472
21633W        W26033  16.961   2.066  24.194 -0.1127  0.1494  0.1601
21634W        W26034  24.372   4.329  19.899 -0.2966 -0.0471  0.2314
21635W        W26035  15.517   0.729  29.102 -0.0212 -0.3758 -0.0554
21636W        W26036  18.258   2.227  21.361 -0.0684 -0.1256 -0.0678
21637W        W26037  21.954   1.373   1.157  0.0387  0.0625 -0.3468
21638W        W26038   8.888   6.195  27.208  0.3516 -0.0735 -0.2310
21639W        W26039  17.723   2.381  27.750 -0.1955 -0.1385 -0.0503
21640W        W26040  11.101   5.994   1.318  0.2580  0.0144  0.1758
21641W        W26041   6.910   3.572  30.851 -0.1084  0.1160 -0.0291
21642W        W26042   5.196   4.555   8.163  0.0968  0.1847 -0.1511
21643W        W26043  13.439   2.425  32.318 -0.2914 -0.0890 -0.1427
21644W        W26044   7.404   6.158   1.371  0.0127  0.2292  0.0014
21645W        W26045  14.244   3.122  21.440  0.3132  0.0605 -0.0977
21646W        W26046   0.593   2.635  13.070  0.0348  0.0606  0.3023
21647W        W26047   1.466   1.978  25.530 -0.1333 -0.0750  0.0612
21648W        W26048  24.386   5.735   9.899 -0.4536 -0.0385 -0.0635
21649W        W26049  20.997   5.580  29.947 -0.2324  0.1776  0.0572
21650W        W26050  16.630   2.675  32.384  0.1893 -0.0725  0.0850
21651W        W26051  24.454   5.781  35.751  0.0077  0.0941  0.0207
21652W        W26052   5.209   1.378  30.487 -0.2575 -0.1383  0.0950
21653W        W26053   4.804   2.134   8.421  0.1209 -0.1088  0.0088
21654W        W26054   1.034   2.871  12.953 -0.1640 -0.2020 -0.0730
21655W        W26055  24.717   6.442  14.232 -0.1883 -0.1221  0.0001
21656W        W26056  11.431   1.366   5.994 -0.0528 -0.0067 -0.2761
21657W        W26057   4.552   5.762   9.524 -0.0618 -0.1327  0.0211
21658W        W26058  22.045   1.341  24.573 -0.0395 -0.2150  0.0096
21659W        W26059  12.275   2.175  25.145  0.0274  0.1168 -0.0882
21660W        W26060  10.324   3.017  23.155 -0.1914 -0.2179  0.0531
21661W        W26061   4.247   5.801  13.988  0.3358 -0.0120  0.1085
21662W        W26062  15.241   4.692  32.155 -0.2660  0.0747 -0.2268
21663W        W26063   3.830   5.997  27.650  0.0364  0.1121 -0.0583
21664W        W26064  13.268   4.622  30.000 -0.1136 -0.0798 -0.1788
21665W        W26065  25.373   4.202   0.796  0.0945 -0.0847 -0.0991
21666W        W26066  16.523   4.428  31.434 -0.2051 -0.0574  0.0247
21667W        W26067  16.058   2.431  25.106 -0.3440  0.0420  0.0275
21668W        W26068   6.143   2.613  21.803  0.1000  0.0905 -0.0388
21669W        W26069  17.153   0.594   7.580  0.2802  0.0678 -0.1905
21670W        W26070  11.432   1.344  13.635  0.0235 -0.3107  0.3255
21671W        W26071   8.387   1.924  35.362 -0.2920  0.0534 -0.2106
21672W        W26072   2.561   4.295   1.327 -0.0611 -0.1331  0.1926
21673W        W26073   4.232   4.794  13.360  0.3343 -0.1506  0.2130
21674W        W26074  15.567   0.454   1.142 -0.0867 -0.0995  0.0410
21675W        W26075  25.631   1.622  34.212  0.1131 -0.0098  0.1150
21676W        W26076  14.956   5.910   8.939 -0.1304  0.0083 -0.1793
21677W        W26077  24.549   5.582  10.761 -0.3265 -0.1104  0.0661
21678W        W26078  10.719   0.759  23.241 -0.1447  0.1133 -0.0545
21679W        W26079  11.252   5.652  35.839  0.0960 -0.0162  0.0768
21680W        W26080   8.682   4.718  21.473 -0.2362 -0.1453  0.0914
21681W        W26081   3.628   5.111   9.730  0.0660 -0.0730  0.0767
21682W        W26082   1.789   2.765   1.394  0.2511  0.0012 -0.1367
21683W        W26083   6.961   1.665  27.251  0.0302  0.1600  0.1271
21684W        W26084  12.735   1.696  12.295  0.2228 -0.3332  0.0533
21685W        W26085   7.103   0.127  12.976 -0.0021 -0.0782  0.1318
21686W        W26086   9.277   3.657  33.920  0.1588  0.0672 -0.2000
21687W        W26087   1.209   4.346  30.477  0.2273  0.0171 -0.0149
21688W        W26088  25.783   6.211  27.940 -0.0816 -0.0086 -0.0881
21689W        W26089  17.975   1.798  26.769 -0.2902 -0.1122 -0.1386
21690W        W26090   3.918   3.937  15.238 -0.0758 -0.0853 -0.0802
21691W        W26091   7.012   6.173  28.404  0.0427 -0.0797 -0.0168
21692W        W26092  14.740   5.295  22.347 -0.0354  0.0553 -0.0251
21693W        W26093   3.778   6.489  35.460  0.1033  0.1493  0.2978
21694W        W26094  15.350   4.728   4.313 -0.2404  0.0601  0.2133
21695W        W26095  10.128   6.479  13.339 -0.0703  0.0975  0.1249
21696W        W26096   9.284   0.703  11.811  0.2489  0.2153  0.2473
21697W        W26097   0.094   3.720  12.342  0.0373  0.1432  0.0145
21698W        W26098   8.502   1.169   6.849 -0.0621 -0.0176  0.0341
21699W        W26099  25.509   2.684  33.948  0.0996 -0.1537 -0.0387
21700W        W26100   2.697   6.477  10.151 -0.1901  0.0201 -0.1324
21701W        W26101  11.797   0.442   3.851  0.1496  0.0492  0.0565
21702W        W26102   0.395   1.281   4.426  0.0678 -0.2322 -0.3442
21703W        W26103  18.897   6.145  30.736  0.1775 -0.0648 -0.1827
21704W        W26104  14.644   0.398  27.197  0.1143  0.0553 -0.0684
21705W        W26105   5.814   2.078  23.236  0.0025  0.1056  0.0771
21706W        W26106   0.865   3.844  32.951 -0.1889 -0.1076  0.0219
21707W        W26107   0.464   5.206   3.507 -0.1626  0.1184 -0.1693
21708W        W26108  17.770   3.231   3.449 -0.0788  0.2386  0.1672
21709W        W26109  20.522   1.540   9.752  0.0907  0.0978  0.0276
21710W        W26110  17.081   3.612   6.703 -0.0767 -0.0032  0.1246
21711W        W26111   0.762   1.812   7.702  0.2670  0.2742  0.2538
21712W        W26112  12.574   4.066  28.534 -0.0193  0.3153  0.1828
21713W        W26113  22.360   0.737   1.773  0.0058  0.0555 -0.0968
21714W        W26114  23.645   3.914  25.875  0.0087  0.1176 -0.1389
21715W        W26115  12.686   2.505  33.718 -0.2305 -0.0489  0.0995
21716W        W26116  13.081   5.427   4.764  0.0055 -0.1425  0.2636
21717W        W26117  24.314   6.494  13.067 -0.0188 -0.0278  0.0673
21718W        W26118   1.183   6.088  34.055 -0.0581  0.1806 -0.1805
21719W        W26119  17.115   1.488  12.746 -0.1041 -0.3118  0.0358
21720W        W26120  10.800   5.472  15.297 -0.1904  0.0017  0.3306
21721W        W26121   1.964   6.368  30.437 -0.0786 -0.1937 -0.2021
21722W        W26122   0.584   0.760   4.303 -0.1054  0.0979  0.1193
21723W        W26123  11.415   2.431   8.301  0.2334 -0.0362 -0.0586
21724W        W26124  15.416   5.165  25.310 -0.1349  0.2597 -0.2373
21725W        W26125   8.801   3.428  21.613 -0.0300 -0.0709  0.1449
21726W        W26126  14.176   2.189   9.569  0.0883 -0.0623 -0.1787
21727W        W26127  15.321   1.646  22.844  0.1657  0.0712 -0.1040
21728W        W26128   8.008   0.292   9.242  0.0779  0.0807 -0.2178
21729W        W26129   5.859   2.645  31.318  0.0988  0.0246 -0.1812
21730W        W26130  19.735   4.561   4.378  0.2696  0.1417  0.0905
21731W        W26131   0.728   3.756  13.100 -0.0440 -0.0823 -0.3348
21732W        W26132  17.440   5.739  35.567 -0.0052 -0.0858 -0.0324
21733W        W26133   9.119   4.430  21.641 -0.0071 -0.1530 -0.2683
21734W        W26134  16.139   5.330   7.845 -0.1288 -0.2257  0.1495
21735W        W26135  12.060   3.926  28.458  0.1862 -0.0327 -0.0021
21736W        W26136  10.247   0.891   7.959  0.1109  0.2035 -0.1721
21737W        W26137  24.357   3.355  21.641 -0.1037  0.1579  0.2513
21738W        W26138   8.782   4.275  21.283 -0.0301  0.0399  0.0149
21739W        W26139  15.159   3.769  10.013 -0.0684 -0.0631  0.0301
21740W        W26140  15.149   0.522  21.081 -0.1811  0.1471 -0.1627
21741W        W26141   6.491   2.188  14.897 -0.1547 -0.2319  0.3482
21742W        W26142   2.559   3.589  31.650  0.1821  0.1332  0.2201
21743W        W26143  10.038   4.348   9.715 -0.0059  0.1275  0.0711
21744W        W26144   0.227   2.090  28.820  0.0345 -0.1531  0.0908
21745W        W26145  14.178   3.633  22.323 -0.0767 -0.1281  0.2014
21746W        W26146  22.519   1.563   9.691  0.2834  0.1500 -0.1024
21747W        W26147  23.958   0.708  21.695  0.0763  0.0145 -0.0233
21748W        W26148  13.562   6.416   4.869  0.2696  0.1028 -0.0758
21749W        W26149  19.405   1.154  32.959  0.0559  0.0772 -0.1873
21750W        W26150   3.562   3.980   0.578  0.0691  0.1159  0.2263
21751W        W26151  16.145   6.306  21.858  0.3742  0.0034 -0.3879
21752W        W26152  14.506   2.226  21.595  0.0719  0.0027 -0.0331
21753W        W26153  17.801   6.107   4.409 -0.4214  0.0991 -0.1332
21754W        W26154   2.132   1.616   3.917 -0.2577  0.4952  0.0261
21755W        W26155  23.067   1.278  10.931  0.2809  0.1826  0.0277
21756W        W26156  13.311   3.170  13.311  0.1105  0.2971  0.1172
21757W        W26157  23.239   3.248   2.890  0.0140  0.2081  0.1338
21758W        W26158   8.077   0.606  35.463  0.0952 -0.0562  0.2521
21759W        W26159   9.650   0.647  24.442  0.2495  0.3015  0.0091
21760W        W26160  11.922   4.455  27.761 -0.1865 -0.0251 -0.1109
21761W        W26161   0.063   1.078  24.584 -0.0056 -0.4983  0.0520
21762W        W26162  11.428   6.272  24.562 -0.0166  0.1168 -0.0662
21763W        W26163   6.936   0.243  35.931 -0.2856  0.0744  0.1106
21764W        W26164  15.657   2.731  22.234  0.0796  0.2917  0.0351
21765W        W26165  23.305   1.689  11.590 -0.1606 -0.0910  0.0238
21766W        W26166  19.160   0.131   2.547 -0.1373 -0.0796  0.2253
21767W        W26167   1.261   1.670  35.175 -0.0082 -0.0130 -0.1321
21768W        W26168   6.286   4.714  10.553  0.4394  0.2708 -0.1572
21769W        W26169   1.552   3.857  23.133  0.1176  0.1430  0.1233
21770W        W26170   8.149   2.139   2.948 -0.0330  0.0319 -0.0913
21771W        W26171   3.507   4.777   5.565  0.2065  0.0323  0.1279
21772W        W26172  15.427   1.396   1.028 -0.0394  0.1384  0.1254
21773W        W26173  11.899   6.445   5.448  0.0676 -0.0189  0.0252
21774W        W26174  19.853   4.876  27.476 -0.0137 -0.2964 -0.0596
21775W        W26175   9.179   5.016   1.861  0.0425 -0.1297  0.0126
21776W        W26176  19.624   5.903   3.168 -0.0009 -0.1026  0.0312
21777W        W26177  15.586   2.099  22.764 -0.2441  0.0484 -0.0287
21778W        W26178  12.258   5.817   5.061 -0.0447  0.3617 -0.0661
21779W        W26179   5.799   2.879  35.587 -0.2789  0.3261  0.1427
21780W        W26180  12.522   4.032  11.503 -0.2853  0.0869 -0.0606
21781W        W26181   0.208   1.833  11.926  0.0530 -0.2033 -0.0913
21782W        W26182   7.846   6.417   1.444  0.0742 -0.1062 -0.3388
21783W        W26183  18.653   4.831  10.894  0.1572 -0.0361  0.0449
21784W        W26184   8.937   0.464  32.964 -0.1271  0.0581  0.2310
21785W        W26185   1.411   1.392   3.513  0.0095 -0.0893  0.0616
21786W        W26186  13.843   0.605  15.430 -0.0758  0.1309 -0.2549
21787W        W26187  20.661   6.215  34.704 -0.0948  0.2129 -0.2079
21788W        W26188  21.535   2.417   8.769  0.0730 -0.1183  0.0001
21789W        W26189  23.736   5.508  20.275  0.0812  0.2031 -0.2118
21790W        W26190  10.583   4.312  21.565  0.0184  0.4476  0.0271
21791W        W26191   7.350   1.406   3.648  0.1079  0.0418  0.0719
21792W        W26192  24.425   2.781  10.616  0.2370  0.0300 -0.1220
21793W        W26193   7.423   2.680   1.539 -0.1237  0.0088 -0.1200
21794W        W26194  18.368   0.985  27.129  0.0650  0.0139 -0.0989
21795W        W26195  22.983   4.790   1.867 -0.0231  0.2694 -0.3081
21796W        W26196   2.750   2.300  30.787  0.1094  0.0671  0.2071
21797W        W26197  10.874   3.606   7.787  0.1993 -0.1957 -0.0767
21798W        W26198   1.838   6.210  21.565  0.0992 -0.2411 -0.0437
21799W        W26199  17.835   5.781  28.444 -0.2341  0.2107  0.0867
21800W        W26200  10.142   5.072   3.936 -0.0289  0.0500 -0.0625
21801W        W26201  26.428   1.531   3.095  0.0679 -0.3492  0.4002
21802W        W26202  12.508   1.804  25.007 -0.1497  0.2713  0.0630
21803W        W26203   3.681   3.615   6.581  0.0224 -0.0969  0.1490
21804W        W26204   8.895   1.854   0.065  0.1639 -0.1484 -0.0742
21805W        W26205  20.970   0.591   9.760 -0.1323  0.0242 -0.2489
21806W        W26206  19.710   1.945  12.416  0.2061  0.0612  0.0359
21807W        W26207   5.926   1.656  36.021  0.2309  0.0621 -0.0308
21808W        W26208  20.543   5.731  34.909 -0.1917 -0.0236 -0.2153
21809W        W26209   5.438   5.331  35.381  0.1365  0.3327 -0.0391
21810W        W26210  13.099   2.063  12.485  0.2118  0.3309  0.0173
21811W        W26211  20.454   2.430  31.918 -0.2830 -0.0917 -0.3534
21812W        W26212   0.213   1.482   2.244 -0.2890 -0.0248  0.0085
21813W        W26213   2.671   3.461  10.589 -0.2856 -0.0171 -0.1146
21814W        W26214   5.051   2.223  26.009  0.1033 -0.2003  0.0678
21815W        W26215  22.535   0.710  32.499  0.1088  0.0830  0.1749
21816W        W26216  12.524   3.825   8.352 -0.0467  0.1464  0.1192
21817W        W26217   5.279   0.844   6.368 -0.1738 -0.3605  0.3959
21818W        W26218   0.872   2.600  21.633  0.1005 -0.3984 -0.0881
21819W        W26219   2.633   2.430  11.168 -0.1354  0.3954  0.0497
21820W        W26220   9.655   1.740  15.369 -0.2833 -0.0706  0.1057
21821W        W26221  19.043   0.356  27.725  0.0482  0.0618  0.3575
21822W        W26222  20.208   4.780   8.761  0.1273  0.0243  0.2570
21823W        W26223   2.277   1.871  23.224 -0.3089 -0.0945 -0.1219
21824W        W26224  16.883   1.131  21.735 -0.1186  0.0957  0.3671
21825W        W26225  12.430   3.623   6.717 -0.0486  0.0357 -0.1269
21826W        W26226   8.927   0.974  29.627  0.2720 -0.0730  0.0567
21827W        W26227   6.113   1.197   5.941 -0.1217  0.3945 -0.0484
21828W        W26228   7.724   3.558  35.198  0.0762 -0.2225 -0.0092
21829W        W26229   3.548   1.724  23.624 -0.1046  0.5575  0.1819
21830W        W26230   0.994   3.697  36.020  0.2397  0.2126  0.0792
21831W        W26231  13.360   4.681   4.123  0.0971 -0.1430  0.0425
21832W        W26232  21.092   2.876  28.232  0.0315 -0.1670  0.0356
21833W        W26233  19.842   4.993   3.042  0.0550  0.0962 -0.1807
21834W        W26234  12.576   6.387   8.088 -0.0827  0.0871  0.0741
21835W        W26235  10.119   1.306   5.551 -0.0083  0.1886  0.3243
21836W        W26236  20.026   6.163  12.092 -0.0612  0.0753  0.0420
21837W        W26237  10.125   0.108  11.617  0.2341  0.2877 -0.0437
21838W        W26238  11.507   3.089  33.584  0.0449  0.2338  0.0135
21839W        W26239   3.514   0.764  29.529 -0.2397  0.2866 -0.0917
21840W        W26240   3.944   6.085   6.491  0.1018 -0.0346 -0.0268
21841W        W26241  19.799   6.044  27.954  0.1722  0.0884  0.2101
21842W        W26242  21.189   5.711   2.904 -0.0558  0.3058 -0.0035
21843W        W26243  14.189   3.768   2.051  0.3495 -0.2308  0.1027
21844W        W26244   4.219   0.581   3.498  0.1640 -0.2417 -0.0259
21845W        W26245   0.669   3.323  26.882 -0.2290  0.2669  0.4465
21846W        W26246   8.440   4.253  21.907  0.1177 -0.0162 -0.2833
21847W        W26247   3.251   5.149  12.670  0.2259  0.0560  0.1690
21848W        W26248  19.904   1.760  33.121 -0.0544 -0.1471 -0.1192
21849W        W26249  14.208   4.153  12.004 -0.2572 -0.2651  0.4787
21850W        W26250  12.261   0.535   4.034 -0.1309  0.0765  0.2600
21851W        W26251  11.426   2.174  28.867  0.3197 -0.1156 -0.0243
21852W        W26252  11.914   4.045   7.073  0.0286 -0.1410  0.0501
21853W        W26253  11.246   3.216  27.340  0.2206  0.1219 -0.0861
21854W        W26254  18.689   3.743  23.773  0.0830 -0.0329 -0.0962
21855W        W26255  13.122   3.716  32.236  0.0486  0.3379 -0.1546
21856W        W26256  24.160   0.990   2.471  0.0385  0.2121 -0.0689
21857W        W26257  15.758   1.205  27.419  0.0989  0.5774 -0.0560
21858W        W26258   3.432   3.753  32.277 -0.1458 -0.1046 -0.0569
21859W        W26259   4.762   1.547   0.520 -0.1436  0.0572  0.3622
21860W        W26260   0.582   5.703   7.139  0.0090  0.0482  0.1404
21861W        W26261   7.501   4.638   1.227  0.0153  0.1706 -0.0435
21862W        W26262  24.186   3.583  11.050 -0.2264  0.2675  0.1176
21863W        W26263   7.777   4.462   9.113  0.0818  0.3051  0.1911
21864W        W26264  26.406   5.689  35.481 -0.0312  0.2607  0.0735
21865W        W26265   9.368   2.886  14.199  0.2795  0.0134 -0.2855
21866W        W26266   1.874   4.052   3.567 -0.1446 -0.0221  0.0598
21867W        W26267   9.293   1.227   2.039  0.1297 -0.1561  0.1252
21868W        W26268   1.388   1.430  35.960  0.0250 -0.1302 -0.1832
21869W        W26269  15.088   0.141   5.661 -0.0456 -0.0950 -0.4384
21870W        W26270  22.886   3.100   1.759  0.0452 -0.1228 -0.0959
21871W        W26271   7.189   4.472  33.390  0.1553  0.1267  0.2165
21872W        W26272  13.175   4.682  25.381  0.1607  0.0734  0.0387
21873W        W26273   3.799   4.052  10.038  0.2454 -0.2426  0.1337
21874W        W26274   7.962   4.289   2.164 -0.0323  0.1613  0.0320
21875W        W26275  14.038   6.102  29.147 -0.2420  0.1332  0.0813
21876W        W26276   2.828   4.050  12.035  0.1068  0.1317 -0.2222
21877W        W26277  26.362   0.956  25.273  0.0120 -0.0602  0.2362
21878W        W26278  11.904   5.924  32.706  0.1962  0.1226 -0.0990
21879W        W26279  13.791   0.529  21.123  0.0748 -0.0917  0.0682
21880W        W26280   0.416   3.102  33.568  0.0409  0.0577  0.1255
21881W        W26281  17.864   0.661  24.830  0.0538  0.3039 -0.1110
21882W        W26282  12.993   6.026   4.584 -0.0211  0.0543 -0.0652
21883W        W26283  13.705   3.942  29.318  0.0625  0.0061  0.0062
21884W        W26284   7.584   5.396  14.187 -0.0177  0.1049 -0.0196
21885W        W26285   4.196   6.567  22.184 -0.1616 -0.1252 -0.2557
21886W        W26286  18.367   1.119   2.089  0.0791 -0.2164 -0.1270
21887W        W26287   8.889   5.138   6.737  0.4167 -0.2276 -0.0223
21888W        W26288  22.694   2.362  11.764  0.2498 -0.0784  0.0306
21889W        W26289  10.941   2.983  34.961  0.2652  0.0480 -0.2636
21890W        W26290   6.899   1.108   7.067  0.2133  0.0001 -0.0491
21891W        W26291   1.681   5.765  29.059 -0.1425  0.2934  0.1486
21892W        W26292  10.390   4.797   5.143 -0.0418 -0.0274 -0.2498
21893W        W26293  20.859   4.513  23.355 -0.0291 -0.2097  0.0963
21894W        W26294   1.330   0.720  35.658  0.0479 -0.2589  0.0353
21895W        W26295   2.441   1.639  19.950 -0.2269 -0.0554  0.1007
21896W        W26296  20.990   5.399  30.826 -0.0261 -0.0439  0.0442
21897W        W26297   9.897   1.296  32.622  0.3159 -0.2322 -0.1357
21898W        W26298  12.077   3.428  13.240  0.0301  0.2173 -0.1336
21899W        W26299  18.414   3.117  25.070 -0.1527 -0.2848 -0.0899
21900W        W26300   5.825   0.341  23.765 -0.0143 -0.0289  0.3332
21901W        W26301  24.069   4.428   1.971  0.0054 -0.2098 -0.1778
21902W        W26302  21.746   5.550   6.685 -0.0008 -0.1759 -0.0633
21903W        W26303  24.056   4.542   7.172  0.2093 -0.2896 -0.2063
21904W        W26304  12.163   3.024  27.961 -0.2132 -0.1052  0.3097
21905W        W26305   8.568   4.948  32.028  0.2246  0.0424  0.2774
21906W        W26306  14.119   5.079  32.545  0.0913  0.2534  0.0450
21907W        W26307   0.583   6.505  27.500  0.4796  0.0747 -0.2403
21908W        W26308   7.249   3.500  23.024 -0.0675  0.0370 -0.3038
21909W        W26309  11.743   0.350  33.207 -0.1606 -0.0901 -0.0744
21910W        W26310  15.257   0.807   1.691  0.0234  0.2992 -0.0174
21911W        W26311   7.994   4.382  34.638  0.1568 -0.1384 -0.1322
21912W        W26312  12.236   5.485  30.772  0.2254  0.2224 -0.0872
21913W        W26313  22.777   2.009  25.475  0.0842 -0.2539  0.1544
21914W        W26314  16.383   3.734   7.428 -0.0446 -0.0849 -0.2263
21915W        W26315   6.530   0.417  22.107 -0.1508 -0.0805  0.1545
21916W        W26316  21.046   1.911   2.694 -0.0997 -0.2751 -0.1559
21917W        W26317   0.642   1.539  28.523  0.0843 -0.0729  0.0956
21918W        W26318  19.539   3.586   9.870 -0.2099 -0.3886 -0.0358
21919W        W26319  13.136   4.392  35.186  0.1120 -0.1702 -0.2869
21920W        W26320   8.115   0.295   4.390 -0.1913  0.3315  0.0851
21921W        W26321   0.965   5.565   6.121  0.1526 -0.1018 -0.1192
21922W        W26322  22.851   6.210  30.649  0.0339  0.1277 -0.0023
21923W        W26323  17.482   0.425  29.286  0.0355  0.2299  0.1316
21924W        W26324  25.176   0.833  11.208 -0.2403  0.1732  0.0496
21925W        W26325  17.941   0.191  14.992 -0.2081 -0.0377  0.2156
21926W        W26326  15.103   3.036  10.816  0.0417  0.1720 -0.0973
21927W        W26327   8.800   2.435  33.581  0.0736 -0.2639  0.0956
21928W        W26328   4.515   5.368  31.211 -0.3205  0.0811 -0.0483
21929W        W26329  11.708   3.579   7.991 -0.2210  0.0324  0.0825
21930W        W26330  14.179   5.592  26.072  0.0184 -0.2857  0.1019
21931W        W26331  21.032   5.553   8.084 -0.0211  0.0091 -0.0313
21932W        W26332   7.955   6.002  15.288 -0.1238  0.1640  0.0370
21933W        W26333  10.470   5.965  22.922  0.1157  0.0392 -0.0869
21934W        W26334  20.852   2.628  30.023  0.1093 -0.1853  0.2284
21935W        W26335   0.003   1.261  33.666 -0.0941 -0.2062 -0.0950
21936W        W26336  16.955   4.500   6.246 -0.2937  0.1228 -0.0031
21937W        W26337  11.805   2.738  12.652 -0.0949  0.3078 -0.1035
21938W        W26338   6.755   0.446   4.225  0.0908  0.0126 -0.0062
21939W        W26339  22.763   2.869  26.099 -0.3399  0.2470  0.1740
21940W        W26340  15.209   0.377  13.048 -0.0041 -0.0362  0.0985
21941W        W26341  25.192   2.162  25.222  0.1411 -0.0557  0.2883
21942W        W26342  22.156   0.298   9.669 -0.2719  0.1709 -0.0077
21943W        W26343   0.412   4.028  33.945 -0.2875  0.2655 -0.0914
21944W        W26344  21.739   6.414   8.286 -0.2234  0.3311 -0.2509
21945W        W26345   4.237   3.111  32.461 -0.0175  0.1091  0.0356
21946W        W26346  20.713   2.994   9.682 -0.1183 -0.0135  0.0731
21947W        W26347   0.569   2.335  34.757  0.0779  0.1007  0.1478
21948W        W26348  19.700   2.711   8.314  0.2019  0.2675 -0.3602
21949W        W26349  13.871   0.860  21.514  0.0373 -0.1184 -0.3139
21950W        W26350  14.694   3.567  23.411  0.1536 -0.0674  0.2341
21951W        W26351   8.197   5.130  15.357 -0.3063  0.1043 -0.2709
21952W        W26352  22.242   5.463  13.081  0.1466 -0.0373 -0.0611
21953W        W26353  13.358   2.874  29.822  0.2042  0.0027  0.4305
21954W        W26354  12.086   0.640   6.435 -0.4697  0.0161  0.2648
21955W        W26355   1.702   1.118  25.846 -0.1804 -0.2380  0.1714
21956W        W26356   3.474   1.734  10.494  0.1573  0.6123  0.0600
21957W        W26357   1.889   6.066  27.033  0.1739  0.1426  0.0350
21958W        W26358   9.470   1.617   3.158 -0.0382 -0.1232 -0.0242
21959W        W26359  12.235   2.614  10.282 -0.1931 -0.0103 -0.0110
21960W        W26360  22.730   6.247  32.978 -0.2618 -0.0601 -0.3723
21961W        W26361  12.331   0.290   7.873 -0.0474 -0.2089 -0.0543
21962W        W26362  18.611   5.525  14.039 -0.0172  0.0716 -0.0242
21963W        W26363   2.693   5.222  21.468  0.2964 -0.1539  0.0490
21964W        W26364  24.951   1.898  30.889  0.0906 -0.2343 -0.0238
21965W        W26365   5.047   5.001  35.781  0.0054  0.2448  0.0605
21966W        W26366   5.872   6.299   5.549  0.1780  0.0795  0.0587
21967W        W26367  22.400   4.781  32.182  0.1809  0.1450 -0.1296
21968W        W26368   4.217   6.152  34.372  0.2676 -0.2163 -0.1690
21969W        W26369  20.265   6.077   1.368  0.1761 -0.1128  0.2484
21970W        W26370  16.948   3.396  21.072 -0.2985 -0.0094  0.2759
21971W        W26371  11.315   5.907  32.677  0.0261  0.0409 -0.1786
21972W        W26372  17.832   5.837  32.874 -0.1207 -0.2122 -0.1333
21973W        W26373  20.220   2.728   4.500  0.0458 -0.1631  0.0860
21974W        W26374   2.742   5.546   2.167  0.1971 -0.0695 -0.0453
21975W        W26375   7.433   5.578   3.266  0.0116  0.1379  0.1744
21976W        W26376   1.529   3.455  34.828 -0.1162 -0.3869 -0.2513
21977W        W26377  13.259   1.373  23.317  0.3334 -0.1741 -0.1051
21978W        W26378  14.702   0.953  15.791 -0.0778 -0.2167  0.1960
21979W        W26379   0.082   4.578  21.789  0.1120  0.1145  0.1084
21980W        W26380   3.060   4.831   2.833 -0.0322  0.1043 -0.0361
21981W        W26381   4.903   0.470  13.477  0.1076  0.0350 -0.0501
21982W        W26382   4.999   1.800  24.834  0.0186  0.1378 -0.0698
21983W        W26383   1.889   4.649   2.737  0.1403 -0.1977  0.1955
21984W        W26384  15.042   2.904  26.063  0.0117  0.2269  0.0168
21985W        W26385   2.514   3.137  24.436  0.1929 -0.3543  0.2675
21986W        W26386  21.518   0.877   0.673 -0.2267 -0.0534  0.0852
21987W        W26387  16.841   2.972   9.379  0.2513 -0.0617  0.2222
21988W        W26388  25.730   1.903  13.648 -0.0722 -0.0029 -0.0839
21989W        W26389  15.748   5.225   7.567  0.0088  0.2453  0.2714
21990W        W26390   3.777   4.835  24.107  0.2432  0.2652  0.2244
21991W        W26391  25.813   0.430  11.610  0.0927 -0.0163 -0.0095
21992W        W26392  10.201   1.934   1.754 -0.1218 -0.2935  0.1044
21993W        W26393   0.779   4.835  32.187  0.0665  0.1028  0.0677
21994W        W26394  10.163   4.884  13.095 -0.1657 -0.1782  0.0594
21995W        W26395   9.649   5.030   4.121 -0.0676 -0.0719  0.2477
21996W        W26396  19.176   5.305  14.856 -0.1473 -0.0644 -0.0429
21997W        W26397   6.331   6.166  28.089  0.0264 -0.2860  0.0277
21998W        W26398  11.734   5.680  27.498  0.2379 -0.0215 -0.1799
21999W        W26399   1.033   2.752  30.472  0.1381  0.2900 -0.0189
22000W        W26400  17.064   2.169  32.922  0.0924  0.2045 -0.1876
22001W        W26401  17.574   2.772  31.102  0.3144 -0.2415  0.1188
22002W        W26402  10.326   0.739  15.168  0.1206 -0.0847  0.0843
22003W        W26403   7.325   4.447   4.195  0.2870 -0.0925  0.0581
22004W        W26404  15.142   3.686  32.344  0.1117  0.1361 -0.0448
22005W        W26405  11.264   5.427  29.715  0.0305 -0.1449 -0.0610
22006W        W26406   9.133   5.484  26.492 -0.0759  0.1145  0.0016
22007W        W26407   8.538   2.244  32.385 -0.2703  0.1229  0.0630
22008W        W26408  11.829   1.119   7.437 -0.0291  0.1159 -0.0928
22009W        W26409   6.990   2.719   1.272  0.0337 -0.1000 -0.4223
22010W        W26410   9.256   5.080  11.828 -0.0129 -0.2032 -0.0869
22011W        W26411   9.025   3.138  29.721 -0.0163  0.2567 -0.2842
22012W        W26412  23.293   5.461  12.092  0.0726  0.1324  0.1371
22013W        W26413  15.025   3.957  28.561  0.1894 -0.1214 -0.2228
22014W        W26414  10.853   1.897   9.574 -0.5006  0.1363  0.0592
22015W        W26415   6.251   1.213  13.020 -0.3252  0.0676 -0.1995
22016W        W26416  18.643   1.562  33.595  0.0477 -0.1150  0.1906
22017W        W26417  15.997   2.319   2.055 -0.3031  0.0289  0.1030
22018W        W26418  13.503   1.689  12.600  0.0537 -0.1811 -0.0182
22019W        W26419  13.689   2.195  28.443 -0.2049 -0.2056  0.1694
22020W        W26420  25.128   1.070  25.912  0.0783  0.2710 -0.1740
22021W        W26421  16.319   1.302  11.620 -0.1173  0.1258  0.0072
22022W        W26422  13.701   1.035  13.799  0.0033 -0.1461 -0.2147
22023W        W26423   5.355   6.461  12.493 -0.1158  0.3192 -0.1413
22024W        W26424   4.440   3.838  26.893  0.1261  0.1099  0.0284
22025W        W26425  13.810   5.727  23.912 -0.0379 -0.2236  0.0738
22026W        W26426  25.167   4.463  24.723  0.0625 -0.1398 -0.1852
22027W        W26427  23.500   4.523   0.917  0.0204  0.1897 -0.1310
22028W        W26428   8.277   2.662  26.635  0.0441 -0.1780 -0.2792
22029W        W26429   6.067   4.000  36.096 -0.1092 -0.1218 -0.0917
22030W        W26430   1.634   0.877   4.087  0.0726 -0.1982  0.3929
22031W        W26431  10.500   0.068  34.886  0.1784 -0.0785  0.0752
22032W        W26432  25.521   2.001  22.073 -0.1002  0.1849 -0.0994
22033W        W26433   2.844   2.760  36.108  0.2421 -0.1828  0.2454
22034W        W26434  19.298   0.833   7.792  0.2024 -0.0980 -0.0503
22035W        W26435   9.073   1.756  23.870 -0.1855 -0.1299  0.0857
22036W        W26436  11.842   3.896  22.783  0.1603  0.1875 -0.4688
22037W        W26437   4.709   0.219  32.593 -0.1541  0.0129 -0.3310
22038W        W26438  13.819   3.184   0.485 -0.2913  0.1648  0.0612
22039W        W26439   9.186   5.824  26.097 -0.0622 -0.1293 -0.1140
22040W        W26440  15.516   3.311   9.336  0.2194  0.2913  0.0195
22041W        W26441   0.783   1.468  10.849 -0.2111 -0.2050 -0.2947
22042W        W26442   4.668   3.127  12.072 -0.1631  0.0867 -0.0828
22043W        W26443  14.408   6.490  23.097 -0.1338  0.0954  0.0222
22044W        W26444   2.809   5.392  31.156  0.0847  0.1036  0.2526
22045W        W26445   8.630   3.389   4.242 -0.3014  0.2102 -0.0596
22046W        W26446  12.416   5.129   1.759  0.0636  0.0577  0.1377
22047W        W26447  13.339   5.727  28.922 -0.0286 -0.0318  0.0722
22048W        W26448  19.196   3.431  26.568  0.0330 -0.0185  0.0156
22049W        W26449   3.173   1.206  35.179 -0.1977 -0.0120 -0.1467
22050W        W26450  18.730   2.601  32.059  0.1287  0.3025 -0.0863
22051W        W26451  23.983   4.898   3.833 -0.1001 -0.0699  0.0371
22052W        W26452  22.324   3.643  34.917 -0.1226  0.0995  0.0580
22053W        W26453  17.725   4.568  24.225 -0.2170 -0.2696 -0.4835
22054W        W26454  20.016   4.085  11.706  0.4030 -0.1341  0.0599
22055W        W26455  18.025   0.872   7.153 -0.1709  0.1997  0.0670
22056W        W26456  16.645   2.230  25.336  0.1890  0.1531 -0.1437
22057W        W26457  15.991   0.023   8.009  0.0679 -0.0642 -0.0331
22058W        W26458  16.981   6.078  13.564 -0.1655  0.2496  0.3436
22059W        W26459  24.458   3.324  12.613  0.0435  0.1603 -0.0748
22060W        W26460  14.811   2.220   2.910 -0.0607 -0.3549  0.1008
22061W        W26461  19.713   1.234  23.976 -0.1449 -0.2099 -0.2574
22062W        W26462   9.631   3.749  10.502 -0.2570  0.0470  0.2977
22063W        W26463  18.259   1.325  25.908  0.0269 -0.2385 -0.0521
22064W        W26464  21.203   1.749  13.830 -0.2744  0.0279 -0.0465
22065W        W26465  24.510   5.278   1.101  0.0894 -0.0984 -0.0007
22066W        W26466   2.977   3.286  14.990 -0.1754 -0.0399  0.0428
22067W        W26467  12.899   2.296  31.582 -0.1404 -0.0472  0.0485
22068W        W26468   2.122   0.851  33.041 -0.1207  0.2355  0.0409
22069W        W26469  23.453   4.480  30.759 -0.3338  0.1672 -0.0130
22070W        W26470  12.857   3.036   2.052  0.1299 -0.1260  0.1304
22071W        W26471   6.902   5.806  14.512 -0.2511  0.0754  0.1889
22072W        W26472   1.746   2.029   6.245  0.0956  0.3014  0.3525
22073W        W26473  19.753   3.271  23.759  0.1614  0.0716  0.2143
22074W        W26474  19.550   1.846  31.505  0.1957 -0.1379 -0.0424
22075W        W26475   7.192   4.258  24.855  0.2628  0.0227  0.1084
22076W        W26476  24.213   1.565   6.558 -0.1392  0.1223 -0.0308
22077W        W26477  11.663   5.891  30.470  0.2892  0.1274 -0.0320
22078W        W26478   3.765   2.138  12.453  0.2964 -0.1770  0.3352
22079W        W26479   3.738   1.168  29.382 -0.1494 -0.0017 -0.0026
22080W        W26480   7.759   0.354  10.128  0.0579 -0.1116 -0.3277
22081W        W26481  16.508   4.167  27.407 -0.0727 -0.0671  0.0095
22082W        W26482  26.225   3.798  14.896  0.0600 -0.1340 -0.2702
22083W        W26483   3.749   0.003   7.327 -0.0302 -0.2274  0.1697
22084W        W26484  18.579   2.131   5.191  0.3954 -0.0776  0.0292
22085W        W26485   3.631   2.783  22.969 -0.2193  0.1964 -0.1105
22086W        W26486   1.579   3.747  35.960 -0.1390 -0.0649 -0.3856
22087W        W26487  24.996   3.866  11.469 -0.0196 -0.0062  0.0641
22088W        W26488  23.152   1.170   2.673  0.1067  0.2281  0.0805
22089W        W26489  10.213   6.314  31.511 -0.0574  0.0875  0.0331
22090W        W26490   1.518   6.014  25.189  0.0920  0.2868  0.2145
22091W        W26491  14.062   3.972  23.846  0.2259 -0.0286 -0.0877
22092W        W26492  12.604   4.798  26.156 -0.0840  0.0075 -0.1954
22093W        W26493   1.747   3.327   2.862 -0.2371  0.1648 -0.3001
22094W        W26494   7.156   2.817   6.941  0.0622 -0.1672 -0.0690
22095W        W26495  17.524   5.256   1.452 -0.3726 -0.2580  0.1114
22096W        W26496   7.454   5.464  20.225 -0.1101 -0.2188  0.4017
22097W        W26497  24.888   6.064  10.818  0.0086 -0.1458 -0.2273
22098W        W26498  23.389   0.796   5.737  0.0017 -0.1708  0.0600
22099W        W26499   8.950   4.218   8.860  0.1102  0.1746 -0.2416
22100W        W26500  24.488   3.224  13.694  0.1458 -0.1783 -0.1041
22101W        W26501  26.144   3.175  14.306  0.1611 -0.1780 -0.1967
22102W        W26502   9.784   3.272  14.321  0.0441  0.1407  0.4120
22103W        W26503   5.456   3.613  28.760 -0.1033 -0.2712 -0.1541
22104W        W26504   6.944   0.630  22.009 -0.1081  0.2450  0.0816
22105W        W26505   7.364   6.400   3.221 -0.1469 -0.0516 -0.3327
22106W        W26506  19.033   1.307  35.931 -0.4110 -0.2202  0.4081
22107W        W26507  24.462   2.343  34.935 -0.3684  0.0388  0.0350
22108W        W26508   3.989   5.512   8.281  0.1272  0.2275  0.2500
22109W        W26509  16.445   4.771   7.580  0.1653  0.1518 -0.2316
22110W        W26510  14.020   2.517  21.438  0.0668  0.2025  0.2317
22111W        W26511   8.448   4.409  27.480 -0.3920 -0.1070 -0.2328
22112W        W26512  21.307   1.027  35.561  0.3066  0.4013  0.1059
22113W        W26513  21.822   0.867   1.055  0.0067  0.2471 -0.0110
22114W        W26514  14.176   5.432   8.669 -0.2139 -0.0105 -0.1188
22115W        W26515   8.086   2.298  24.022  0.1333 -0.0430 -0.1572
22116W        W26516  10.752   5.227  21.203  0.0897 -0.0274  0.0880
22117W        W26517   1.885   1.545   1.956 -0.2842  0.0198 -0.1355
22118W        W26518   4.425   4.458  31.637  0.0050  0.1940 -0.1501
22119W        W26519  12.509   4.602  28.295  0.1137 -0.0047  0.0483
22120W        W26520  24.499   2.195  31.510  0.0030 -0.0288 -0.2852
22121W        W26521  14.779   2.792  21.425  0.0119 -0.0412 -0.3897
22122W        W26522  19.207   3.390  33.952  0.1374  0.0505  0.0989
22123W        W26523  14.888   5.688   1.740  0.3079 -0.0309 -0.3345
22124W        W26524  21.429   4.138  15.029 -0.0801  0.0584 -0.2060
22125W        W26525  11.033   2.996  25.055  0.1407 -0.0209 -0.0850
22126W        W26526  13.779   6.033   6.629  0.2911 -0.1406  0.0397
22127W        W26527  14.282   1.416  30.106 -0.1389  0.1972  0.0485
22128W        W26528  18.909   1.653   6.588 -0.0318 -0.0084  0.0590
22129W        W26529   3.715   1.047   0.383 -0.1872 -0.2119 -0.0372
22130W        W26530  25.310   1.518  36.108 -0.1231  0.0249  0.0775
22131W        W26531   2.280   0.946  24.699 -0.0678 -0.2526 -0.0864
22132W        W26532  21.475   2.658  22.572 -0.0738 -0.1130  0.0977
22133W        W26533   4.320   2.525   8.021 -0.0761 -0.0783 -0.1702
22134W        W26534  15.815   0.695  30.005  0.2286 -0.2953  0.4063
22135W        W26535  16.451   5.027   8.161  0.0569 -0.0073  0.0487
22136W        W26536  14.240   3.856  34.378  0.1015 -0.1608  0.1272
22137W        W26537   0.212   1.139  30.186 -0.2625 -0.1057 -0.3493
22138W        W26538  16.335   1.523   8.254  0.1742 -0.0492  0.3237
22139W        W26539  23.719   2.046  25.771 -0.0542  0.0384  0.0860
22140W        W26540  21.937   5.674   7.797 -0.0023 -0.2826 -0.2425
22141W        W26541   6.280   5.268   4.556  0.0164  0.1761  0.2263
22142W        W26542  18.826   3.951  36.091  0.1173  0.1447  0.0054
22143W        W26543  20.407   3.934  13.507  0.1530  0.1554 -0.1945
22144W        W26544  23.833   0.591   4.273 -0.1442 -0.2188 -0.1685
22145W        W26545  17.347   5.072   8.255  0.1509  0.1034 -0.3637
22146W        W26546  15.594   0.428  22.270 -0.1589 -0.4479 -0.1285
22147W        W26547  11.335   0.196  29.836  0.4152  0.2238 -0.0848
22148W        W26548   6.289   4.539   8.873  0.0613  0.0959 -0.2445
22149W        W26549  22.561   6.439  12.278 -0.1539 -0.0546 -0.1434
22150W        W26550  10.282   5.950  30.378 -0.0095 -0.0995 -0.0028
22151W        W26551  20.350   4.643  20.843  0.5291 -0.0684  0.2944
22152W        W26552   6.024   5.779   0.095  0.1760  0.3306 -0.2224
22153W        W26553  12.979   4.179  10.338 -0.0231 -0.0211 -0.1171
22154W        W26554   4.458   1.794  29.972 -0.1090  0.3090  0.0216
22155W        W26555   6.135   4.050   2.515  0.2429 -0.0822 -0.2692
22156W        W26556   9.846   0.332   2.510 -0.0876 -0.5781  0.2959
22157W        W26557  14.159   2.251  12.301 -0.2575  0.1364  0.1204
22158W        W26558   4.182   4.628  26.143  0.0176  0.1267  0.0266
22159W        W26559   4.682   0.292   2.298 -0.2956 -0.2017  0.0733
22160W        W26560  12.043   1.139   7.957 -0.0707  0.1376  0.0789
22161W        W26561   2.932   4.886  13.955  0.0085  0.3377 -0.0098
22162W        W26562   3.243   0.792  28.692  0.1009  0.2969  0.1042
22163W        W26563   5.429   0.248  13.453  0.0635  0.3858  0.1357
22164W        W26564  11.842   0.711  12.662  0.2823 -0.0945 -0.1555
22165W        W26565  21.076   0.076   9.858  0.0859 -0.2483 -0.2600
22166W        W26566  20.885   3.284  23.524  0.0697 -0.2870 -0.1158
22167W        W26567   2.909   4.144   4.081 -0.0364 -0.2658  0.1518
22168W        W26568   6.516   1.463  27.421  0.0689  0.1372  0.1083
22169W        W26569   2.681   1.477  14.007  0.2846 -0.0555 -0.0393
22170W        W26570  20.216   4.861   6.046 -0.1235 -0.1085  0.1417
22171W        W26571   3.970   4.240   4.837  0.2200 -0.3787 -0.0545
22172W        W26572   4.668   2.131   7.873 -0.1408  0.0142  0.0285
22173W        W26573   7.461   4.412  27.864  0.1056  0.1001  0.3848
22174W        W26574  10.428   0.042  12.034  0.6401 -0.1329 -0.0812
22175W        W26575   8.017   0.860  28.156 -0.1731  0.0493  0.1103
22176W        W26576   2.285   5.420  35.026  0.2012 -0.0075  0.0082
22177W        W26577  16.019   1.087  14.541 -0.0860  0.0799 -0.0494
22178W        W26578  14.907   5.766  22.206 -0.3567 -0.2536 -0.0908
22179W        W26579   0.998   2.198  14.181 -0.1659 -0.2099  0.0868
22180W        W26580  22.566   1.308   5.741 -0.5367  0.0030 -0.0137
22181W        W26581   1.001   0.804  22.815 -0.2586 -0.1686 -0.4554
22182W        W26582   4.150   0.367   8.255 -0.1567 -0.1074 -0.0133
22183W        W26583   3.227   3.195  14.499 -0.3282  0.0658  0.1904
22184W        W26584  23.380   5.201  32.830 -0.0912  0.0922  0.0014
22185W        W26585  24.315   5.464  21.353 -0.1237 -0.2832 -0.1694
22186W        W26586  10.629   0.690  24.084 -0.2447  0.2457 -0.4182
22187W        W26587  18.428   2.254  34.091  0.1207 -0.1758 -0.0233
22188W        W26588  11.139   3.665  30.243  0.0442  0.0001  0.1205
22189W        W26589   5.154   0.863  23.351 -0.0658 -0.1090 -0.1359
22190W        W26590  23.410   6.182  27.382  0.0472 -0.2240  0.0615
22191W        W26591  19.491   5.089  22.864 -0.1255 -0.1197 -0.0503
22192W        W26592   4.927   1.736   1.813  0.4043  0.0010 -0.0266
22193W        W26593   2.203   5.712  29.309 -0.0057  0.1854  0.0960
22194W        W26594  16.998   6.091  28.564  0.0061 -0.0782  0.1283
22195W        W26595  25.130   0.095  28.354 -0.2367 -0.0478 -0.2687
22196W        W26596   3.255   1.694  12.844  0.0842  0.2841  0.1816
22197W        W26597  19.022   4.506  12.206  0.1509  0.3188  0.0144
22198W        W26598  11.718   3.726  11.363 -0.5832  0.0094  0.1704
22199W        W26599  23.023   1.996  23.072  0.2852  0.0403  0.1195
22200W        W26600  19.119   0.267   1.565  0.0776 -0.1581 -0.1734
22201W        W26601  11.582   2.672   6.655 -0.0309 -0.0002  0.3111
22202W        W26602  22.355   5.695   8.741 -0.0980 -0.2104  0.1154
22203W        W26603  17.807   3.176   0.508 -0.0517  0.0159 -0.4118
22204W        W26604  13.553   3.254  25.657 -0.1530  0.2233  0.0435
22205W        W26605  12.913   5.824  28.161  0.1983  0.0853 -0.2413
22206W        W26606  10.210   1.958  25.787 -0.0134  0.0154 -0.2331
22207W        W26607  16.121   1.884   5.755 -0.3260 -0.2329 -0.1239
22208W        W26608  14.357   3.837  28.747 -0.0782  0.1710  0.0255
22209W        W26609   9.921   0.586  15.980  0.1787 -0.0925  0.0808
22210W        W26610   2.905   3.064  11.723 -0.0623  0.1416  0.0497
22211W        W26611  25.150   3.818  35.803 -0.0126  0.1646  0.3235
22212W        W26612  12.882   1.595  28.816  0.2368  0.1953 -0.1256
22213W        W26613   5.292   1.016  15.385  0.1512  0.0121  0.0540
22214W        W26614  10.402   1.222   6.348  0.0859  0.1495 -0.1851
22215W        W26615   6.159   0.396   8.202  0.0803 -0.0215  0.2357
22216W        W26616   1.473   1.906  21.776  0.1210 -0.0620  0.0894
22217W        W26617   0.576   1.871  25.626  0.0993 -0.1301 -0.0761
22218W        W26618   9.550   5.558  31.961 -0.0495  0.0709 -0.2002
22219W        W26619   9.827   3.070   2.479 -0.0120  0.4588  0.0488
22220W        W26620   8.950   1.051   5.702  0.2000  0.0963  0.0141
22221W        W26621  20.275   1.977  23.910 -0.3048 -0.0443 -0.1137
22222W        W26622  10.770   4.522   4.545 -0.0928 -0.1923 -0.3905
22223W        W26623   9.770   0.690  29.312  0.2352  0.4165 -0.3976
22224W        W26624  23.784   2.179   9.397  0.4092 -0.1041  0.0913
22225W        W26625  11.083   2.785   4.299 -0.1035 -0.1962 -0.0112
22226W        W26626  15.517   2.928   9.766  0.1429 -0.0046  0.0421
22227W        W26627  12.784   3.904   8.885  0.0396  0.1473 -0.1577
22228W        W26628   9.514   3.015  12.670 -0.1459 -0.0709 -0.1746
22229W        W26629   5.790   5.662   5.416 -0.1419 -0.0858 -0.0112
22230W        W26630   9.181   0.106  27.968 -0.1136  0.3083  0.1575
22231W        W26631  12.584   0.127  14.608 -0.0973 -0.1220 -0.3950
22232W        W26632  18.843   6.013  36.001  0.0294 -0.1847 -0.0752
22233W        W26633  12.553   2.486   2.905  0.0357 -0.0975  0.0566
22234W        W26634   7.545   2.929  30.639  0.0433  0.0838  0.0247
22235W        W26635  18.970   1.047  30.248 -0.0709 -0.0360  0.3706
22236W        W26636   2.284   2.933  12.869 -0.0808 -0.1438 -0.1323
22237W        W26637  12.573   0.050  10.649 -0.1294  0.1336 -0.1081
22238W        W26638  21.850   1.116   7.040 -0.0140  0.3628 -0.2544
22239W        W26639  17.415   4.399  21.827  0.2499 -0.4022 -0.1289
22240W        W26640   0.332   2.798  34.970  0.1325 -0.1550  0.0520
22241W        W26641  23.952   1.916   2.656  0.2144  0.1089 -0.1403
22242W        W26642   5.700   6.440   3.761 -0.0908  0.1856  0.0322
22243W        W26643   0.520   5.293   6.848  0.2223  0.3769  0.0669
22244W        W26644  15.638   5.141   1.545 -0.2807 -0.1142  0.1069
22245W        W26645  16.570   2.527  12.071 -0.1374 -0.0179  0.4308
22246W        W26646  25.941   0.596   8.581  0.0160  0.0236 -0.0176
22247W        W26647  11.623   5.268  26.487  0.1370 -0.2420  0.1436
22248W        W26648  25.185   2.336  27.867  0.0709  0.2279 -0.1496
22249W        W26649  17.332   0.931   8.818 -0.2253 -0.2072  0.2581
22250W        W26650   9.127   3.069  32.809 -0.1077 -0.2447 -0.1943
22251W        W26651   1.098   0.956   2.671  0.0589  0.0957 -0.1202
22252W        W26652  10.727   5.595  24.793  0.1696 -0.3234  0.0584
22253W        W26653  19.569   1.437  27.043  0.0074  0.1270 -0.3074
22254W        W26654   5.822   1.107   9.436 -0.2336  0.0631 -0.2392
22255W        W26655   8.850   4.530  31.912  0.0249  0.0324 -0.0872
22256W        W26656   8.057   6.437   7.768  0.2071 -0.0392  0.2468
22257W        W26657  21.946   1.908  13.304  0.0449  0.3055  0.1932
22258W        W26658  25.008   5.172   8.821  0.0556  0.1501  0.1118
22259W        W26659  22.872   3.513  12.972  0.1293  0.3303  0.0600
22260W        W26660  25.033   4.855  25.644 -0.0242  0.1458 -0.2361
22261W        W26661  19.421   3.091  12.246 -0.2649  0.2327  0.0329
22262W        W26662   6.382   1.356   2.929 -0.1609 -0.1189  0.0788
22263W        W26663  25.411   4.206  15.507 -0.0900  0.3955 -0.1653
22264W        W26664  16.955   4.173   3.146  0.1009  0.2035  0.0001
22265W        W26665  19.380   5.074   5.340  0.2128  0.2911 -0.1076
22266W        W26666   5.773   2.431  34.211  0.1116  0.0132  0.0156
22267W        W26667   1.728   4.814  35.936  0.1795  0.1464 -0.2367
22268W        W26668  13.843   0.489   8.502 -0.2773 -0.0439 -0.0118
22269W        W26669  10.975   1.299   0.621 -0.0525 -0.2352 -0.0558
22270W        W26670  10.901   5.204  33.207  0.2050  0.0890  0.1443
22271W        W26671  26.305   2.492  25.944 -0.2541  0.0980 -0.1109
22272W        W26672  19.748   2.792  34.604 -0.0792 -0.0024 -0.1076
22273W        W26673  11.773   6.522  13.321  0.1442 -0.0833 -0.1298
22274W        W26674   8.262   3.659  29.178 -0.0649  0.0091 -0.0441
22275W        W26675  19.253   0.725  33.553 -0.2443  0.2811 -0.1156
22276W        W26676  15.913   3.539  35.000 -0.4023 -0.1764  0.1619
22277W        W26677  13.686   5.320  23.183  0.0442  0.0199 -0.0295
22278W        W26678   5.320   4.579   9.188 -0.1974 -0.1374  0.0735
22279W        W26679   5.142   3.387  15.258  0.3111 -0.0235  0.4222
22280W        W26680  15.543   6.383  10.329 -0.1573 -0.0672  0.2258
22281W        W26681   7.438   5.336  13.689  0.2865  0.0007  0.1627
22282W        W26682  12.829   2.345   8.545  0.0572  0.2374 -0.2379
22283W        W26683   4.934   3.722  29.005  0.1740 -0.1505 -0.1423
22284W        W26684  13.852   4.506  27.406  0.0672 -0.2301  0.0919
22285W        W26685   0.963   3.269  32.933  0.0235  0.1937 -0.0618
22286W        W26686  20.422   2.215  29.831 -0.0993 -0.0685 -0.1446
22287W        W26687   0.522   1.542  30.388 -0.3720  0.1021  0.0810
22288W        W26688  15.759   2.104  34.949 -0.0795 -0.0778 -0.4762
22289W        W26689  14.271   6.509   9.926  0.2337 -0.2408 -0.0770
22290W        W26690  19.288   6.503  35.481 -0.0775 -0.3006  0.2643
22291W        W26691   8.155   1.600  36.052 -0.0678  0.0767 -0.2101
22292W        W26692  22.429   5.040  33.769 -0.4469 -0.1886  0.0926
22293W        W26693  23.599   3.564  21.479 -0.4122  0.0187 -0.2823
22294W        W26694   5.377   2.159  24.879 -0.0969 -0.1326  0.2275
22295W        W26695  14.262   1.082  10.116  0.2280  0.0031  0.0437
22296W        W26696   2.357   5.076  31.682 -0.1647 -0.3762  0.2779
22297W        W26697  24.982   3.455  20.357  0.1298 -0.1547  0.0976
22298W        W26698   6.120   4.316  28.589 -0.0484 -0.1177 -0.1874
22299W        W26699  23.007   4.655  22.391 -0.2937  0.2101 -0.1663
22300W        W26700  15.606   3.146  25.841 -0.2571  0.1265 -0.2538
22301W        W26701  14.936   0.367  12.138  0.0206  0.1410 -0.2924
22302W        W26702  13.672   4.876  15.487  0.3591 -0.1917 -0.0104
22303W        W26703  17.388   5.912   2.051 -0.1109 -0.1102  0.1147
22304W        W26704  10.398   2.389  15.140 -0.3684 -0.0422  0.2801
22305W        W26705  23.257   1.934  28.307 -0.1456  0.2321  0.0270
22306W        W26706   7.670   2.486  10.334 -0.1451 -0.2432  0.1290
22307W        W26707   0.240   1.768  29.556 -0.1917 -0.1024 -0.2132
22308W        W26708  25.716   6.380  34.023  0.0668 -0.0821 -0.1699
22309W        W26709  19.765   3.321   7.557  0.0111  0.0771  0.3468
22310W        W26710  23.953   6.016  34.716 -0.0116  0.0007 -0.2830
22311W        W26711  18.691   3.642   3.309 -0.1561  0.1716 -0.1083
22312W        W26712  24.454   0.910  30.590 -0.2338  0.1519  0.1101
22313W        W26713   8.292   1.013  12.176 -0.2183  0.3602 -0.0282
22314W        W26714  23.470   1.046  30.848 -0.1949 -0.1240  0.0590
22315W        W26715  15.547   0.332  29.584  0.3527  0.0500 -0.1854
22316W        W26716  22.519   5.790  22.486  0.1213 -0.0044  0.0012
22317W        W26717  19.211   1.734   1.939 -0.3651 -0.4239 -0.2691
22318W        W26718  26.408   5.872  30.138 -0.1177  0.0736  0.0388
22319W        W26719  23.763   4.382  32.417 -0.1595 -0.3672  0.0368
22320W        W26720  11.293   0.692   6.173  0.0165  0.2422 -0.1141
22321W        W26721   2.291   0.280  27.332 -0.2119  0.0552 -0.2189
22322W        W26722  19.882   6.297   3.064  0.3234  0.1638  0.1969
22323W        W26723  26.336   1.402  34.239  0.1978  0.2611 -0.0401
22324W        W26724   8.783   4.480  24.082 -0.0651 -0.1944  0.1799
22325W        W26725  20.394   2.863  30.877 -0.0963 -0.0052 -0.2734
22326W        W26726  25.885   3.991  36.158  0.1587 -0.2889 -0.1293
22327W        W26727  14.647   5.962  31.086  0.0608  0.0497 -0.1844
22328W        W26728  22.788   3.746   9.602 -0.0965  0.3386 -0.0313
22329W        W26729  25.835   1.825  29.867 -0.0780 -0.0353 -0.3792
22330W        W26730   3.866   2.022   5.244  0.2425 -0.0808  0.1465
22331W        W26731  18.083   1.815   3.797 -0.1029 -0.0561 -0.2395
22332W        W26732  10.845   5.590   4.134  0.1028 -0.2102 -0.3072
22333W        W26733  24.900   4.878  13.409  0.1964  0.3516  0.1785
22334W        W26734   1.890   3.446   9.263 -0.1629  0.0900  0.1062
22335W        W26735  14.351   6.283  22.649  0.0242 -0.1037  0.2431
22336W        W26736   7.029   2.815  30.329  0.1932  0.0864  0.1928
22337W        W26737  12.478   1.976  13.506  0.1928 -0.1675  0.0589
22338W        W26738  16.028   1.739  23.913 -0.0132 -0.0182 -0.1811
22339W        W26739   9.747   3.111   9.457 -0.2925  0.0513 -0.0281
22340W        W26740   3.811   1.893  31.029  0.1177 -0.0388  0.0214
22341W        W26741  16.870   5.048   4.151  0.1650 -0.0050  0.1483
22342W        W26742  25.188   5.140  33.502  0.1357 -0.0557 -0.0235
22343W        W26743  23.146   5.585  30.183  0.1482 -0.2303  0.1000
22344W        W26744   8.777   2.206   8.688 -0.0862  0.1614 -0.0396
22345W        W26745   9.878   4.367  30.767  0.0232 -0.0692 -0.4042
22346W        W26746   0.672   2.117   7.325  0.0731 -0.1330 -0.0050
22347W        W26747   7.824   1.102  26.072  0.1523  0.2192  0.2302
22348W        W26748   6.946   5.442  33.602  0.0892 -0.3338 -0.1685
22349W        W26749  26.036   3.192  13.093 -0.2569  0.2424  0.0657
22350W        W26750  19.895   4.887   8.242 -0.0177 -0.0490  0.0534
22351W        W26751   0.742   1.696   2.393  0.0154 -0.0922  0.2176
22352W        W26752  25.235   1.556  24.381 -0.2067 -0.0027  0.1670
22353W        W26753  22.672   0.606   9.284  0.0486 -0.0633  0.1066
22354W        W26754  16.792   2.170  31.097  0.0954 -0.0264 -0.0574
22355W        W26755  20.387   4.970  10.800 -0.0573 -0.1183  0.0078
22356W        W26756   6.854   5.427  22.799 -0.3314 -0.0994 -0.1829
22357W        W26757  18.575   6.293   8.813  0.1168 -0.1522 -0.2206
22358W        W26758   4.048   3.190   9.190  0.0341  0.2331 -0.0296
22359W        W26759  18.737   5.848   3.100  0.0466 -0.0171  0.0627
22360W        W26760  19.146   2.887  10.534 -0.0970 -0.0938  0.0797
22361W        W26761   0.251   4.515   7.769 -0.5647  0.2914 -0.3402
22362W        W26762  23.927   0.094   9.205 -0.0218  0.1981 -0.0896
22363W        W26763  25.111   2.713   9.934  0.0038 -0.0059  0.0739
22364W        W26764   6.880   0.625  11.868  0.2089 -0.1952 -0.1476
22365W        W26765   0.884   1.808   8.882 -0.0107 -0.0508  0.1081
22366W        W26766  16.496   0.295  12.056 -0.0692 -0.1484  0.0766
22367W        W26767  22.893   6.003   7.452 -0.1669 -0.2537 -0.0391
22368W        W26768   4.987   2.414  14.999 -0.0413 -0.0933 -0.0572
22369W        W26769  11.835   5.882   4.821 -0.3015  0.0107 -0.4137
22370W        W26770  20.321   4.414  28.259  0.0584  0.1403  0.0694
22371W        W26771  16.738   0.408  34.573  0.1048  0.2237 -0.0534
22372W        W26772   7.789   3.484  26.221  0.0140 -0.3382  0.0518
22373W        W26773   1.828   5.408  29.463 -0.1667  0.2319 -0.1137
22374W        W26774  12.218   3.667  34.116 -0.2356 -0.1965  0.2017
22375W        W26775  19.900   5.219   9.480  0.1892 -0.0678 -0.2143
22376W        W26776   1.993   6.346  25.227  0.1895  0.3703 -0.0805
22377W        W26777   2.169   0.364   9.424 -0.0919  0.1985 -0.1661
22378W        W26778  26.301   0.233  34.520  0.0897  0.0341 -0.2660
22379W        W26779  15.459   3.396  27.217 -0.2338 -0.1265 -0.2589
22380W        W26780  17.379   4.862  22.450 -0.0779  0.0382  0.0936
22381W        W26781   3.379   2.739  14.345 -0.0148  0.2572 -0.2618
22382W        W26782   3.772   6.489  27.537  0.1677  0.1144  0.0638
22383W        W26783  23.373   2.357  12.774  0.0992 -0.0211  0.1202
22384W        W26784   8.045   0.747   9.573  0.1005 -0.0699 -0.0799
22385W        W26785  17.508   2.522  10.106  0.0877  0.0101  0.2656
22386W        W26786   9.611   4.789  31.042 -0.0820 -0.2233 -0.1802
22387W        W26787   7.829   5.588  29.366  0.1639 -0.0816  0.0184
22388W        W26788  12.845   1.087  29.983  0.1688  0.2779  0.0544
22389W        W26789  21.821   0.883  26.021  0.1083 -0.0414  0.4112
22390W        W26790  16.332   1.563   8.769  0.0628  0.0622 -0.0631
22391W        W26791  18.788   1.766  31.092 -0.0961 -0.1782  0.0958
22392W        W26792  22.366   1.762  22.366  0.3070  0.0743  0.2565
22393W        W26793   6.740   6.344  11.638  0.1569  0.5705  0.0227
22394W        W26794   4.794   1.141  35.253 -0.1030 -0.3269  0.0482
22395W        W26795  16.485   0.809  26.248  0.1542  0.0830  0.1133
22396W        W26796  18.531   0.770  22.207 -0.0682  0.1239  0.0293
22397W        W26797   5.106   5.296  13.033 -0.1292  0.1069  0.3619
22398W        W26798  24.604   0.803  27.176 -0.0419  0.0748 -0.0324
22399W        W26799  16.534   2.732  34.836  0.0362  0.1065 -0.3929
22400W        W26800  22.257   2.252   3.618  0.0116 -0.0407 -0.0380
22401W        W26801  25.897   0.502  28.008 -0.1192  0.3548  0.2253
22402W        W26802  10.884   5.186  22.984  0.3771 -0.3952 -0.2033
22403W        W26803  20.871   1.948  24.524 -0.2326 -0.2362 -0.1585
22404W        W26804  14.757   6.049   8.508 -0.0809 -0.3533  0.0131
22405W        W26805   6.495   3.045  33.474 -0.3565  0.0219 -0.3393
22406W        W26806   6.196   3.882   6.668  0.1407  0.0375 -0.1013
22407W        W26807  15.607   4.989  32.203 -0.0756  0.2949  0.0901
22408W        W26808  17.187   1.331  11.453  0.2758  0.1876  0.0550
22409W        W26809  21.460   2.134  13.520 -0.0222  0.1688  0.1809
22410W        W26810  23.544   1.803   2.208 -0.2630 -0.3100  0.1621
22411W        W26811   0.507   5.604  22.507 -0.3408 -0.2922  0.0724
22412W        W26812   1.821   3.490   6.099 -0.1961  0.0135 -0.3922
22413W        W26813  17.044   2.570  32.621 -0.0383  0.1989 -0.1425
22414W        W26814  10.374   0.724   6.129 -0.0199  0.2418  0.1362
22415W        W26815  22.803   0.367  13.815  0.1090  0.1319  0.1065
22416W        W26816  18.816   4.960  11.378  0.1172  0.1165  0.3043
22417W        W26817  21.407   4.594  25.269 -0.4439 -0.3616  0.1155
22418W        W26818  21.405   2.408   2.087  0.1557  0.2059  0.1154
22419W        W26819  21.794   6.558   6.425  0.0465  0.1693  0.1467
22420W        W26820   5.048   5.512  33.782 -0.3068  0.0166 -0.2347
22421W        W26821  25.895   2.846   3.387 -0.4087 -0.0564 -0.0964
22422W        W26822   3.351   6.468  23.004  0.2654 -0.3030  0.2711
22423W        W26823  19.874   0.164  32.067 -0.0567  0.1939  0.1301
22424W        W26824  21.322   2.863  11.205 -0.3602  0.0739  0.1721
22425W        W26825  15.660   4.383  26.720 -0.0561 -0.0565  0.4185
22426W        W26826  18.231   0.738  24.407 -0.0055 -0.2471  0.2627
22427W        W26827  15.737   4.687  25.282  0.0358  0.0001 -0.0935
22428W        W26828  10.185   0.294  36.129 -0.0461 -0.1353  0.3089
22429W        W26829   2.134   4.339  29.348 -0.0580 -0.1434 -0.1431
22430W        W26830   6.701   5.746  29.203 -0.1517  0.0995 -0.0105
22431W        W26831  20.562   1.617  26.025  0.0012  0.4123  0.0941
22432W        W26832  23.156   1.329  12.036 -0.0942  0.0876  0.0579
22433W        W26833   2.925   2.260   1.853 -0.2153  0.4127  0.0990
22434W        W26834   9.060   0.548  14.003  0.1177 -0.0949  0.0022
22435W        W26835   8.588   4.446  31.104 -0.1091  0.3994  0.2552
22436W        W26836   6.253   3.059  22.950 -0.2271  0.0530  0.0770
22437W        W26837   3.251   2.765  13.825 -0.0934 -0.2896  0.0581
22438W        W26838  10.318   3.624  27.051 -0.2740  0.3363 -0.0231
22439W        W26839  22.670   0.998  12.125 -0.2581 -0.0323  0.0137
22440W        W26840  21.805   4.248  12.339  0.1204  0.0902  0.1342
22441W        W26841   2.645   4.921   0.671 -0.1273 -0.2351  0.2129
22442W        W26842  13.554   1.921  33.422  0.2023 -0.2545 -0.1377
22443W        W26843   9.664   4.111  34.827 -0.1784 -0.2358 -0.0155
22444W        W26844   5.661   4.605  23.576 -0.2504 -0.0607 -0.0495
22445W        W26845  18.261   5.145  28.451 -0.2494  0.1967  0.1616
22446W        W26846  25.977   5.770  23.616 -0.2734 -0.2785 -0.0624
22447W        W26847  19.330   6.181  23.183  0.1759 -0.0276 -0.3462
22448W        W26848  13.311   5.523  35.014  0.0315 -0.0850  0.1043
22449W        W26849  10.716   2.907  32.286  0.0314  0.3219 -0.2935
22450W        W26850  10.443   4.163  13.611  0.2948  0.1055 -0.2413
22451W        W26851  10.168   5.893   1.571 -0.1606 -0.1865  0.0685
22452W        W26852   0.059   5.067  32.426  0.2187 -0.0555  0.0071
22453W        W26853  25.761   4.476   8.856 -0.1330  0.0352 -0.0704
22454W        W26854  21.366   0.163  20.790 -0.0895  0.3863  0.0283
22455W        W26855   1.042   2.975   2.531 -0.1059  0.0339  0.0278
22456W        W26856  26.389   4.781  22.478  0.0470 -0.0019 -0.1032
22457W        W26857  18.957   4.016  28.888  0.2995 -0.2479  0.1996
22458W        W26858   9.527   4.530   6.962  0.2944 -0.2006  0.5226
22459W        W26859  24.594   1.913  25.158 -0.0578 -0.0746  0.4081
22460W        W26860  23.360   2.467   8.207 -0.2416  0.1071 -0.3752
22461W        W26861   2.918   1.520   9.852  0.1255  0.2099  0.0879
22462W        W26862  21.375   1.840  24.470  0.0915 -0.0827  0.0369
22463W        W26863  26.076   3.386   6.502 -0.1932  0.2335  0.2083
22464W        W26864  14.237   4.744   3.947  0.1002  0.2571 -0.4528
22465W        W26865  12.727   4.045   5.905  0.2314 -0.2216  0.1790
22466W        W26866  14.462   3.857  22.653  0.0250  0.2011  0.0917
22467W        W26867  12.469   4.869  11.059  0.1747  0.1338  0.2177
22468W        W26868  18.528   4.184  25.239  0.1283 -0.2644 -0.3794
22469W        W26869  15.995   2.168   3.395 -0.1510  0.2763  0.2792
22470W        W26870  23.559   1.679   8.612 -0.0269  0.2874 -0.2322
22471W        W26871  13.957   2.438   1.311  0.2870  0.0249 -0.3436
22472W        W26872  10.234   1.231  12.610 -0.0624  0.2116  0.1874
22473W        W26873   0.357   5.514  30.016 -0.0373  0.1163 -0.0241
22474W        W26874   7.743   4.838   0.464  0.2533  0.1434  0.3937
22475W        W26875   5.399   6.171  26.958  0.0303  0.1236  0.2096
22476W        W26876  25.773   4.074   1.693  0.1947 -0.0027 -0.2557
22477W        W26877   5.744   1.851   4.684 -0.0682  0.4210 -0.1761
22478W        W26878  25.658   6.576  35.735 -0.2202  0.5959 -0.2447
22479W        W26879  18.121   5.453   6.246  0.0091 -0.1566 -0.3521
22480W        W26880   9.601   2.758   9.084 -0.0416  0.0028  0.1538
22481W        W26881  22.038   1.082   8.209  0.1741  0.1940 -0.0308
22482W        W26882  17.212   2.162  28.617  0.0545  0.0128 -0.1324
22483W        W26883  17.565   5.803   9.800 -0.0215 -0.0201  0.1763
22484W        W26884  11.444   3.710  24.698 -0.1367  0.0871 -0.0796
22485W        W26885  24.905   4.622  10.571  0.2371 -0.0209  0.1053
22486W        W26886   9.234   2.646  29.868 -0.0063 -0.0298  0.2371
22487W        W26887  20.068   0.235   9.765  0.1019  0.0597  0.1145
22488W        W26888  23.082   2.365  29.962 -0.0437 -0.2071  0.2720
22489W        W26889  25.538   0.188  14.417  0.0385 -0.2145  0.1603
22490W        W26890   1.080   2.276  30.585 -0.1808 -0.2391  0.0255
22491W        W26891  10.798   5.505  27.016 -0.0902 -0.1567  0.0127
22492W        W26892   8.179   0.685   7.874  0.2034 -0.0351 -0.1705
22493W        W26893  12.582   3.040  11.551  0.0584  0.2603 -0.1676
22494W        W26894  21.967   1.439  11.226  0.1373  0.0638 -0.2681
22495W        W26895   3.421   3.157  34.443  0.0736 -0.0765  0.1518
22496W        W26896   6.085   2.614  31.773  0.2255 -0.2143 -0.0869
22497W        W26897  19.593   2.847  30.529 -0.4170  0.0352 -0.1759
22498W        W26898  10.097   2.490  35.132 -0.0738  0.0400  0.3279
22499W        W26899  17.999   2.343  26.051  0.0707  0.0708 -0.0918
22500W        W26900  18.565   2.032  31.466 -0.0645 -0.0342 -0.2742
22501W        W26901  22.202   2.291  23.942 -0.1437 -0.1411 -0.2066
22502W        W26902   7.061   0.805  15.055 -0.2097 -0.0249 -0.1290
22503W        W26903   2.137   2.393  26.262  0.2286 -0.0483  0.2994
22504W        W26904  12.593   4.948  21.195 -0.0838  0.5108 -0.1107
22505W        W26905   5.622   1.382  25.221 -0.1531 -0.0543  0.2109
22506W        W26906  14.027   6.236  22.044  0.1127 -0.1045  0.1141
22507W        W26907   5.479   5.527  30.287 -0.0253 -0.2701 -0.4081
22508W        W26908  19.544   0.369  12.058 -0.2214  0.0523  0.2457
22509W        W26909   3.872   0.815   1.353  0.0505 -0.0897 -0.2008
22510W        W26910  20.502   1.791  21.936  0.2139 -0.1897  0.2008
22511W        W26911  15.424   1.510  29.593 -0.0081 -0.1737 -0.0322
22512W        W26912  19.044   4.413   1.440 -0.1732  0.1463  0.1748
22513W        W26913  23.303   3.879   5.599 -0.2864 -0.2077  0.0168
22514W        W26914  11.567   1.252  29.067  0.0600 -0.1668 -0.2391
22515W        W26915   5.469   1.532  31.084 -0.2343 -0.3803 -0.1928
22516W        W26916   6.303   6.030  11.530  0.0913  0.1222  0.0724
22517W        W26917   4.902   0.509  29.403  0.2690  0.0194  0.1012
22518W        W26918   9.855   4.563  27.745 -0.0445  0.1050 -0.4029
22519W        W26919   3.335   3.696  26.771  0.0416 -0.0786 -0.0417
22520W        W26920   7.484   2.190  36.125 -0.0560 -0.0141  0.0612
22521W        W26921   6.659   5.499   9.245 -0.1464 -0.0918 -0.2051
22522W        W26922  20.048   5.997   9.609  0.0413 -0.4396 -0.0322
22523W        W26923  15.862   4.986  34.065 -0.0265  0.1078 -0.2090
22524W        W26924   5.268   4.365  29.364  0.0050  0.0294 -0.2295
22525W        W26925  21.050   6.339  34.421  0.0303 -0.2285 -0.1380
22526W        W26926   7.567   1.278  25.384  0.0649  0.0033 -0.3791
22527W        W26927   9.430   0.282  33.069 -0.2517 -0.0331 -0.2593
22528W        W26928  24.155   2.558   3.606  0.1311  0.1333  0.1492
22529W        W26929   8.093   0.220   8.097 -0.1067  0.2351  0.1625
22530W        W26930  15.324   6.090  29.789 -0.2361 -0.1071  0.0721
22531W        W26931  11.519   1.366  25.689 -0.0229 -0.1331 -0.0049
22532W        W26932  26.408   2.106  21.635  0.2477 -0.0921 -0.2285
22533W        W26933  17.447   6.462  34.916  0.0359 -0.1626  0.0518
22534W        W26934  21.425   5.049  12.082 -0.0986 -0.4537 -0.2311
22535W        W26935  25.168   3.376  28.637  0.1534  0.2107  0.0265
22536W        W26936   8.591   3.657   0.386  0.1021 -0.1224  0.3293
22537W        W26937   9.074   2.302  13.339  0.0446 -0.2750 -0.0588
22538W        W26938  14.656   3.733  14.893  0.1463  0.1547 -0.1082
22539W        W26939  13.751   6.395  28.092  0.1115  0.0186 -0.3565
22540W        W26940  18.019   1.975  21.898  0.3033 -0.0603  0.1391
22541W        W26941   3.711   3.718  31.916  0.0472  0.3100  0.0229
22542W        W26942  25.368   5.167  20.459 -0.3978 -0.0412  0.0618
22543W        W26943  20.990   4.894   2.360  0.3471  0.4159  0.1732
22544W        W26944  20.475   4.407   5.286  0.1387  0.0803 -0.0309
22545W        W26945   1.491   2.029  31.936  0.2451 -0.2772  0.0499
22546W        W26946   9.301   3.243  22.287  0.1531 -0.0197  0.0557
22547W        W26947   3.831   6.120  34.072 -0.0998 -0.2964  0.1839
22548W        W26948   0.442   3.289   1.636 -0.0759  0.1633 -0.1039
22549W        W26949  10.617   3.953   2.517 -0.3297 -0.1782 -0.1474
22550W        W26950  21.924   3.069  28.732 -0.1845  0.2738  0.0474
22551W        W26951   2.633   3.965   0.301 -0.4037  0.1449  0.3690
22552W        W26952   0.109   1.910  36.007 -0.3798 -0.0273  0.0094
22553W        W26953   6.962   1.936  10.471 -0.1849 -0.1129  0.0475
22554W        W26954   9.173   3.863  10.800 -0.1868 -0.0119 -0.0945
22555W        W26955  22.616   4.842  14.637 -0.1181  0.0399  0.0205
22556W        W26956   2.922   0.314   2.371 -0.1764  0.2201  0.0869
22557W        W26957   1.023   1.539  20.159  0.0349  0.3624  0.2314
22558W        W26958  10.921   4.083  32.420 -0.0230 -0.1448  0.2667
22559W        W26959  14.784   5.323  25.216 -0.2178 -0.2108  0.0314
22560W        W26960  25.340   3.570  12.721 -0.2276  0.0179 -0.1596
22561W        W26961   8.295   3.527  22.349  0.2785  0.0391  0.2284
22562W        W26962  20.121   1.574  25.162 -0.0087  0.1559  0.3920
22563W        W26963  25.507   2.406   0.449  0.1144 -0.0876  0.0474
22564W        W26964   7.013   4.623  28.454  0.1234 -0.1286 -0.2208
22565W        W26965   1.187   4.387   1.312  0.0252 -0.1750  0.1489
22566W        W26966  18.051   5.565  33.405  0.0016 -0.0695  0.1806
22567W        W26967  22.769   6.472   4.468  0.1601 -0.1790  0.0834
22568W        W26968   6.382   0.961  33.702  0.1187 -0.1460  0.1636
22569W        W26969   9.180   2.051  27.480 -0.0301  0.0333 -0.2810
22570W        W26970  13.333   0.148  20.989 -0.0267  0.0402  0.2675
22571W        W26971   1.598   5.825  34.557  0.2916  0.0463 -0.2286
22572W        W26972  24.077   4.288  13.701  0.0108 -0.0557 -0.1816
22573W        W26973  21.423   5.336   1.758  0.0324  0.0047  0.1470
22574W        W26974  25.929   0.171   6.005  0.3221 -0.0498 -0.0445
22575W        W26975  23.603   2.321   4.905  0.1646 -0.0625  0.6546
22576W        W26976   6.066   0.656  25.360 -0.1143  0.0793  0.0434
22577W        W26977  22.564   1.014  24.426 -0.0921  0.0015 -0.2831
22578W        W26978  11.946   6.337  35.689 -0.2488  0.1686  0.1668
22579W        W26979  20.553   3.515   8.480 -0.2233  0.3558  0.0427
22580W        W26980  18.167   2.260  29.084 -0.1474  0.2090  0.0957
22581W        W26981   0.706   0.258  30.847  0.0807  0.0556 -0.0284
22582W        W26982   3.992   1.759  25.243  0.0761 -0.1647  0.0942
22583W        W26983  19.915   3.732   1.021  0.1130 -0.1510  0.0206
22584W        W26984   1.675   6.116  28.665  0.0135 -0.0236 -0.0904
22585W        W26985   0.999   4.894  20.671 -0.1018  0.0979  0.2026
22586W        W26986  17.922   5.247  21.086  0.2546  0.1251  0.0225
22587W        W26987   9.691   0.394  32.144  0.0051  0.0919 -0.1359
22588W        W26988  25.558   4.353   3.951 -0.1139 -0.4151 -0.0974
22589W        W26989  25.035   4.347  22.841  0.0058  0.0564 -0.2986
22590W        W26990  14.971   1.874   7.294  0.2729 -0.0837  0.4900
22591W        W26991  23.533   1.058  11.807  0.0828  0.0450  0.0430
22592W        W26992  10.042   3.665  33.460  0.0311  0.0724  0.1820
22593W        W26993  24.497   0.704  35.066  0.4612 -0.2093 -0.1666
22594W        W26994  16.345   3.784   4.572 -0.1218  0.1659  0.1938
22595W        W26995  14.674   0.470  26.702  0.1702 -0.0508  0.2459
22596W        W26996  20.012   0.669  32.197  0.3391  0.3075 -0.3884
22597W        W26997   8.583   5.623   8.055  0.2962 -0.0505  0.1499
22598W        W26998  20.941   0.159  22.452  0.0655 -0.0569  0.2800
22599W        W26999  19.172   2.094  31.229 -0.1060 -0.0035 -0.1915
22600W        W27000  13.919   3.474  29.402 -0.1200  0.1267  0.0240
22601W        W27001  12.346   6.281  24.866 -0.2335  0.3574 -0.3026
22602W        W27002  24.239   0.986   3.053  0.0058  0.2372 -0.0679
22603W        W27003  25.644   5.477   2.914  0.1519 -0.0681  0.0117
22604W        W27004  23.508   4.942  27.939  0.1003 -0.0891  0.2291
22605W        W27005  18.995   4.280  35.743 -0.3353 -0.1021 -0.0544
22606W        W27006  13.779   0.430   7.925  0.0028 -0.1287 -0.0954
22607W        W27007   9.077   2.004  22.097 -0.0528 -0.1599  0.2018
22608W        W27008  14.728   4.782   8.377 -0.2130  0.1423  0.3389
22609W        W27009   1.678   4.447  10.281 -0.1981 -0.3509  0.0364
22610W        W27010  10.996   4.814  14.707 -0.1052 -0.2927  0.0874
22611W        W27011   0.599   0.695  23.117 -0.1285 -0.0919  0.1627
22612W        W27012   6.157   3.741   8.486  0.3403 -0.3316 -0.1383
22613W        W27013   8.764   1.810   0.552  0.1423 -0.2246 -0.0697
22614W        W27014  17.971   5.525   3.564  0.2218 -0.0311 -0.0789
22615W        W27015  21.083   1.917  10.229  0.2369  0.3109 -0.1316
22616W        W27016  15.385   0.857   6.960  0.0395 -0.0081  0.2015
22617W        W27017   7.672   5.372   1.156  0.2429  0.0621  0.0802
22618W        W27018   0.850   0.755  22.081 -0.0497 -0.0634 -0.1092
22619W        W27019   4.081   2.737  31.492 -0.1867 -0.1087 -0.0585
22620W        W27020  12.018   3.332  14.223 -0.2107  0.1036 -0.1988
22621W        W27021  24.100   4.697  28.804 -0.0839 -0.0906 -0.2003
22622W        W27022  13.320   6.337   3.121 -0.1156  0.0043  0.2374
22623W        W27023  15.805   2.622   1.295 -0.2108 -0.2848 -0.1683
22624W        W27024  16.793   4.470  32.912  0.2677  0.2012 -0.2641
22625W        W27025  25.045   4.339  35.816  0.1394  0.0065 -0.2919
22626W        W27026   0.023   4.779  35.720 -0.1048  0.2120 -0.0695
22627W        W27027   9.784   3.688  27.629  0.0570  0.0713 -0.0606
22628W        W27028   0.370   4.975   3.056 -0.4677  0.1684  0.2450
22629W        W27029   0.256   0.058  27.113  0.0219  0.0082  0.0145
22630W        W27030  10.641   2.692  35.190 -0.2076 -0.1697  0.2305
22631W        W27031  25.488   0.498  33.823 -0.2915 -0.2138 -0.0222
22632W        W27032  22.615   2.297  23.312  0.1977  0.0795  0.0812
22633W        W27033   1.338   2.107  21.223 -0.0525 -0.1250 -0.1269
22634W        W27034   9.193   1.742  29.844 -0.0546 -0.0787  0.0161
22635W        W27035  23.263   2.099  35.046 -0.0598  0.0177  0.3075
22636W        W27036  18.368   0.749  24.996 -0.0745  0.0920 -0.0234
22637W        W27037  24.343   1.554   3.334 -0.2277 -0.1365  0.1398
22638W        W27038  26.234   4.781   0.535 -0.0192  0.0062  0.0673
22639W        W27039  19.340   2.721   1.977 -0.0766 -0.1014 -0.0980
22640W        W27040  18.900   5.605  13.622 -0.0327 -0.2694 -0.0106
22641W        W27041  13.069   3.491   2.136  0.1428  0.1428  0.2759
22642W        W27042  22.098   6.111  10.309  0.0111 -0.2693 -0.1724
22643W        W27043  17.901   6.470  11.768  0.2218  0.2566  0.3457
22644W        W27044  12.325   5.061  12.764  0.0509 -0.2472  0.0450
22645W        W27045  14.854   3.353  34.799  0.2171 -0.0524 -0.2264
22646W        W27046  19.304   3.363  12.631 -0.1205 -0.0116 -0.2781
22647W        W27047  19.464   5.157  32.853  0.0546 -0.3199  0.1402
22648W        W27048  23.289   4.769  33.646 -0.0481 -0.0810  0.0001
22649W        W27049   8.717   0.539  21.441  0.1636 -0.1862 -0.1258
22650W        W27050  21.081   5.691  22.114  0.0742 -0.1552  0.0502
22651W        W27051  10.161   0.659   9.261 -0.1167 -0.5215 -0.0132
22652W        W27052   0.828   5.870   8.804 -0.0085 -0.0724 -0.1683
22653W        W27053  24.820   4.997  34.624  0.1432 -0.0079 -0.1423
22654W        W27054  23.002   3.409   6.227 -0.0068 -0.1842  0.3133
22655W        W27055   7.078   5.247   2.592  0.2504 -0.2238 -0.1109
22656W        W27056   8.286   4.026   2.861  0.4525  0.1792 -0.0085
22657W        W27057  17.013   5.026  10.314  0.0819 -0.0116 -0.0031
22658W        W27058  11.074   4.453   6.374  0.1943  0.2392 -0.3873
22659W        W27059  19.431   0.199  32.419  0.0420 -0.2254 -0.0853
22660W        W27060  25.596   2.754  13.181  0.2150 -0.2108  0.0825
22661W        W27061  12.464   4.728  30.667 -0.2117  0.3280 -0.0621
22662W        W27062   3.728   6.118  12.504 -0.1187  0.0308  0.0247
22663W        W27063  25.816   4.984  25.156  0.3749  0.1735  0.0793
22664W        W27064   0.113   2.265   0.422 -0.1943 -0.4153 -0.1179
22665W        W27065  18.600   0.659  21.210 -0.0884 -0.0207  0.1443
22666W        W27066  21.955   4.956  24.346  0.2669 -0.0892  0.1600
22667W        W27067   3.331   5.608   5.311 -0.1747  0.1124 -0.2027
22668W        W27068  21.663   6.543  33.053  0.4104  0.0094  0.0336
22669W        W27069   9.882   5.857  30.717 -0.1037  0.2827  0.2002
22670W        W27070  25.692   2.886   0.533 -0.3511  0.0161  0.1308
22671W        W27071   0.903   2.971  29.351  0.0004  0.0190  0.1552
22672W        W27072   7.352   5.192   6.955 -0.1892  0.1825 -0.2015
22673W        W27073  13.694   2.092  24.295 -0.1514  0.3420 -0.1735
22674W        W27074   5.176   5.230   4.298  0.2463 -0.0669 -0.0999
22675W        W27075   4.568   1.743   8.181  0.0585  0.0922 -0.1744
22676W        W27076   2.555   0.026   1.279 -0.1963 -0.1936  0.1002
22677W        W27077  13.489   0.923  35.621  0.2105  0.1584 -0.0065
22678W        W27078   3.652   6.327  21.512 -0.1200 -0.0393 -0.0133
22679W        W27079  16.226   3.087  35.015  0.0800 -0.1889  0.1581
22680W        W27080   4.645   1.516  13.718 -0.1570 -0.0774  0.1545
22681W        W27081  16.726   3.447   8.686 -0.0617 -0.0975 -0.0202
22682W        W27082  17.871   4.797  33.847  0.1229  0.2063  0.0318
22683W        W27083  14.080   4.746  14.125 -0.0681  0.3326  0.0359
22684W        W27084   2.164   1.898  33.925  0.2296 -0.0976 -0.0293
22685W        W27085  25.159   4.984  30.919 -0.1222  0.0888  0.2147
22686W        W27086   8.772   3.954  35.703  0.1304  0.0029 -0.2074
22687W        W27087   6.159   5.661   8.426  0.1373  0.2900  0.1011
22688W        W27088   3.896   5.317   7.052 -0.2330  0.2850 -0.0932
22689W        W27089   8.182   6.117   8.611  0.0448  0.4064  0.1790
22690W        W27090  10.238   2.993  32.393 -0.2454  0.2282 -0.0189
22691W        W27091  12.588   5.242   1.247  0.0639  0.1384  0.1948
22692W        W27092  16.791   3.374   5.381  0.0842 -0.1296  0.3836
22693W        W27093   1.459   2.875  21.668  0.0794  0.0518 -0.1332
22694W        W27094   2.417   6.521   5.161  0.0208  0.0786 -0.0510
22695W        W27095  21.153   0.558  11.916  0.2521  0.2159 -0.0099
22696W        W27096  26.069   4.371  22.543 -0.1105  0.2552  0.3872
22697W        W27097   4.967   2.470  11.684  0.1431 -0.0336 -0.1536
22698W        W27098  14.669   5.645  35.218 -0.0868  0.1891 -0.1602
22699W        W27099   9.447   4.473  25.430 -0.0999 -0.0048 -0.0675
22700W        W27100  14.700   6.004  32.267  0.0300  0.2332 -0.1204
22701W        W27101   5.318   2.854   4.777  0.0669 -0.1397 -0.0884
22702W        W27102  25.006   2.754   3.117 -0.3779  0.1107  0.1911
22703W        W27103  10.918   1.233  25.622  0.0285 -0.0548 -0.2851
22704W        W27104   7.503   3.663   0.842  0.0712 -0.1077 -0.0640
22705W        W27105  14.918   5.828  11.209 -0.1022 -0.1055 -0.0682
22706W        W27106  13.705   2.597   4.517  0.1217  0.1296  0.0721
22707W        W27107  18.085   3.756   7.099  0.0396 -0.0565  0.2805
22708W        W27108  16.647   6.502  27.851  0.0028  0.0742 -0.1464
22709W        W27109  23.991   2.413  32.311 -0.1343 -0.2777  0.0171
22710W        W27110   8.494   1.043  25.813 -0.3114 -0.0703 -0.0379
22711W        W27111  23.624   5.151  35.894 -0.1928  0.0601 -0.1349
22712W        W27112  15.195   0.830  28.786  0.0324  0.2211  0.0729
22713W        W27113  11.912   6.527  11.099 -0.4010  0.1051 -0.3649
22714W        W27114  18.118   5.243  29.671 -0.3294  0.2036 -0.0922
22715W        W27115  20.575   6.005  33.306 -0.3477  0.1234 -0.1456
22716W        W27116  14.250   6.531   8.682  0.0906 -0.0192 -0.3108
22717W        W27117  22.665   2.536  25.427 -0.0491  0.0548 -0.0603
22718W        W27118  11.578   6.319  12.906  0.2845 -0.3003  0.1938
22719W        W27119  24.983   1.959  24.630  0.0896  0.0401 -0.0058
22720W        W27120   0.947   0.999   0.413 -0.0835  0.1708  0.0196
22721W        W27121   2.285   4.764  24.648  0.0449 -0.1068  0.0823
22722W        W27122  22.307   3.564  22.686  0.0983 -0.2049 -0.0893
22723W        W27123  25.511   0.192  27.091  0.2395  0.2361  0.0935
22724W        W27124   3.982   2.069  28.441 -0.1292 -0.0424 -0.1418
22725W        W27125   4.294   6.022  14.782  0.0002 -0.1245 -0.0849
22726W        W27126   8.304   4.571  13.247  0.3123  0.3232 -0.2051
22727W        W27127  14.671   1.015  32.171  0.0433  0.0079 -0.0165
22728W        W27128  24.341   5.259   3.653  0.0987 -0.0320  0.0366
22729W        W27129   9.312   2.554  21.404 -0.1800 -0.1508  0.1052
22730W        W27130  14.241   3.374   0.660  0.1867 -0.0198  0.2538
22731W        W27131   6.972   4.055   9.125 -0.0794  0.0647  0.0014
22732W        W27132   1.115   5.075  32.477  0.0977 -0.2078  0.2187
22733W        W27133  18.594   5.713  26.594  0.2251 -0.0892 -0.0559
22734W        W27134   8.021   1.951  12.774 -0.1257 -0.0436 -0.0325
22735W        W27135  26.217   5.558  28.855 -0.1926  0.1846  0.1725
22736W        W27136  19.008   3.340  10.418  0.2023 -0.1744  0.1408
22737W        W27137   8.174   3.884  23.110  0.0428  0.1708  0.3579
22738W        W27138   4.952   0.275   1.841 -0.2045  0.2541  0.0615
22739W        W27139   8.636   5.567  29.243  0.0380 -0.1083 -0.2540
22740W        W27140  17.956   6.456  32.145 -0.0104 -0.4142  0.0785
22741W        W27141  10.135   2.789  21.455 -0.0167 -0.1730  0.0608
22742W        W27142   2.047   0.817  23.351  0.3497  0.1481  0.0196
22743W        W27143  15.731   4.063   6.358 -0.4696  0.1014  0.1088
22744W        W27144  25.376   3.964  24.667  0.1316  0.2441 -0.0945
22745W        W27145   1.411   5.059   6.644 -0.1457  0.0831 -0.1453
22746W        W27146   2.400   2.677  33.393  0.0889  0.1986  0.1150
22747W        W27147  14.437   2.625  28.002  0.3251 -0.2946  0.0672
22748W        W27148  20.790   0.198  23.386  0.1309 -0.0126 -0.0405
22749W        W27149   2.884   4.574  26.813  0.0913  0.0484  0.0611
22750W        W27150   0.325   2.035   6.728  0.1388  0.2836  0.0182
22751W        W27151  12.267   4.293   4.579  0.0463  0.4209 -0.0127
22752W        W27152   8.821   1.323  35.661  0.3039  0.1652 -0.1056
22753W        W27153  18.808   4.837  26.020  0.2765  0.1081 -0.1411
22754W        W27154  26.315   0.682  22.277  0.1789 -0.3145  0.1502
22755W        W27155  19.371   5.476   2.027 -0.0579  0.0710 -0.1538
22756W        W27156  25.777   2.858  24.393 -0.3398  0.0342  0.1419
22757W        W27157  21.243   5.140   6.560  0.1857 -0.0955  0.2375
22758W        W27158  16.663   2.123   3.363  0.1491  0.2031  0.1353
22759W        W27159  25.872   6.023  21.914 -0.0442  0.0951 -0.0316
22760W        W27160  21.827   5.799  33.611  0.0965 -0.1098  0.0817
22761W        W27161   8.518   5.999   9.451  0.0623 -0.2232 -0.1449
22762W        W27162  16.121   6.460  12.203  0.0308 -0.2556  0.2511
22763W        W27163   1.389   3.344  22.386  0.0383  0.1039  0.1789
22764W        W27164   2.144   1.168   8.222  0.1636 -0.3725 -0.0981
22765W        W27165   3.391   2.809   6.437  0.4941 -0.0064  0.0149
22766W        W27166  10.770   0.776  30.495 -0.1231 -0.0634  0.0009
22767W        W27167   0.934   4.181  22.679 -0.1676 -0.3291 -0.2180
22768W        W27168  16.376   0.049  34.425  0.2789 -0.0042  0.4941
22769W        W27169   9.280   6.027   1.280  0.0811  0.1338  0.2409
22770W        W27170   7.359   4.145  34.538 -0.3962  0.0289  0.1032
22771W        W27171  16.855   3.005  32.700  0.1748  0.0525  0.0734
22772W        W27172  19.963   0.543  25.513  0.0719  0.0480  0.0370
22773W        W27173   6.502   3.320   0.574 -0.2959 -0.0240  0.1172
22774W        W27174   0.188   5.311  14.924  0.1795  0.0659  0.0300
22775W        W27175  19.603   1.661  35.393 -0.3264 -0.2247  0.1855
22776W        W27176  18.163   2.720  27.883  0.0585  0.1529  0.0978
22777W        W27177   5.540   2.301  20.070 -0.1063 -0.1765  0.0175
22778W        W27178   9.437   6.141  25.202  0.2764 -0.0517 -0.0260
22779W        W27179   7.081   1.017   8.794  0.1229  0.3350  0.0243
22780W        W27180   5.348   1.984  14.162  0.0518 -0.4096 -0.0873
22781W        W27181  21.659   1.257  32.531 -0.2572 -0.0982  0.0626
22782W        W27182   0.449   3.877   4.215  0.1524 -0.1342  0.2061
22783W        W27183   2.665   6.015   5.198  0.1577  0.1691  0.2689
22784W        W27184  13.328   4.268   4.409  0.1994 -0.2248 -0.0665
22785W        W27185   8.462   5.405  32.580  0.0791 -0.1666  0.5139
22786W        W27186   8.766   5.899  21.726 -0.2115  0.2495 -0.1895
22787W        W27187  16.557   6.076  28.307 -0.2337  0.2262 -0.0485
22788W        W27188  19.877   5.044  32.288  0.5552 -0.1445 -0.0014
22789W        W27189  15.294   3.047   0.288 -0.2384  0.3753  0.0786
22790W        W27190   2.064   4.033  21.877  0.1969 -0.1121 -0.0053
22791W        W27191  22.483   0.135  14.109  0.1412 -0.1114 -0.0832
22792W        W27192   9.552   5.090   9.811  0.0824 -0.1264 -0.1897
22793W        W27193   4.368   4.038  28.262  0.0629  0.0816  0.0776
22794W        W27194   8.377   1.714   0.820  0.0223 -0.0210  0.2810
22795W        W27195   5.094   2.801   9.719 -0.0975  0.1535  0.0609
22796W        W27196  24.443   2.701  28.239  0.1334  0.0756 -0.0314
22797W        W27197  23.841   0.039   7.217 -0.0845 -0.2180 -0.4130
22798W        W27198   5.173   1.672  14.537  0.0640 -0.0527  0.1987
22799W        W27199  19.843   0.368   5.790  0.0859  0.1575 -0.0462
22800W        W27200   5.514   1.945  36.173 -0.5852 -0.1154  0.2242
22801W        W27201  24.196   1.311  12.301  0.0942  0.0652 -0.1361
22802W        W27202  15.080   1.516   2.040  0.1393 -0.1760 -0.3988
22803W        W27203   4.273   1.890  12.046 -0.1609  0.1776  0.3421
22804W        W27204  13.863   3.710  27.935  0.1769 -0.1679  0.3078
22805W        W27205  18.508   0.719   9.057 -0.2793 -0.0173  0.0121
22806W        W27206   5.201   1.955   1.510  0.0140  0.0320 -0.2035
22807W        W27207  16.386   4.585  35.258  0.0698 -0.0784  0.1053
22808W        W27208  17.972   5.581  35.818  0.0998 -0.3313  0.2928
22809W        W27209   2.567   2.212  32.278 -0.0236  0.3017  0.4586
22810W        W27210   6.306   3.570  26.664  0.0248  0.0103  0.1836
22811W        W27211  22.752   3.227  23.370 -0.1137 -0.3241 -0.1680
22812W        W27212  11.563   1.767  27.723  0.0037  0.0236  0.1337
22813W        W27213  18.124   2.483  10.624 -0.0846 -0.0783 -0.2153
22814W        W27214   1.339   5.554  22.088  0.0736 -0.0596  0.0994
22815W        W27215   6.436   4.967   4.171 -0.0782 -0.1047 -0.0015
22816W        W27216   3.659   1.280   1.229 -0.1274 -0.1421 -0.0413
22817W        W27217  21.599   0.122  13.002 -0.0451 -0.1136 -0.1629
22818W        W27218  16.018   0.644   8.579 -0.2731 -0.1446  0.2307
22819W        W27219   4.932   0.667  32.320 -0.1900 -0.0931 -0.1292
22820W        W27220  17.636   2.983  29.484 -0.0057  0.1187  0.4716
22821W        W27221  17.028   4.155  29.498  0.2489 -0.2309  0.1339
22822W        W27222  16.861   2.406   4.428  0.2971  0.0465  0.2409
22823W        W27223  25.423   2.359  29.042 -0.0410 -0.0087 -0.0270
22824W        W27224  13.463   5.077  34.797 -0.3513  0.3988 -0.0362
22825W        W27225  18.758   6.257  25.905  0.0302 -0.1047  0.1460
22826W        W27226  20.152   4.818  28.964 -0.0964 -0.0926  0.0725
22827W        W27227  19.024   0.664  14.159  0.0559 -0.0204 -0.1248
22828W        W27228  17.522   1.461  28.873 -0.0124  0.0642 -0.1895
22829W        W27229  16.822   2.433  35.805  0.1364 -0.0989  0.1316
22830W        W27230  25.443   3.864  29.808  0.3719  0.0923  0.0363
22831W        W27231  15.525   1.487  33.680  0.0022 -0.3071 -0.4538
22832W        W27232  16.798   6.013   3.349  0.1607 -0.2517 -0.1881
22833W        W27233   3.764   5.084  11.471  0.2111 -0.3085 -0.3066
22834W        W27234  22.928   0.103   6.692 -0.0310 -0.1979  0.1152
22835W        W27235  21.858   3.337  22.953 -0.0229  0.1630 -0.2613
22836W        W27236  11.062   4.608   1.609 -0.1023 -0.0075  0.5735
22837W        W27237  10.115   2.439  24.078  0.1862 -0.0614 -0.0656
22838W        W27238  13.779   3.740   5.338 -0.1083  0.3220 -0.0139
22839W        W27239   2.560   6.016  22.722  0.1452 -0.1238  0.0529
22840W        W27240  25.956   1.157  23.751  0.0373 -0.0778 -0.1085
22841W        W27241  15.851   2.248  36.000 -0.0515  0.0003  0.0753
22842W        W27242   3.331   1.382   0.208  0.2530  0.0972  0.2528
22843W        W27243  18.841   2.963  11.752 -0.0984  0.0569  0.1851
22844W        W27244   9.770   2.520  34.187  0.1475 -0.1417 -0.3954
22845W        W27245  18.651   0.562  24.665 -0.0038  0.2150 -0.0930
22846W        W27246  10.475   0.842   6.674  0.0781 -0.1400 -0.1620
22847W        W27247  12.195   1.710  22.886 -0.1445  0.0402  0.1069
22848W        W27248  18.236   5.914  14.135 -0.0481 -0.0233  0.0686
22849W        W27249  15.801   3.991  31.991 -0.0340  0.0949  0.1011
22850W        W27250   9.967   4.683  35.431  0.1195 -0.0013  0.0719
22851W        W27251  24.053   5.797   6.648 -0.0154 -0.2113 -0.1346
22852W        W27252   4.991   4.626  22.692  0.2169  0.1154 -0.0505
22853W        W27253  21.432   2.284  23.769 -0.2036  0.1832  0.1184
22854W        W27254  19.086   1.403   0.721  0.1816  0.0264 -0.0320
22855W        W27255  18.918   6.593  12.611  0.2319 -0.1382 -0.0899
22856W        W27256   0.736   4.270   4.562  0.0006 -0.1398 -0.0926
22857W        W27257  13.968   2.495  24.451  0.2059  0.0097 -0.1274
22858W        W27258   6.623   0.326  14.695 -0.2506  0.2451  0.1804
22859W        W27259  10.463   0.010  26.195 -0.2427 -0.0366  0.0488
22860W        W27260  20.349   2.597   5.378  0.2789  0.3275  0.0823
22861W        W27261  16.137   3.971  35.994 -0.0119 -0.2431  0.2576
22862W        W27262  24.434   4.465  33.520 -0.1592  0.0491 -0.0621
22863W        W27263   0.852   1.701   7.201 -0.1546 -0.2326  0.1256
22864W        W27264  21.730   2.478   5.192  0.0721 -0.0994 -0.1394
22865W        W27265  16.176   5.541   4.890  0.0882  0.1763  0.0070
22866W        W27266  20.098   2.469  32.579 -0.3654 -0.0065 -0.1216
22867W        W27267   3.717   4.216  34.997 -0.2785 -0.0113 -0.1224
22868W        W27268  23.915   1.312  15.276 -0.0308 -0.0888  0.0937
22869W        W27269  19.447   0.028  23.366  0.1600  0.3336 -0.1571
22870W        W27270   1.616   1.578   2.568 -0.0768  0.0752  0.1070
22871W        W27271   2.077   1.232  27.695  0.0555  0.2795 -0.1151
22872W        W27272  25.801   3.033  13.945  0.0794 -0.0124 -0.1211
22873W        W27273   5.927   0.372  24.949  0.0728  0.0672  0.1181
22874W        W27274  24.300   6.063  13.444  0.1206 -0.0641 -0.0890
22875W        W27275   3.651   1.418   8.074 -0.1502 -0.2035 -0.0235
22876W        W27276  11.863   2.403  26.478  0.1534 -0.0411 -0.3848
22877W        W27277  15.344   5.946  30.378  0.0050  0.1580  0.2732
22878W        W27278  24.271   4.347  31.507  0.1451 -0.2016  0.0452
22879W        W27279  24.348   5.259  20.288 -0.2029  0.1196 -0.4595
22880W        W27280  17.796   0.662  23.347 -0.2768  0.0029 -0.0730
22881W        W27281  18.772   3.712  35.651 -0.0540 -0.1128  0.1101
22882W        W27282  12.719   6.552  11.915 -0.3725 -0.1116  0.0060
22883W        W27283  15.270   6.075  32.453  0.1744 -0.0134  0.0398
22884W        W27284  20.936   4.287  31.465 -0.0505  0.1523 -0.3236
22885W        W27285   5.953   1.061   0.520 -0.0356  0.2556  0.1968
22886W        W27286   4.003   4.126  29.605  0.0880 -0.1984 -0.2337
22887W        W27287  25.246   4.356  26.816  0.0062 -0.0685  0.4373
22888W        W27288   0.392   6.258  12.013 -0.1963 -0.1348 -0.1332
22889W        W27289   4.210   4.363  32.172  0.1276 -0.1546  0.2834
22890W        W27290  11.032   3.708   1.506  0.0382  0.2756  0.1076
22891W        W27291   1.325   5.067  14.284 -0.2405 -0.0400  0.0422
22892W        W27292   0.310   4.981  28.549  0.3914 -0.2907  0.2018
22893W        W27293  10.848   6.607  23.810 -0.3254 -0.1357 -0.1905
22894W        W27294  16.067   2.684   6.975  0.1197  0.0065 -0.1548
22895W        W27295  11.656   4.714  26.440 -0.0718  0.1814 -0.0684
22896W        W27296   2.230   0.244   1.812  0.1624 -0.1526  0.0991
22897W        W27297  23.188   1.340   4.190 -0.1765 -0.2238 -0.1375
22898W        W27298   8.889   5.030  21.959 -0.3129  0.0649 -0.0318
22899W        W27299  11.209   0.148  13.137 -0.0096  0.1694  0.0754
22900W        W27300  14.979   1.571   6.678  0.0585  0.1478 -0.0103
22901W        W27301  18.575   4.845  12.972 -0.0372  0.0092  0.1326
22902W        W27302  24.975   0.504  24.028  0.1928  0.2608  0.0615
22903W        W27303   2.742   1.127   1.379 -0.0010  0.0427  0.0165
22904W        W27304  16.312   4.076  15.314 -0.2896  0.3589 -0.3264
22905W        W27305  21.258   6.460   6.543  0.3561 -0.0244  0.2167
22906W        W27306  18.833   1.426  23.484  0.2405  0.0220  0.0011
22907W        W27307  21.235   1.124  27.830  0.1065  0.1293 -0.1928
22908W        W27308  15.896   3.253  24.953  0.1150  0.1904 -0.0269
22909W        W27309   8.731   6.031  21.247 -0.1952  0.1918 -0.1753
22910W        W27310   3.181   4.959  26.638 -0.3130 -0.0856  0.1117
22911W        W27311  19.304   0.368   7.612  0.0580  0.0841 -0.1163
22912W        W27312   9.426   4.697  27.542  0.1764  0.0989  0.0588
22913W        W27313  23.742   6.216   5.488  0.0068  0.0074 -0.2264
22914W        W27314  20.001   2.468  34.359 -0.1983  0.0164  0.0319
22915W        W27315  12.762   1.568  27.078 -0.0266  0.1031 -0.0860
22916W        W27316  19.102   5.722  12.685  0.2018  0.0346  0.1000
22917W        W27317   6.963   2.259  12.669 -0.2368 -0.1041  0.1372
22918W        W27318  19.620   1.108   6.950  0.0160  0.2003 -0.0709
22919W        W27319   9.693   0.587  11.067 -0.1540  0.1526  0.3061
22920W        W27320  12.260   6.059  22.559  0.1829 -0.0574 -0.0552
22921W        W27321   0.695   2.029   5.012  0.0141  0.1619  0.0520
22922W        W27322   5.138   1.682  13.735 -0.1237 -0.1617  0.1037
22923W        W27323  12.413   5.788  28.322 -0.1661  0.0690  0.0988
22924W        W27324  16.784   5.407  26.542  0.1148  0.0376  0.0202
22925W        W27325  25.367   0.592  14.194 -0.2952 -0.1088 -0.4283
22926W        W27326  10.544   0.766   4.248  0.0832 -0.0505 -0.1218
22927W        W27327   9.060   2.426  32.213 -0.0194 -0.0101 -0.1291
22928W        W27328  23.144   4.944  20.787  0.2433 -0.1963  0.0785
22929W        W27329   5.815   5.547  35.897  0.1270  0.0493  0.2291
22930W        W27330   5.727   2.781   6.526 -0.1919  0.2143  0.3167
22931W        W27331   1.198   6.434  32.702  0.0464 -0.0084 -0.1961
22932W        W27332  16.357   4.854   3.421  0.1206 -0.0976  0.3937
22933W        W27333  17.703   5.246  12.459  0.3154 -0.2872  0.2755
22934W        W27334  10.023   6.067   8.254  0.1129 -0.1055  0.0727
22935W        W27335   8.603   2.081  10.972  0.2861  0.0606 -0.1986
22936W        W27336  13.088   4.339  35.712 -0.0352  0.1629 -0.2723
22937W        W27337  22.069   3.472   1.589  0.2423  0.2298 -0.2478
22938W        W27338  24.153   5.123  25.276 -0.2581 -0.0091 -0.1220
22939W        W27339   7.872   5.090  29.534  0.1620 -0.0205 -0.1764
22940W        W27340  20.960   0.499   2.033  0.2370  0.1018 -0.0022
22941W        W27341   7.242   3.697   7.133  0.0275 -0.1015  0.2190
22942W        W27342  11.651   6.356  23.277  0.1301 -0.0330  0.0594
22943W        W27343  13.783   3.583  25.947  0.1507 -0.0390  0.0815
22944W        W27344  11.561   5.924  31.807 -0.0121 -0.0554 -0.0979
22945W        W27345  14.472   0.885   5.813 -0.0080 -0.1173  0.1430
22946W        W27346   0.016   6.146  35.724  0.0753 -0.2094  0.0995
22947W        W27347  21.005   5.478  34.924  0.2614  0.1773  0.2814
22948W        W27348  20.603   5.544  10.882  0.0583 -0.0506 -0.0680
22949W        W27349   4.769   4.740  12.397  0.0445 -0.0801 -0.0689
22950W        W27350  18.496   1.412  32.653  0.0715 -0.2875 -0.0017
22951W        W27351  25.978   0.810   5.411  0.0504  0.2821  0.1552
22952W        W27352  24.832   1.067  35.145 -0.2522  0.3393 -0.1572
22953W        W27353   6.559   1.444   8.353 -0.1069  0.0547  0.1331
22954W        W27354  13.809   1.463  31.814 -0.3890 -0.0891  0.2398
22955W        W27355  16.647   3.432  13.071  0.3663 -0.1140  0.0066
22956W        W27356   4.675   1.913  33.866 -0.1125  0.0890  0.1890
22957W        W27357  14.150   2.469   3.679 -0.1610 -0.1473  0.5012
22958W        W27358  10.702   4.317  12.315 -0.0227  0.0385  0.0742
22959W        W27359  17.087   2.346  26.187 -0.1853  0.0033 -0.1447
22960W        W27360  21.800   2.052  30.747 -0.0034  0.2525 -0.0647
22961W        W27361  11.738   3.799  31.960  0.2202 -0.0867 -0.0530
22962W        W27362  24.089   2.712  11.800  0.4255  0.3111 -0.1323
22963W        W27363  12.688   0.844   0.858  0.0303  0.0764 -0.2602
22964W        W27364  14.291   4.958   1.082  0.3049 -0.5164  0.1058
22965W        W27365  17.315   0.967  20.349 -0.0350 -0.1190 -0.4184
22966W        W27366  18.738   2.660  27.132  0.1337  0.0101 -0.1344
22967W        W27367  26.044   5.110  33.789  0.0124  0.0792 -0.1039
22968W        W27368   4.476   2.756   8.848 -0.0623  0.3491  0.2496
22969W        W27369  20.752   5.741  31.801 -0.2391 -0.0506 -0.0615
22970W        W27370  14.847   5.233  13.981  0.2491  0.1476 -0.0352
22971W        W27371  25.751   1.413  14.536  0.0755  0.0798  0.2472
22972W        W27372   5.378   6.143  23.946 -0.0867  0.2425  0.2478
22973W        W27373  16.534   3.438  14.440 -0.0931 -0.2567 -0.1690
22974W        W27374  20.185   4.262  21.163  0.0435  0.1187 -0.1637
22975W        W27375  21.451   6.579  34.292  0.2430 -0.0652 -0.2749
22976W        W27376   4.707   2.013  11.330 -0.1561 -0.1328  0.0039
22977W        W27377   8.347   5.520   9.225 -0.2960 -0.1629  0.0537
22978W        W27378  19.696   2.488  35.888 -0.1296  0.1423  0.0363
22979W        W27379  14.321   1.393   1.038 -0.0596 -0.2213  0.0484
22980W        W27380  25.303   3.014  21.797  0.2230  0.0995  0.2569
22981W        W27381   3.299   0.662   2.041 -0.0109 -0.1923  0.0232
22982W        W27382  17.406   5.258  21.240 -0.1572 -0.4303  0.2297
22983W        W27383  13.780   3.150  32.790 -0.3386 -0.1961 -0.0280
22984W        W27384  15.121   3.099  35.729  0.1895  0.0100 -0.2288
22985W        W27385  24.510   0.748   9.222  0.1042 -0.1899  0.1429
22986W        W27386  25.010   2.957  11.463 -0.0073  0.0060 -0.0968
22987W        W27387  11.253   2.512  25.373 -0.0564  0.1257 -0.1189
22988W        W27388  19.461   0.349   0.017  0.0380  0.0428 -0.2107
22989W        W27389  13.898   4.309   8.138  0.1056 -0.1333 -0.6761
22990W        W27390  13.980   2.902  26.300 -0.0584 -0.0952 -0.2029
22991W        W27391   5.033   6.279   1.142 -0.0240 -0.2028  0.1181
22992W        W27392  11.855   6.549  15.105 -0.0079 -0.1881 -0.0196
22993W        W27393   3.335   5.469  35.640  0.1042  0.0706  0.3895
22994W        W27394   4.220   3.281  10.702 -0.1829 -0.0996  0.1216
22995W        W27395   3.233   2.727   1.681  0.0697 -0.0023  0.1764
22996W        W27396  10.297   1.844  22.505 -0.2821 -0.4233 -0.1476
22997W        W27397  24.196   3.831  31.229 -0.0127 -0.0186  0.0429
22998W        W27398  14.590   2.054   3.394 -0.1535  0.0682  0.0441
22999W        W27399  14.041   1.198  34.729  0.3570  0.0116 -0.4266
23000W        W27400  20.076   3.614  12.724 -0.3991  0.0049 -0.0364
23001W        W27401   4.534   0.790   5.037  0.1216  0.0539 -0.2346
23002W        W27402  25.264   1.113  25.154 -0.0316  0.0717 -0.1108
23003W        W27403   6.293   1.670  12.679 -0.0660  0.0245 -0.0031
23004W        W27404  19.824   5.194  26.115 -0.1582 -0.0595  0.0927
23005W        W27405  24.780   0.569  11.071  0.2529 -0.0024  0.0342
23006W        W27406   9.003   4.606   4.965  0.0231 -0.0259  0.1355
23007W        W27407  24.981   1.397  12.187  0.0387 -0.0361  0.1020
23008W        W27408  23.596   4.289  35.778 -0.0607 -0.0079  0.2919
23009W        W27409  21.534   2.197  33.884  0.1735  0.0442  0.2998
23010W        W27410   0.508   6.224   8.702 -0.1979  0.0170  0.1208
23011W        W27411  21.462   1.900   0.384  0.1616  0.0825 -0.1470
23012W        W27412  19.753   1.016  31.593 -0.0681 -0.0139 -0.0585
23013W        W27413   6.535   0.881   7.319 -0.0143 -0.1112 -0.1341
23014W        W27414   5.078   4.021  10.193 -0.4773 -0.1648 -0.1303
23015W        W27415   6.707   0.006   4.949  0.3948 -0.2194  0.2129
23016W        W27416   3.900   3.559   7.371  0.0779 -0.0492 -0.0948
23017W        W27417  22.844   3.380   8.294 -0.0911 -0.0439  0.0533
23018W        W27418   3.291   3.331   9.754  0.0900  0.1499  0.0003
23019W        W27419  19.042   0.487  24.354 -0.0454 -0.1808  0.0900
23020W        W27420  11.467   4.557   9.695 -0.0695 -0.1158 -0.3000
23021W        W27421  22.288   3.311  21.766  0.1645  0.2174  0.1328
23022W        W27422   0.514   6.270  14.881 -0.0829 -0.1040  0.0961
23023W        W27423  17.290   6.557  29.414  0.0418 -0.0171 -0.2643
23024W        W27424   6.740   5.910  13.904 -0.2402  0.0655  0.0189
23025W        W27425  10.280   5.064   1.296  0.2266  0.0447  0.1704
23026W        W27426  12.123   2.974  30.550  0.0513 -0.3652  0.0476
23027W        W27427  11.626   5.956  13.990 -0.0994 -0.0008 -0.1679
23028W        W27428   8.656   2.538  34.634 -0.2088  0.1477 -0.4051
23029W        W27429  24.718   0.096   2.162  0.2702 -0.4060  0.3554
23030W        W27430  19.739   4.426  29.168 -0.0320 -0.1427 -0.1156
23031W        W27431  10.467   5.732  14.063 -0.0785  0.1067  0.1860
23032W        W27432  23.519   4.014   8.677 -0.0312  0.2027 -0.1140
23033W        W27433  14.701   1.423   7.098 -0.0539 -0.2855  0.3036
23034W        W27434  20.997   2.955   4.851  0.0883 -0.3146  0.1051
23035W        W27435  10.119   4.015  36.155 -0.1446 -0.2574 -0.3141
23036W        W27436   5.647   4.030   4.153 -0.1525  0.4890  0.0670
23037W        W27437   0.118   2.434  13.719 -0.0425  0.0103  0.1771
23038W        W27438   3.999   3.414  35.294 -0.2949  0.2251  0.2232
23039W        W27439  23.128   3.053   7.584  0.0153  0.0641 -0.3394
23040W        W27440  17.063   3.839   0.408  0.1680 -0.0950 -0.0985
23041W        W27441  25.840   1.918  27.078 -0.0047  0.2124  0.0324
23042W        W27442   7.772   1.767   4.437  0.0294 -0.1623 -0.0855
23043W        W27443  21.816   5.052  29.665 -0.0023 -0.2221  0.1536
23044W        W27444   6.266   2.302  28.190  0.3820 -0.1542 -0.2476
23045W        W27445   7.367   0.057  22.931 -0.3455  0.2560  0.1930
23046W        W27446  14.814   6.109   1.990 -0.0960  0.1780  0.0695
23047W        W27447  15.942   3.519   4.384  0.2762  0.0887  0.3371
23048W        W27448  25.484   0.659  31.852 -0.0468 -0.2430 -0.1625
23049W        W27449  14.443   1.948  26.369  0.1065 -0.2335 -0.1194
23050W        W27450   6.744   3.958  24.690  0.1092 -0.0056 -0.2848
23051W        W27451   1.633   2.766  10.482 -0.2710 -0.1841  0.0826
23052W        W27452  17.488   2.194  28.162  0.3583  0.2713 -0.3711
23053W        W27453  15.744   1.706  32.685  0.0095 -0.1720  0.0599
23054W        W27454  11.807   2.729  26.138 -0.1371 -0.0933  0.1252
23055W        W27455  20.016   1.366   0.338 -0.0499 -0.0993 -0.2397
23056W        W27456  17.513   4.156  33.355  0.1317  0.2600  0.0401
23057W        W27457   7.423   3.467  30.808 -0.3701  0.0918 -0.0076
23058W        W27458   9.505   4.140   4.477  0.3042 -0.0899 -0.2327
23059W        W27459   2.180   6.562   7.356 -0.1063 -0.3370 -0.0104
23060W        W27460  12.979   0.206  26.642  0.1253  0.0539  0.1887
23061W        W27461  10.217   1.211  35.022 -0.1444  0.1650  0.0158
23062W        W27462   0.545   3.831  23.202 -0.1157  0.1074  0.4262
23063W        W27463   9.981   3.713   5.220 -0.0273 -0.1119 -0.1879
23064W        W27464  24.045   3.515  14.930 -0.0732 -0.1193  0.2680
23065W        W27465  23.026   4.713  27.867  0.1182 -0.0178  0.4282
23066W        W27466  11.318   1.726  31.947 -0.0767  0.0081 -0.1313
23067W        W27467  14.078   1.750  23.826  0.0259 -0.1369  0.0926
23068W        W27468   7.734   0.472  24.221 -0.0773 -0.0396  0.0186
23069W        W27469  17.674   1.433   2.546  0.1153 -0.2792 -0.0550
23070W        W27470  19.273   2.035  25.495  0.2160  0.2215  0.0358
23071W        W27471   4.778   2.602  26.325 -0.0561 -0.0906 -0.0674
23072W        W27472  24.175   1.939  35.093 -0.2810  0.0156  0.1432
23073W        W27473  23.267   5.402  21.172 -0.3396 -0.0223 -0.0994
23074W        W27474  22.267   1.520  21.619 -0.0047 -0.2489 -0.1454
23075W        W27475  19.687   1.260  25.716  0.3208 -0.1727 -0.0308
23076W        W27476  17.150   4.271  16.003  0.0939  0.0719 -0.2124
23077W        W27477  15.969   4.058   2.863 -0.1370 -0.0092  0.1725
23078W        W27478   8.992   6.034   6.587  0.0283 -0.4126 -0.2243
23079W        W27479  15.537   3.562  15.625  0.0754  0.1372  0.2202
23080W        W27480   9.209   3.589  14.846  0.1578  0.1870 -0.2199
23081W        W27481  14.773   5.180  14.555  0.1178  0.0248 -0.1870
23082W        W27482   7.558   3.336  33.120 -0.1051  0.0167 -0.0139
23083W        W27483  25.070   6.172  33.610  0.0120 -0.3748 -0.1370
23084W        W27484  15.589   5.284  14.830 -0.0163 -0.0617 -0.1611
23085W        W27485  12.367   0.951  26.010  0.1113  0.0416  0.1741
23086W        W27486  10.663   4.996   9.465  0.0973  0.0086 -0.0637
23087W        W27487  16.333   3.730  14.843  0.0823 -0.2416  0.0838
23088W        W27488   3.858   1.461  12.841 -0.0313 -0.1674 -0.1900
23089W        W27489   9.718   0.092  34.682 -0.3159  0.1039  0.0561
23090W        W27490   4.988   1.066   0.771 -0.0901 -0.1123  0.0772
23091W        W27491  14.450   4.616  29.569  0.2341 -0.0104 -0.1488
23092W        W27492   2.437   0.564   6.612  0.1369  0.0548 -0.2108
23093W        W27493  17.206   2.828  24.857  0.0145 -0.0304 -0.0068
23094W        W27494  16.684   3.309  10.937  0.3025  0.1310  0.1551
23095W        W27495  25.349   0.774  34.362  0.2058 -0.0026 -0.0847
23096W        W27496  17.493   0.071   4.298 -0.2413  0.1909  0.0418
23097W        W27497  10.039   2.633   7.946 -0.1346  0.2187  0.0161
23098W        W27498   1.805   5.774  35.018 -0.0491  0.2442 -0.2485
23099W        W27499   3.993   2.679  27.101  0.1016  0.0025  0.0796
23100W        W27500  24.289   1.073  35.360  0.0428 -0.0301 -0.0273
23101W        W27501   0.646   3.978  27.714  0.3004  0.1817 -0.3338
23102W        W27502   2.521   1.329   0.705 -0.0730  0.4178  0.2766
23103W        W27503  25.615   3.035  21.183 -0.0987 -0.2394  0.1987
23104W        W27504   0.921   3.502  21.067  0.2793 -0.0423 -0.0083
23105W        W27505  11.977   3.597  35.053  0.0207 -0.1381  0.0127
23106W        W27506  19.620   2.856   0.134 -0.0935 -0.0361  0.3260
23107W        W27507   7.477   0.870  24.324 -0.1359  0.2075 -0.0411
23108W        W27508   6.529   0.666  30.371  0.0271 -0.0890  0.1446
23109W        W27509  24.078   3.221   9.089 -0.0985 -0.2069  0.0255
23110W        W27510   9.526   5.142   6.763  0.0753 -0.1642 -0.3457
23111W        W27511  12.629   3.119  24.656  0.0842  0.2491  0.0779
23112W        W27512  10.756   4.165  35.808 -0.0016  0.0818 -0.1692
23113W        W27513  16.722   0.228  32.310  0.1285 -0.0074  0.1911
23114W        W27514   8.873   6.412  27.715 -0.2752  0.0688  0.0595
23115W        W27515   1.584   5.671   7.961  0.0465 -0.0510 -0.0455
23116W        W27516  15.449   1.390   6.768  0.2276 -0.2368 -0.0681
23117W        W27517   3.071   5.651  14.470  0.1586  0.0093  0.0920
23118W        W27518  24.647   4.224  14.456  0.1300  0.0289  0.0143
23119W        W27519  19.929   3.466  33.442  0.0400 -0.2357 -0.0073
23120W        W27520  14.764   2.928  12.660 -0.1005 -0.1268 -0.1278
23121W        W27521  24.859   2.116   6.010  0.2238  0.0160  0.3074
23122W        W27522  15.296   5.518  23.885  0.2680  0.2635  0.0861
23123W        W27523  12.630   4.605   7.535 -0.0466 -0.1213 -0.1314
23124W        W27524   3.958   4.258   2.027  0.1358  0.0808 -0.0445
23125W        W27525   5.843   3.925  25.028 -0.3130 -0.1522  0.0239
23126W        W27526   9.145   6.096  34.272 -0.2572 -0.1656 -0.0038
23127W        W27527   1.503   2.722   1.825 -0.0110 -0.0242  0.2624
23128W        W27528  17.314   1.214  26.320  0.1893 -0.0474  0.1490
23129W        W27529  13.993   1.076   3.525 -0.1663 -0.0793  0.2281
23130W        W27530   8.949   0.750   8.163 -0.1070  0.0053 -0.0387
23131W        W27531   4.591   6.382  29.763  0.1326 -0.0465  0.2304
23132W        W27532   9.224   4.106  29.176  0.1775  0.0144  0.0157
23133W        W27533  16.166   0.499   3.509  0.0660  0.1125  0.2013
23134W        W27534  23.151   4.047  23.398  0.1244 -0.0126 -0.1909
23135W        W27535  22.371   1.580   2.397 -0.0066  0.1959  0.0014
23136W        W27536  20.467   5.322  29.883  0.3878 -0.3210  0.0307
23137W        W27537  20.779   1.676  20.194 -0.0941 -0.4039  0.2831
23138W        W27538  24.260   2.806  21.487 -0.1101 -0.1822  0.0791
23139W        W27539   2.777   3.254  21.918 -0.1257 -0.1277  0.1055
23140W        W27540   4.731   2.902  28.361 -0.0138 -0.0473  0.1411
23141W        W27541  22.398   3.544  10.224 -0.1385  0.0627 -0.0738
23142W        W27542   2.545   5.602  29.735 -0.1491 -0.0481  0.0873
23143W        W27543  20.146   6.341  34.429 -0.1817  0.0486 -0.1698
23144W        W27544   4.391   1.110  35.992  0.0552  0.2692 -0.2034
23145W        W27545  20.044   6.440  32.476  0.0083  0.0389  0.1684
23146W        W27546  18.594   6.295  23.328 -0.1587 -0.0573 -0.1448
23147W        W27547   3.265   3.008  29.774 -0.0937  0.2703 -0.0010
23148W        W27548  21.477   0.793  33.091  0.2321 -0.1623 -0.0070
23149W        W27549  24.753   6.203  27.482  0.0352  0.1685  0.1870
23150W        W27550  22.663   3.952  22.851  0.2420 -0.0793 -0.1073
23151W        W27551  15.665   1.737  14.611  0.0393 -0.0189  0.2073
23152W        W27552  24.220   2.512  33.677  0.0018 -0.0062 -0.1135
23153W        W27553  20.574   2.675  22.843  0.0059  0.2830 -0.2692
23154W        W27554  26.241   0.818  33.351 -0.1715 -0.1378 -0.2934
23155W        W27555   5.304   5.909   6.272 -0.0773 -0.0052  0.1995
23156W        W27556   0.181   3.859  27.868 -0.0694  0.0416  0.2693
23157W        W27557  15.757   5.444  26.737  0.2019 -0.0588  0.0359
23158W        W27558  21.048   2.265  13.974 -0.0602 -0.1488  0.0356
23159W        W27559  17.278   2.646  27.035 -0.0270 -0.0361 -0.0388
23160W        W27560   8.125   5.132  14.204  0.2399  0.2720 -0.0292
23161W        W27561  24.134   1.836  11.039 -0.1398  0.1779  0.0439
23162W        W27562   2.528   6.509  32.444  0.1279 -0.1702 -0.3861
23163W        W27563   0.798   2.003  22.939  0.1393 -0.0623 -0.1611
23164W        W27564   3.646   3.551  25.403  0.2913 -0.1242 -0.1027
23165W        W27565  19.123   0.206  10.764  0.1640  0.1782 -0.0796
23166W        W27566  12.170   5.577  23.173 -0.0116 -0.4482  0.0204
23167W        W27567  18.058   2.084  32.241  0.3833  0.1198 -0.2283
23168W        W27568  14.557   1.891   9.857  0.0360 -0.0330  0.2248
23169W        W27569  20.138   2.970  34.367  0.0718  0.1042  0.0082
23170W        W27570  11.527   4.705  28.327  0.0283  0.1484 -0.0277
23171W        W27571  10.246   3.946  21.656 -0.1866 -0.0402 -0.2337
23172W        W27572  24.173   3.556   8.635 -0.0763 -0.1121  0.2727
23173W        W27573  25.283   1.090  31.529  0.1570 -0.2990  0.1381
23174W        W27574  18.564   1.379  32.104  0.3365  0.1125  0.0420
23175W        W27575  10.148   2.750   1.223 -0.1028 -0.0212 -0.0504
23176W        W27576  13.113   0.300  21.417 -0.2176  0.1119  0.0224
23177W        W27577  15.239   5.096  12.874 -0.0662 -0.2189  0.2704
23178W        W27578   7.430   3.481  12.883 -0.3066  0.5266  0.0317
23179W        W27579  12.656   0.354  33.884  0.0058 -0.1142  0.1113
23180W        W27580  11.706   1.811  34.917  0.1012 -0.1210 -0.0559
23181W        W27581  20.297   2.861   0.866 -0.1020  0.1016 -0.0111
23182W        W27582  21.975   3.737  25.187  0.3488 -0.2380  0.0626
23183W        W27583  17.560   0.693  14.397  0.2090  0.0040 -0.0981
23184W        W27584  18.085   6.025   0.800  0.0772 -0.0861  0.0704
23185W        W27585  25.711   5.147  12.664 -0.0173  0.0874  0.0105
23186W        W27586  18.725   0.907   3.765 -0.0669 -0.0734 -0.2415
23187W        W27587   5.562   3.082  10.600 -0.0292 -0.1440  0.0892
23188W        W27588   3.982   5.161   3.522 -0.0384 -0.1247 -0.0249
23189W        W27589  21.121   4.390  25.709  0.0631 -0.1656  0.0790
23190W        W27590  22.258   1.107  31.664  0.0767  0.0304 -0.0987
23191W        W27591   0.695   6.455  23.790  0.2551 -0.0287  0.0548
23192W        W27592  12.072   1.627   9.118 -0.2927 -0.1152  0.1412
23193W        W27593   3.496   0.868  10.079  0.0621 -0.1249 -0.1000
23194W        W27594  18.009   6.417  22.081  0.0242  0.0151  0.2673
23195W        W27595  14.671   5.763  27.368  0.0002 -0.0062  0.2735
23196W        W27596   7.054   0.461  13.457  0.1238 -0.1733 -0.0438
23197W        W27597  25.545   5.590  22.002 -0.0199  0.1173  0.2899
23198W        W27598   1.819   5.758   8.483  0.1652  0.2806 -0.1389
23199W        W27599   7.617   6.503   8.804  0.0882  0.1282 -0.0029
23200W        W27600  10.125   4.805  14.865  0.0025  0.1646 -0.1376
23201W        W27601  19.077   6.341   3.847 -0.1768 -0.2264 -0.1059
23202W        W27602   4.384   5.861  23.679  0.0946  0.0660  0.0810
23203W        W27603  16.858   0.788   5.745 -0.0081 -0.2408  0.0719
23204W        W27604  14.090   5.908  27.909 -0.1827  0.0649  0.1956
23205W        W27605   5.825   2.172  14.033 -0.0158  0.0848  0.2212
23206W        W27606  22.641   0.371   6.256  0.1091 -0.0353 -0.1643
23207W        W27607  19.520   0.293  12.556 -0.0328 -0.2273  0.0018
23208W        W27608   1.964   1.445  28.217 -0.1663  0.4632  0.2036
23209W        W27609  24.476   5.814   7.525  0.0348  0.0557  0.2478
23210W        W27610   2.634   5.054   7.584  0.0419  0.0323 -0.1561
23211W        W27611  20.985   1.455  10.620  0.1735  0.0930 -0.2444
23212W        W27612  16.465   0.765   4.666 -0.3430 -0.0951 -0.2291
23213W        W27613   2.504   2.856   5.157 -0.1534 -0.1050 -0.2895
23214W        W27614   7.908   6.443   3.547  0.1474  0.0899  0.1174
23215W        W27615   3.646   1.994  11.988 -0.2777 -0.2093 -0.2722
23216W        W27616  24.462   4.935  23.119 -0.1454  0.1736 -0.0036
23217W        W27617   0.764   1.721  27.407 -0.0618  0.1445 -0.0254
23218W        W27618   2.217   4.098  11.172 -0.2746  0.0163  0.0228
23219W        W27619  19.939   6.216   2.142  0.0627 -0.0004  0.0030
23220W        W27620  23.957   1.780   8.838 -0.1938 -0.1156 -0.2658
23221W        W27621  24.279   6.305  22.905 -0.2883  0.0119  0.1186
23222W        W27622  23.658   0.037  33.184  0.1530 -0.1563  0.0871
23223W        W27623  22.430   1.204  22.662  0.1020  0.0872 -0.0122
23224W        W27624   9.127   0.998  10.285 -0.0587 -0.0733 -0.1322
23225W        W27625  10.801   4.227  24.335  0.1608  0.3677 -0.0375
23226W        W27626   6.605   3.312   2.380 -0.4438 -0.1083  0.1306
23227W        W27627   5.493   3.146   6.281  0.0173 -0.1898  0.1607
23228W        W27628  17.929   3.172  29.845  0.0931  0.3208 -0.1891
23229W        W27629   0.022   2.918  27.423 -0.1221 -0.0009 -0.1194
23230W        W27630  24.100   4.129  23.369 -0.1859 -0.1383  0.1247
23231W        W27631  17.229   4.610  10.471 -0.0563 -0.1448 -0.1058
23232W        W27632  20.708   4.106  34.949  0.0210  0.1671 -0.2053
23233W        W27633  13.648   0.029  13.235 -0.1810 -0.1385 -0.0115
23234W        W27634  14.042   5.050  22.902 -0.1494 -0.0434 -0.0508
23235W        W27635  19.523   1.414   5.270  0.2893 -0.0234 -0.2083
23236W        W27636  11.192   2.245  14.006  0.2398 -0.3390  0.1955
23237W        W27637  21.320   6.240  22.101  0.2360 -0.1039  0.0815
23238W        W27638   3.099   4.102   7.478  0.1286  0.0080  0.0430
23239W        W27639   2.383   1.707   2.133 -0.1807  0.2993 -0.4632
23240W        W27640   2.943   4.645  28.692  0.0018 -0.1675  0.1115
23241W        W27641   2.676   6.528  27.296  0.3508  0.1380  0.1372
23242W        W27642  21.098   6.537  13.763  0.2835  0.0477 -0.0225
23243W        W27643   4.627   3.671  22.415 -0.0733 -0.0244  0.1938
23244W        W27644  23.837   3.231  29.336 -0.5732  0.2006 -0.1801
23245W        W27645  15.704   6.284  13.793 -0.2686 -0.2052  0.0921
23246W        W27646   3.340   6.032   2.599  0.2168  0.0438  0.1151
23247W        W27647   6.578   6.240   6.559 -0.1525  0.0627 -0.0683
23248W        W27648   6.549   2.143  34.756  0.0570 -0.0638  0.0015
23249W        W27649  19.915   1.926  35.007  0.0702 -0.0422  0.0827
23250W        W27650  26.113   2.018  34.700  0.1482  0.1306 -0.0067
23251W        W27651  15.369   1.939  22.334  0.4860 -0.1040  0.0298
23252W        W27652   9.593   3.809   6.494 -0.5065 -0.0525 -0.0776
23253W        W27653   4.805   1.172  23.007 -0.1410 -0.0940  0.2404
23254W        W27654   2.495   1.490   6.028 -0.0611 -0.2180  0.1012
23255W        W27655  24.883   4.724  25.072 -0.0572  0.2700  0.0038
23256W        W27656   3.303   5.357  10.868  0.2219 -0.0823 -0.0508
23257W        W27657  24.919   5.246  23.942 -0.0249  0.0192  0.2344
23258W        W27658  19.736   6.040  33.109  0.0903 -0.0815 -0.0637
23259W        W27659  24.511   4.904  26.490  0.4388 -0.0237  0.1216
23260W        W27660  13.670   4.639  34.713  0.1978  0.0958 -0.0945
23261W        W27661   3.533   0.625   6.232 -0.0402  0.0969 -0.0919
23262W        W27662  17.447   5.085  23.434 -0.0347  0.0619 -0.0279
23263W        W27663  19.061   1.224  33.653  0.0354 -0.0253  0.0636
23264W        W27664   0.545   5.756  10.421  0.1088  0.1742  0.1468
23265W        W27665  17.807   5.743  26.904  0.1196 -0.0306 -0.1739
23266W        W27666  26.100   3.976  25.118  0.1457  0.1763  0.1407
23267W        W27667   5.746   0.896  32.101 -0.1941 -0.1038 -0.1828
23268W        W27668  12.996   2.606  22.350 -0.2552  0.2055  0.1991
23269W        W27669   1.387   1.099  23.070 -0.0559  0.0410 -0.0438
23270W        W27670  12.329   2.081  28.990  0.1214  0.2060  0.1879
23271W        W27671  23.987   6.388  26.266 -0.0101  0.3989  0.1346
23272W        W27672  19.253   2.639  12.470 -0.1065 -0.0253  0.2376
23273W        W27673  10.494   2.790  29.308 -0.0287 -0.3922 -0.1646
23274W        W27674  18.589   1.785  33.090  0.2488  0.1417 -0.0130
23275W        W27675   6.906   0.575   0.865  0.1362  0.0622  0.0149
23276W        W27676   1.487   3.165   1.512  0.4571 -0.1113  0.0944
23277W        W27677  24.849   0.088  27.828  0.1255  0.1602  0.0135
23278W        W27678  26.263   6.536  28.718 -0.1459 -0.0742  0.0352
23279W        W27679   9.430   3.868  34.432  0.0057 -0.1226  0.1154
23280W        W27680  11.941   6.318  29.509  0.1405 -0.3296  0.1221
23281W        W27681  11.132   2.562   9.353  0.0452  0.0235 -0.1165
23282W        W27682   4.771   3.053  22.780  0.0579  0.1327  0.2462
23283W        W27683   0.842   0.575  26.808 -0.0058  0.2154 -0.0856
23284W        W27684   6.686   6.298   8.951  0.0624  0.1105  0.0379
23285W        W27685  11.768   0.913  29.658 -0.0292  0.0622 -0.1788
23286W        W27686  24.645   0.488  12.590 -0.4204  0.1759 -0.3456
23287W        W27687   4.368   4.902  34.699  0.1271  0.0660 -0.0137
23288W        W27688  25.322   3.588  13.445  0.0832  0.1501  0.2718
23289W        W27689  24.986   0.400  29.891  0.0023  0.1027  0.0348
23290W        W27690   1.357   4.070  11.826  0.2020 -0.0269  0.0820
23291W        W27691  21.177   3.073  13.358  0.2106  0.0440  0.2330
23292W        W27692   1.530   4.839  32.546  0.0271 -0.2232 -0.4142
23293W        W27693   3.472   6.592  33.858 -0.0644  0.2021 -0.3619
23294W        W27694  12.468   3.466   1.959 -0.0329 -0.0480 -0.0541
23295W        W27695   3.241   3.976  35.117 -0.0454  0.1366  0.2329
23296W        W27696  25.590   4.408  30.602 -0.1279  0.1879  0.0365
23297W        W27697  24.379   0.432  20.651 -0.0829  0.1419  0.0516
23298W        W27698  23.881   5.092  14.925  0.1760  0.0106 -0.0252
23299W        W27699  17.613   2.879   6.133 -0.0051  0.2590 -0.0358
23300W        W27700  22.103   1.071  28.940  0.1502 -0.1215  0.2346
23301W        W27701  26.295   3.277   5.154 -0.0183  0.2122  0.1268
23302W        W27702   5.353   5.823  22.647  0.1077 -0.1786 -0.1440
23303W        W27703  24.194   4.077  33.770 -0.1368  0.0053  0.2284
23304W        W27704  17.894   1.497  22.012  0.0637 -0.1375  0.0213
23305W        W27705  13.601   4.507  35.581 -0.1453  0.0212  0.2754
23306W        W27706  23.120   5.423   3.984 -0.3681 -0.2283  0.1520
23307W        W27707  17.965   0.588  33.569 -0.1469 -0.2523  0.2876
23308W        W27708  23.034   0.742  34.398 -0.0922  0.0029 -0.1873
23309W        W27709  24.668   1.518  11.149 -0.0029 -0.0184  0.4108
23310W        W27710   1.876   2.439  23.689  0.1881  0.0241  0.2243
23311W        W27711  15.733   0.210   5.207 -0.2011 -0.0816  0.3815
23312W        W27712  11.764   4.409  34.785  0.1470 -0.0186  0.2195
23313W        W27713  20.086   3.102  28.335  0.1457 -0.2119 -0.4101
23314W        W27714  23.987   0.883   8.451  0.0876 -0.0248  0.0387
23315W        W27715   0.696   4.216  29.586  0.0249 -0.4838  0.2196
23316W        W27716  23.519   4.797  25.737  0.0833  0.0093  0.3759
23317W        W27717  16.295   0.833  25.361  0.1336  0.0108 -0.0929
23318W        W27718  17.841   3.843  31.806 -0.0644  0.0363 -0.1877
23319W        W27719  18.231   3.328   3.260 -0.4317 -0.0824  0.1217
23320W        W27720  12.648   1.414   0.865  0.0607  0.2939  0.1623
23321W        W27721  13.700   0.571  13.610 -0.3242 -0.0401 -0.3262
23322W        W27722  23.783   6.530  25.076 -0.1691  0.1103  0.0360
23323W        W27723  14.646   0.306  13.805  0.2410  0.0460  0.3757
23324W        W27724   6.760   4.440   3.352  0.0233 -0.0776 -0.0446
23325W        W27725  14.255   2.879  11.293 -0.1049 -0.0333 -0.2313
23326W        W27726  21.711   3.291  21.963 -0.0930 -0.1468 -0.0943
23327W        W27727   3.274   2.834   9.718  0.0420  0.0015  0.1746
23328W        W27728  18.285   0.778   5.694 -0.0777 -0.0294  0.0701
23329W        W27729  14.932   1.362  33.775 -0.1745 -0.2838  0.1419
23330W        W27730  15.711   6.523  12.458 -0.0998  0.0086 -0.1266
23331W        W27731   7.778   4.139   5.847  0.1369  0.0022  0.1786
23332W        W27732   4.390   3.922  26.333 -0.1262  0.0505  0.0153
23333W        W27733  16.938   6.536  14.959 -0.0046 -0.0720  0.2328
23334W        W27734  16.573   5.247   7.598 -0.2996  0.0196 -0.0272
23335W        W27735   6.168   1.438  14.210  0.1218  0.2064 -0.2685
23336W        W27736  15.844   2.458   7.436  0.2145  0.0344  0.1477
23337W        W27737   9.149   0.709   8.659 -0.0531 -0.0398 -0.2404
23338W        W27738  25.177   4.434  25.494  0.1623  0.1892 -0.0800
23339W        W27739  16.362   2.139   6.135  0.0812 -0.0826 -0.2087
23340W        W27740   7.063   0.469  28.380  0.2828 -0.2967 -0.0981
23341W        W27741  14.688   1.620   7.709  0.0614  0.0171 -0.1278
23342W        W27742   0.140   1.472   5.826 -0.1388 -0.1792  0.1266
23343W        W27743  10.131   3.910  23.186  0.2934 -0.0144 -0.0998
23344W        W27744  17.982   4.918  23.345 -0.3657 -0.0847 -0.2023
23345W        W27745   4.241   6.470  28.846  0.0546 -0.2240  0.1097
23346W        W27746  15.469   0.684  28.139 -0.0865  0.0751  0.2027
23347W        W27747  11.812   2.162   0.747  0.0256 -0.2120  0.1897
23348W        W27748  11.277   0.496   2.479  0.2100 -0.0134 -0.0582
23349W        W27749  19.746   5.874  34.313  0.2250  0.2437  0.0529
23350W        W27750   7.927   1.998   0.058 -0.1110  0.0306  0.1711
23351W        W27751  26.405   2.626   8.945 -0.0705 -0.0474 -0.1063
23352W        W27752   8.174   5.440  28.968 -0.0817  0.0282 -0.0316
23353W        W27753  25.414   3.357  29.954 -0.1008 -0.4990 -0.0283
23354W        W27754  12.623   6.099  26.942  0.1182 -0.0999 -0.2826
23355W        W27755  23.607   3.253   7.712 -0.0026 -0.0407  0.3042
23356W        W27756  20.642   0.115  11.023 -0.1090 -0.1552  0.1068
23357W        W27757  17.410   2.326   4.482  0.4108  0.2586 -0.1168
23358W        W27758  25.509   4.179   2.857 -0.0053 -0.0207  0.2457
23359W        W27759  21.453   5.031  23.881  0.0929 -0.1169 -0.0235
23360W        W27760  10.869   0.466   3.779 -0.2183  0.1213 -0.1058
23361W        W27761   1.046   5.586  27.357 -0.0943 -0.1044 -0.4426
23362W        W27762   1.979   3.211   3.749  0.2743 -0.1974  0.1672
23363W        W27763   2.210   2.022  22.103  0.0921 -0.0534 -0.1440
23364W        W27764  14.650   3.146  14.066 -0.2062 -0.2408  0.0513
23365W        W27765   4.480   5.999   7.564  0.0946  0.2268 -0.3934
23366W        W27766  17.622   4.725   2.406  0.0048  0.0228  0.1206
23367W        W27767  19.576   6.088   5.598 -0.0245 -0.0636 -0.1207
23368W        W27768   4.760   1.620  26.071  0.1901  0.2015  0.0171
23369W        W27769  24.700   5.702  32.903 -0.0694  0.0254  0.1547
23370W        W27770  18.489   4.689   8.440 -0.1586  0.0116  0.1131
23371W        W27771  25.676   1.652  21.711  0.0571 -0.1637 -0.1130
23372W        W27772   0.464   2.622   9.099  0.4131 -0.0376 -0.1914
23373W        W27773  11.938   0.559  25.702  0.0247  0.0069  0.1134
23374W        W27774  17.035   5.700  26.246  0.5492  0.4416 -0.1234
23375W        W27775  16.909   1.410  24.093  0.0210  0.0530  0.0490
23376W        W27776   4.624   4.131  14.635 -0.2268  0.1806  0.1919
23377W        W27777  14.186   0.589  35.268  0.0611  0.1644  0.0283
23378W        W27778   1.227   4.652   6.351  0.3737  0.0320  0.2564
23379W        W27779  14.926   1.879  26.635  0.2704 -0.0769 -0.2471
23380W        W27780   8.548   4.028  23.802  0.3156  0.0158  0.1174
23381W        W27781  10.388   4.352   0.488  0.0171 -0.0623 -0.1775
23382W        W27782   5.260   0.402  13.919 -0.0426  0.1039  0.0864
23383W        W27783   0.881   0.589   5.232 -0.1442 -0.0880  0.3382
23384W        W27784   0.533   0.985  14.493 -0.0270  0.1215  0.0366
23385W        W27785   1.162   3.811   9.933 -0.2268 -0.0217  0.4963
23386W        W27786   9.586   6.559  35.727  0.2107 -0.3485  0.0557
23387W        W27787  10.849   6.322  15.060  0.2595 -0.2373 -0.0574
23388W        W27788   7.117   0.434   7.640  0.0413 -0.0014  0.0253
23389W        W27789   3.563   2.780   8.696 -0.0019  0.1507 -0.2573
23390W        W27790   2.370   2.225  31.268  0.1746 -0.1241 -0.1144
23391W        W27791  22.884   2.594  22.882 -0.1187  0.1574  0.0253
23392W        W27792   2.669   5.023  29.754  0.0527 -0.4393  0.3086
23393W        W27793  15.152   6.075  12.970  0.1376  0.0432  0.2786
23394W        W27794   4.304   3.162   9.717 -0.0869 -0.0718  0.0483
23395W        W27795   0.454   5.694  20.916 -0.1803  0.5163  0.1343
23396W        W27796   7.063   5.278  12.336  0.1071 -0.0940  0.1635
23397W        W27797  11.673   3.341   2.564 -0.0610  0.2022  0.0122
23398W        W27798  21.601   1.813  35.754  0.2390  0.0843 -0.1762
23399W        W27799  26.313   4.903   6.074  0.2556 -0.2220  0.0951
23400W        W27800   7.962   1.534   3.840 -0.2335 -0.0627 -0.0310
23401W        W27801   0.112   6.072  20.135  0.0392 -0.3692  0.0282
23402W        W27802   8.707   3.103  27.196 -0.0495 -0.0414 -0.0504
23403W        W27803   8.855   0.481  34.394 -0.1341  0.2575  0.0350
23404W        W27804   2.727   0.432  13.962 -0.0522 -0.4019  0.0642
23405W        W27805  19.607   5.959  30.916 -0.0454 -0.0174 -0.0853
23406W        W27806  18.467   1.488  31.599 -0.3608 -0.0484 -0.1121
23407W        W27807   7.925   3.658   4.665  0.1161 -0.3191  0.1073
23408W        W27808  18.185   0.674  23.745 -0.0610  0.1287 -0.1937
23409W        W27809  16.285   3.183   6.795  0.2778  0.1380  0.0778
23410W        W27810  26.034   2.937  27.142  0.2303  0.0212  0.2364
23411W        W27811   5.749   1.157  24.722  0.1220 -0.0922  0.1137
23412W        W27812  24.419   3.197  31.218  0.0204  0.1211  0.0811
23413W        W27813   7.002   5.692  33.069  0.2624 -0.1868  0.0243
23414W        W27814   3.167   5.066  31.021 -0.1091  0.0805 -0.2955
23415W        W27815  18.137   4.719  13.200  0.1375  0.1141 -0.1028
23416W        W27816  17.344   1.866  29.132 -0.0651 -0.2428 -0.0547
23417W        W27817   5.949   4.191  14.356  0.1129 -0.1379 -0.2706
23418W        W27818   8.933   0.679  35.470  0.1806 -0.0404  0.3726
23419W        W27819   3.914   5.772  23.623 -0.3623 -0.1948 -0.1978
23420W        W27820   4.143   0.044  23.545  0.2614 -0.2091  0.1146
23421W        W27821   9.602   0.142   5.039 -0.1178  0.0831 -0.2285
23422W        W27822  12.484   3.470   3.432 -0.1612 -0.0941  0.2459
23423W        W27823   0.150   5.361  33.317  0.0543  0.0664 -0.0549
23424W        W27824   8.222   1.880  21.321  0.1179 -0.0781 -0.0298
23425W        W27825   6.946   4.878  33.173 -0.1326 -0.1902 -0.2226
23426W        W27826  23.357   3.826   8.204 -0.2061 -0.0637  0.5408
23427W        W27827   1.716   5.232  21.496 -0.1486  0.0070  0.3260
23428W        W27828  14.704   0.822  21.336  0.1856 -0.0992 -0.0914
23429W        W27829  18.039   2.550  28.687 -0.0870  0.0956 -0.0007
23430W        W27830  14.236   5.149  26.297 -0.0699  0.1096 -0.0212
23431W        W27831   8.309   2.034  32.857  0.0480 -0.0517  0.0055
23432W        W27832  13.869   6.032  28.430  0.0715  0.3618 -0.0894
23433W        W27833  13.165   1.227   1.983 -0.2381  0.3877 -0.1085
23434W        W27834  16.223   3.319  31.330 -0.0164 -0.0555 -0.2417
23435W        W27835  23.280   1.586   5.313  0.0397 -0.1278 -0.1630
23436W        W27836   0.400   2.235   4.646  0.0259  0.1069  0.0470
23437W        W27837  21.489   2.215  32.015 -0.0876  0.3139 -0.0530
23438W        W27838  22.543   0.722   2.338  0.1675  0.2959 -0.1740
23439W        W27839  16.713   1.782  23.248  0.1442 -0.0371  0.2542
23440W        W27840  21.979   4.986  23.753  0.2021  0.0985 -0.0285
23441W        W27841   8.481   0.656   5.547  0.1437 -0.1033 -0.0725
23442W        W27842   7.991   4.802  15.810  0.3908 -0.0760 -0.1078
23443W        W27843  10.002   2.925  11.060  0.1103 -0.0573 -0.1260
23444W        W27844   5.119   5.307  23.434 -0.2420  0.1827  0.1961
23445W        W27845   4.431   3.986  25.268 -0.1949  0.0626 -0.0456
23446W        W27846  10.648   2.175  32.357 -0.0563  0.2064 -0.0305
23447W        W27847   9.014   2.738  26.751 -0.2892 -0.0184  0.0114
23448W        W27848   2.540   5.715  24.197 -0.2369 -0.3121 -0.2605
23449W        W27849  26.345   3.110  33.634  0.1594 -0.1604  0.2212
23450W        W27850  20.731   0.628  11.151 -0.2016 -0.0323 -0.1095
23451W        W27851   6.672   6.497  31.641  0.4360 -0.0867 -0.0615
23452W        W27852  13.856   6.212   4.400  0.0425 -0.1439 -0.1529
23453W        W27853   7.182   3.714   1.246 -0.0232 -0.2422  0.2191
23454W        W27854   6.239   4.510  23.874  0.2520 -0.3983  0.0013
23455W        W27855   0.680   0.310  23.474 -0.1917  0.1208 -0.1187
23456W        W27856  13.353   2.689  25.112  0.2349  0.0680 -0.1646
23457W        W27857  15.813   2.149  15.372  0.1593 -0.0140 -0.0432
23458W        W27858  15.057   4.239  35.088  0.0879  0.1215  0.0326
23459W        W27859   3.986   1.383   8.993  0.0588  0.0706  0.0070
23460W        W27860  16.053   0.985  29.057 -0.0719 -0.1546 -0.1039
23461W        W27861  20.977   1.629  21.159  0.3665 -0.0368 -0.0005
23462W        W27862   0.701   2.583  21.031  0.0661 -0.0161 -0.2918
23463W        W27863   5.546   3.805  22.907  0.3038  0.3479  0.1180
23464W        W27864   6.794   5.133   6.537 -0.1169  0.0102 -0.1109
23465W        W27865  19.491   4.581   8.512  0.1516  0.0276  0.1776
23466W        W27866  24.101   1.674  36.013 -0.0068  0.2361 -0.2368
23467W        W27867  20.198   1.962  28.606  0.1002  0.0817  0.2029
23468W        W27868   2.868   5.912  25.411 -0.0761 -0.0077 -0.1676
23469W        W27869   4.332   4.969   5.902 -0.0521  0.0858 -0.2362
23470W        W27870  18.330   5.479  15.245  0.1430  0.0728  0.1314
23471W        W27871   6.706   4.196  36.019 -0.0533 -0.1044 -0.1796
23472W        W27872  15.571   0.450  33.769 -0.0291  0.3022  0.0925
23473W        W27873   0.616   4.444  20.695  0.0613 -0.3986 -0.3114
23474W        W27874   2.983   6.558  27.754 -0.0898 -0.1713 -0.1172
23475W        W27875   9.401   5.624  25.245 -0.1114  0.1596 -0.3677
23476W        W27876   2.209   0.221  26.565 -0.1463  0.0641 -0.2053
23477W        W27877  26.291   6.514  34.067 -0.0395  0.2372 -0.0451
23478W        W27878  12.597   5.949   0.540 -0.3050  0.1479 -0.0767
23479W        W27879   1.095   6.350   6.868  0.3038 -0.0838 -0.1501
23480W        W27880  13.348   4.494   8.317 -0.1997  0.1997  0.1212
23481W        W27881   7.053   6.176  10.338 -0.0541  0.1577  0.3160
23482W        W27882  14.730   2.415   9.674 -0.2079 -0.1639 -0.1217
23483W        W27883  10.483   1.073   2.639 -0.0204  0.3637 -0.2587
23484W        W27884  13.567   5.331  12.814 -0.0357 -0.3493 -0.0528
23485W        W27885  23.299   2.308  21.500 -0.0712  0.1807 -0.0467
23486W        W27886  13.265   4.222  32.039 -0.0361 -0.1873 -0.1529
23487W        W27887  19.288   2.620  24.111  0.1352  0.3333 -0.4722
23488W        W27888   0.938   2.228  29.653 -0.2974  0.0200 -0.0437
23489W        W27889  11.584   6.356  31.275 -0.1783  0.4959  0.0379
23490W        W27890   3.849   4.975  28.166  0.0113 -0.1085  0.1019
23491W        W27891  17.730   0.362  11.274  0.0074  0.2429 -0.0279
23492W        W27892   5.402   5.721   0.119 -0.1152 -0.1863 -0.2298
23493W        W27893  18.389   2.804   4.576 -0.1916 -0.2002 -0.1472
23494W        W27894   8.750   2.957  32.033 -0.0031 -0.1753  0.1494
23495W        W27895   6.568   2.532  30.147  0.1412  0.0328 -0.0116
23496W        W27896  22.344   3.026  34.630 -0.0467  0.0897  0.0038
23497W        W27897   1.695   3.488  32.560 -0.4110  0.3304 -0.1826
23498W        W27898   6.458   1.651  27.877  0.2068 -0.1603 -0.0094
23499W        W27899  25.694   3.138  30.367  0.0642 -0.1372  0.0678
23500W        W27900   5.005   6.056   4.469  0.1568  0.0880  0.1820
23501W        W27901   1.798   0.135   3.809 -0.0079 -0.1115  0.2281
23502W        W27902  14.634   3.868  34.685 -0.2086 -0.1584  0.3624
23503W        W27903  13.625   2.820  21.361 -0.0335 -0.0409  0.1009
23504W        W27904  26.085   0.768  21.549  0.1331  0.1067 -0.0061
23505W        W27905  20.222   5.082  21.049  0.1609  0.0090  0.0425
23506W        W27906   0.989   5.123   1.815  0.2947  0.0570  0.2626
23507W        W27907  19.805   1.756   4.038  0.0294  0.2468 -0.0140
23508W        W27908  22.135   6.509  10.010 -0.0697 -0.1724 -0.0151
23509W        W27909  13.064   0.228  30.275 -0.1412  0.1423  0.0450
23510W        W27910   5.912   4.409  27.580 -0.1063  0.1146  0.1263
23511W        W27911   9.207   0.147  35.992 -0.0287 -0.0231 -0.3436
23512W        W27912  18.846   2.378  23.849 -0.3345 -0.1525  0.1670
23513W        W27913   6.053   2.704  11.317  0.1429 -0.1643 -0.2020
23514W        W27914  16.285   5.854  14.036  0.0757  0.1948  0.0655
23515W        W27915  21.436   5.669  29.706 -0.3405  0.5536  0.1396
23516W        W27916  15.328   0.313   4.961 -0.1689  0.1252  0.3836
23517W        W27917  22.716   1.868  10.961 -0.2856  0.1177  0.0212
23518W        W27918  15.356   3.097  12.838  0.3956  0.1561  0.1950
23519W        W27919   7.652   3.482   4.186  0.0512 -0.0161  0.0041
23520W        W27920   8.040   4.999  12.535  0.1520 -0.1347 -0.0142
23521W        W27921   8.828   1.419  26.260  0.0609 -0.1813  0.2335
23522W        W27922  18.146   0.827  29.209  0.4599  0.0164 -0.2077
23523W        W27923   8.529   2.595  24.964  0.0279  0.1031 -0.0245
23524W        W27924   3.246   2.066  27.997 -0.1444  0.1336 -0.0399
23525W        W27925   6.029   5.854  14.819 -0.2437 -0.2171 -0.0051
23526W        W27926   8.443   0.306  33.260 -0.2324 -0.2480  0.2332
23527W        W27927  14.898   3.104   5.771 -0.0868 -0.1000  0.0267
23528W        W27928   7.570   5.656  22.174 -0.0516 -0.2485  0.1102
23529W        W27929  21.053   3.665  35.297 -0.0298 -0.2969 -0.0576
23530W        W27930  24.369   1.110  21.600 -0.1077  0.0770  0.3718
23531W        W27931  17.420   2.989  27.517  0.2466 -0.1570  0.0708
23532W        W27932   8.039   6.420  32.233  0.2376 -0.2321 -0.0682
23533W        W27933   8.833   3.993  33.799  0.1011 -0.0606 -0.0269
23534W        W27934   2.823   0.674  30.549 -0.0900  0.2166  0.1089
23535W        W27935   9.014   2.583  35.812 -0.1556 -0.0979 -0.4173
23536W        W27936  21.247   0.898  26.547 -0.1273 -0.2881  0.1858
23537W        W27937  20.162   3.109  22.091  0.0187  0.1347  0.2558
23538W        W27938  13.068   4.997  30.260 -0.0843  0.2226  0.1271
23539W        W27939  13.227   4.540   5.256 -0.0666  0.2320  0.2402
23540W        W27940  20.388   1.624  30.623  0.3042 -0.0392  0.0200
23541W        W27941   8.548   1.912  28.069 -0.2381 -0.1010 -0.0355
23542W        W27942   1.205   4.895  30.988  0.1140  0.2378 -0.1780
23543W        W27943   1.441   0.663   2.530  0.2947 -0.0569  0.1673
23544W        W27944  24.569   0.760  10.628  0.1758  0.0175  0.1605
23545W        W27945  18.467   6.365   8.306 -0.1846  0.3257  0.1294
23546W        W27946  19.323   5.065   0.333  0.2768 -0.3116 -0.2915
23547W        W27947  10.253   2.744  34.172 -0.0767 -0.0824 -0.0214
23548W        W27948  15.757   4.132   9.633 -0.0041  0.0296  0.2443
23549W        W27949   8.813   4.997   6.225 -0.1313 -0.1034  0.1704
23550W        W27950   2.295   3.063   7.064  0.0064 -0.6262  0.1962
23551W        W27951  15.226   1.885  10.932  0.0394 -0.2352  0.1396
23552W        W27952  13.671   2.671  34.841  0.0816 -0.1774 -0.1339
23553W        W27953  20.931   2.596   8.805 -0.1303  0.1255 -0.1549
23554W        W27954   2.446   6.439  29.021 -0.1039 -0.4934  0.0731
23555W        W27955  24.555   2.781  11.598 -0.4055  0.1378  0.1629
23556W        W27956  26.009   2.311  27.412 -0.2465 -0.2659  0.0405
23557W        W27957   1.229   6.488   9.140 -0.1103  0.0963 -0.4518
23558W        W27958  20.218   3.387  30.301 -0.1059  0.0590 -0.0937
23559W        W27959  18.299   1.599  10.961 -0.2210 -0.1434 -0.2833
23560W        W27960   0.902   5.732  26.528 -0.2260 -0.0768 -0.1353
23561W        W27961  18.569   5.625  33.512  0.0255  0.2328  0.3508
23562W        W27962  24.862   4.510   4.688  0.0480 -0.0309  0.2310
23563W        W27963   1.382   5.119  23.123  0.1546 -0.2103  0.1960
23564W        W27964  15.083   4.532  21.981  0.0713 -0.1509  0.1616
23565W        W27965   2.961   5.222  23.123 -0.0391 -0.1180  0.3027
23566W        W27966   8.388   0.087  27.742 -0.1158  0.1217 -0.2613
23567W        W27967  16.960   4.013  31.986 -0.1019  0.2183 -0.0194
23568W        W27968  18.117   3.925   4.847 -0.4431 -0.2632  0.2267
23569W        W27969  10.195   2.120  10.419  0.1816  0.1533  0.1037
23570W        W27970  11.659   3.215   9.662  0.1170 -0.0465 -0.2148
23571W        W27971  23.311   6.062  34.097  0.1474 -0.1932  0.0035
23572W        W27972   1.215   6.183  30.880  0.1443  0.0702 -0.0498
23573W        W27973   6.825   0.425  21.132 -0.3138  0.0736  0.0870
23574W        W27974   2.688   3.785  28.793  0.0289 -0.3955 -0.2521
23575W        W27975  18.846   1.092  13.240  0.2236  0.0651  0.0852
23576W        W27976  25.062   1.612  26.463  0.0271 -0.1305  0.1509
23577W        W27977  24.406   0.684   5.580  0.0112 -0.0200  0.1586
23578W        W27978  18.234   1.671   3.073 -0.1589 -0.1698 -0.0068
23579W        W27979  10.181   1.476   9.056  0.0942 -0.1388  0.0634
23580W        W27980  25.927   4.566   6.227 -0.0979 -0.0929 -0.0726
23581W        W27981   5.132   2.049  33.602 -0.0602  0.1883 -0.1474
23582W        W27982  15.794   1.360   1.437 -0.2298 -0.1174  0.0207
23583W        W27983   2.837   0.994   2.318  0.2697  0.1563 -0.2786
23584W        W27984   7.562   4.487   6.176  0.0190  0.1135 -0.0591
23585W        W27985   5.098   0.901  11.450  0.0172 -0.0499  0.1257
23586W        W27986  21.752   1.169  23.404 -0.2752 -0.0912 -0.1122
23587W        W27987  11.181   2.855  14.832  0.0293  0.0010  0.0874
23588W        W27988   7.051   1.373  24.615 -0.0413  0.0994  0.0435
23589W        W27989   0.856   4.293  12.265  0.1429  0.1603 -0.0148
23590W        W27990  23.041   3.025  26.997  0.1550 -0.0183 -0.0040
23591W        W27991  15.383   4.516  24.850  0.2756 -0.0321  0.1395
23592W        W27992  12.088   1.058  22.056 -0.0462 -0.0790  0.0797
23593W        W27993   4.321   1.414  34.627  0.1439  0.1064  0.1335
23594W        W27994  20.922   2.726  27.158 -0.0241 -0.1092 -0.1810
23595W        W27995  18.967   2.507  14.790  0.2612 -0.1809  0.2169
23596W        W27996   4.696   1.616  10.968  0.1011  0.1649 -0.1796
23597W        W27997  14.600   1.834   6.450  0.0515 -0.0637 -0.0870
23598W        W27998  12.269   5.416  14.245 -0.1817  0.1137 -0.1075
23599W        W27999   6.982   0.436  30.346  0.0771 -0.2343  0.0866
23600W        W28000   2.142   1.677   6.530  0.4423  0.1776  0.1943
23601W        W28001  25.595   3.280   6.875 -0.0493  0.2019  0.0268
23602W        W28002  10.308   5.670  22.540  0.3145 -0.0789  0.0763
23603W        W28003   2.721   3.544   2.841  0.3037  0.1758  0.0427
23604W        W28004   1.965   5.481   0.588  0.0639  0.1277  0.1356
23605W        W28005  12.650   5.664   6.081  0.1581 -0.2753  0.3089
23606W        W28006  19.160   5.266   7.974  0.2334  0.0431 -0.0069
23607W        W28007  12.188   0.876   4.973 -0.1577  0.0898 -0.0902
23608W        W28008  24.824   5.893   9.056 -0.0194 -0.1540 -0.1334
23609W        W28009  22.467   1.275  24.834  0.1176 -0.0091 -0.2614
23610W        W28010  14.642   5.529  13.529  0.2118  0.2753 -0.1452
23611W        W28011   5.568   3.141   5.102  0.0703 -0.0426 -0.1596
23612W        W28012  21.597   6.224  28.090 -0.1537 -0.1735 -0.3758
23613W        W28013  25.297   6.244  22.677 -0.0231  0.1739 -0.1188
23614W        W28014  12.693   2.563  32.678  0.1544 -0.0625  0.2904
23615W        W28015   8.847   5.207   5.799 -0.0773 -0.1678 -0.0279
23616W        W28016  12.534   5.459  10.391  0.0791  0.0280 -0.0344
23617W        W28017  24.564   4.583   2.099 -0.0211  0.1217 -0.2722
23618W        W28018  17.291   6.305  25.916 -0.2116 -0.0074  0.3439
23619W        W28019  13.490   2.890  23.723  0.0413 -0.1464 -0.1021
23620W        W28020  26.274   4.149  15.289 -0.2474 -0.0138 -0.0810
23621W        W28021  21.159   5.333  32.467 -0.0450  0.0191  0.0287
23622W        W28022  19.295   5.968  25.409 -0.1049 -0.1460  0.0757
23623W        W28023  15.608   2.524  26.199 -0.1454 -0.2064 -0.2200
23624W        W28024  15.042   1.061  29.283 -0.1258 -0.0616  0.2851
23625W        W28025  10.735   3.383  15.442 -0.0448  0.2876  0.0902
23626W        W28026  21.291   6.413  26.419 -0.0136 -0.2219  0.0927
23627W        W28027  11.935   3.362  26.627  0.1199 -0.2416 -0.1296
23628W        W28028  13.912   1.411  10.586  0.3559 -0.0437  0.3287
23629W        W28029  20.600   4.233  11.666 -0.0537  0.4424 -0.4802
23630W        W28030  22.624   6.532  35.775  0.0918 -0.2930 -0.1589
23631W        W28031  14.675   0.569  34.169  0.0807  0.0511 -0.2230
23632W        W28032  19.679   6.202  29.653 -0.1127 -0.1114 -0.1243
23633W        W28033  15.596   4.391  33.550  0.0541 -0.1927  0.1064
23634W        W28034   7.515   5.398   4.624  0.2927 -0.1941 -0.0034
23635W        W28035  11.159   2.953  14.297  0.0407  0.2625  0.2546
23636W        W28036   5.567   1.951  23.893 -0.2112  0.2245 -0.1770
23637W        W28037   7.637   2.314  23.012 -0.0480 -0.1091  0.0003
23638W        W28038   0.374   2.619  29.134 -0.1126 -0.1415 -0.2389
23639W        W28039  20.113   1.143  31.280  0.3463 -0.1108 -0.2325
23640W        W28040  11.329   2.186   6.785  0.1020  0.1176  0.0635
23641W        W28041  25.070   2.613  28.312  0.2156  0.0916 -0.2587
23642W        W28042  13.422   0.251  23.647 -0.0887 -0.0298  0.2420
23643W        W28043  20.423   5.774  27.120 -0.5188  0.0494  0.5787
23644W        W28044   8.379   6.153  35.123 -0.0880  0.2711 -0.0682
23645W        W28045  11.337   2.247   6.333 -0.0357  0.0770 -0.2146
23646W        W28046   9.410   2.059  26.190 -0.4654  0.0238 -0.1045
23647W        W28047  22.153   0.233  24.819  0.2227  0.0101  0.2350
23648W        W28048  20.247   2.369   4.812  0.0513 -0.2404 -0.0661
23649W        W28049   8.998   5.905  29.052 -0.1668  0.2017 -0.2296
23650W        W28050  11.530   1.138  13.209  0.1830  0.0762 -0.1826
23651W        W28051   3.923   6.228   7.051  0.0914 -0.4268  0.2151
23652W        W28052  25.622   4.820  11.503  0.2639  0.1178 -0.2214
23653W        W28053  18.056   4.009  25.373 -0.0749 -0.1067  0.0939
23654W        W28054  10.273   4.119  21.190 -0.0433  0.1536 -0.1395
23655W        W28055   2.024   3.174  34.094  0.0120 -0.0278  0.0851
23656W        W28056  13.267   4.121  23.132 -0.0700 -0.1481 -0.1654
23657W        W28057   7.863   3.338  12.160  0.0453 -0.0477 -0.1592
23658W        W28058  21.228   0.998   9.618  0.0350 -0.0624  0.5801
23659W        W28059  23.766   2.260   8.850 -0.1572  0.0727 -0.2428
23660W        W28060   6.532   2.756  10.323 -0.1270  0.2418  0.1116
23661W        W28061   1.926   1.626  26.801 -0.3206 -0.1178 -0.0509
23662W        W28062   5.664   1.576   4.030 -0.2271 -0.4326 -0.0102
23663W        W28063   8.197   6.559  25.469 -0.0847  0.3294 -0.0219
23664W        W28064  21.462   4.103   5.694 -0.2824  0.1098 -0.1875
23665W        W28065  11.518   2.756  24.850 -0.2163 -0.0196  0.0501
23666W        W28066  21.537   0.699   9.859  0.0966 -0.3007  0.3257
23667W        W28067   5.130   3.269   3.927  0.0744  0.0551 -0.1622
23668W        W28068   3.364   5.254  23.418 -0.0389  0.0163 -0.1939
23669W        W28069  23.515   1.025  27.425 -0.0540 -0.1647 -0.2800
23670W        W28070  22.056   5.543  29.419 -0.2547  0.1542  0.1250
23671W        W28071  20.068   5.700   8.896  0.1179  0.3846  0.2571
23672W        W28072   9.086   0.650  12.681 -0.1727 -0.0388  0.0375
23673W        W28073  14.738   5.420  30.192  0.3105  0.0154  0.0635
23674W        W28074  21.337   3.047   0.536 -0.3055 -0.1110 -0.0248
23675W        W28075  20.537   3.931  31.879  0.0707 -0.0779 -0.0858
23676W        W28076   3.058   5.166  27.720  0.3411  0.0728 -0.2401
23677W        W28077   3.474   0.233  15.286 -0.0893 -0.1643  0.0813
23678W        W28078  19.345   3.003   6.773  0.0723 -0.1065 -0.2526
23679W        W28079   8.305   1.803  28.989  0.1145 -0.1818  0.2505
23680W        W28080  16.793   0.692  29.539  0.0894 -0.2105  0.1922
23681W        W28081   8.553   4.149  24.337  0.1376  0.2987 -0.3659
23682W        W28082   4.474   5.698  29.571 -0.0785 -0.1254 -0.2188
23683W        W28083  17.775   1.339  11.789  0.0041 -0.4368 -0.2965
23684W        W28084   9.372   6.420   6.677 -0.0375 -0.1179  0.1336
23685W        W28085  10.126   2.696   3.641 -0.0319 -0.0331  0.2569
23686W        W28086  12.233   6.194   2.698 -0.1549 -0.1493 -0.1576
23687W        W28087   4.680   1.807   3.401 -0.1299 -0.4705 -0.2266
23688W        W28088  11.985   4.852  34.808 -0.0966 -0.2157 -0.0164
23689W        W28089  10.895   4.265   0.095 -0.1056 -0.0614 -0.2205
23690W        W28090  26.358   1.583  21.754 -0.3403  0.0690  0.0041
23691W        W28091  18.463   2.334   8.492  0.0047 -0.0330  0.1401
23692W        W28092  23.503   6.239  26.407  0.0284 -0.1138  0.1723
23693W        W28093  23.308   6.544  25.024 -0.1640 -0.1756  0.1462
23694W        W28094  19.762   2.577   4.640  0.1661  0.0868  0.0423
23695W        W28095  12.543   1.159   4.791 -0.0941 -0.0073 -0.0517
23696W        W28096  22.214   4.628   2.262  0.2034 -0.0706 -0.1954
23697W        W28097  11.350   0.369   7.989 -0.2044 -0.3917  0.2795
23698W        W28098   4.842   3.369   7.156  0.1311  0.0870 -0.4348
23699W        W28099  12.166   5.733  13.433  0.1563  0.1642  0.1421
23700W        W28100  25.885   3.915  21.256 -0.0801  0.1069 -0.0457
23701W        W28101  16.085   3.700  21.480  0.1731  0.2427  0.1145
23702W        W28102  16.234   4.593  21.593 -0.2094  0.0020  0.2506
23703W        W28103  13.672   4.730  32.408  0.4114 -0.2396  0.2035
23704W        W28104  25.599   2.898  11.714  0.2067  0.0229  0.0277
23705W        W28105  14.888   6.348   3.830 -0.1262  0.1368 -0.0836
23706W        W28106   4.890   0.518  11.894  0.2222  0.2087 -0.1368
23707ION     NA28107  15.390   4.290  27.378  0.0464 -0.0078 -0.2616
23708ION     NA28108  18.382   4.621  33.028 -0.0521  0.0244  0.2354
23709ION     NA28109  12.406   1.335   9.207 -0.4105 -0.2298 -0.1783
23710ION     NA28110  11.913   0.859  27.220 -0.2332 -0.1417 -0.4519
23711ION     NA28111  24.559   4.129  35.249  0.2771  0.2199  0.1572
23712ION     NA28112   7.636   3.721  28.125  0.0804 -0.1600 -0.0112
23713ION     NA28113  18.441   4.790   3.469 -0.5836 -0.0754  0.1622
23714ION     NA28114   4.847   3.360  27.318 -0.2052  0.4635  0.1461
23715ION     NA28115   3.810   3.461   1.638 -0.0682  0.0609 -0.0294
23716ION     NA28116  11.995   3.196  30.912 -0.2526 -0.1014  0.0608
23717ION     NA28117   6.416   4.194  24.547 -0.1971  0.0492  0.1233
23718ION     NA28118   4.626   5.592  33.856 -0.1408  0.1656  0.2199
23719ION     NA28119   5.701   5.456  27.728 -0.0599 -0.1616  0.5505
23720ION     NA28120  22.626   3.663  24.952 -0.1895 -0.0144 -0.0711
23721ION     NA28121   6.480   0.105  28.737 -0.0013  0.0481 -0.3503
23722ION     NA28122  16.707   2.011  24.952 -0.0574 -0.2684  0.2925
23723ION     NA28123  22.737   1.863   0.980 -0.1859 -0.4216 -0.0701
23724ION     NA28124   5.746   4.567  11.715 -0.4139 -0.4008  0.2692
23725ION     NA28125  11.731   5.869   3.473 -0.1681 -0.1760 -0.5418
23726ION     NA28126   5.803   0.503  34.340 -0.6488  0.0680  0.0743
23727ION     NA28127   9.747   6.547  31.399 -0.4086 -0.0036  0.0313
23728ION     NA28128   0.322   4.888   7.085 -0.1037  0.2086 -0.0816
23729ION     NA28129  21.047   3.520  31.513 -0.0384  0.3689 -0.0516
23730ION     NA28130   8.550   3.709  12.391  0.1819  0.2889  0.0480
23731ION     NA28131   6.980   1.988   6.802 -0.2669 -0.1831 -0.2376
23732ION     NA28132  12.379   6.150  30.292  0.0625 -0.0501 -0.1215
23733ION     NA28133   8.417   0.701   9.327  0.4908  0.1267 -0.0489
23734ION     NA28134  21.409   2.055  25.897  0.0141 -0.2852 -0.0342
23735ION     NA28135  13.417   4.968  23.315  0.2925 -0.4205 -0.1712
23736ION     NA28136  16.453   1.605  34.386 -0.1822  0.2871  0.1380
23737ION     NA28137  19.968   4.035  25.169 -0.1157 -0.1209 -0.1937
23738ION     NA28138   5.170   5.431  23.881 -0.3945 -0.1007 -0.2599
23739ION     NA28139   5.352   3.603   4.710 -0.2944  0.1855 -0.3130
23740ION     NA28140   1.140   3.523   1.996  0.3040 -0.1264  0.1199
23741ION     NA28141   1.641   4.092  24.982 -0.4547  0.2940 -0.9531
23742ION     NA28142  23.175   2.952  33.502  0.0622 -0.2024 -0.2307
23743ION     NA28143  25.381   3.521  29.371  0.1238 -0.0951  0.2011
23744ION     NA28144   1.441   4.428  32.589 -0.1969  0.2071  0.3388
23745ION     NA28145   2.177   5.278  32.344  0.2152 -0.3423  0.0422
23746ION     NA28146  23.361   1.032  10.391 -0.0244 -0.1572  0.0338
23747ION     NA28147  19.457   2.077  29.585 -0.1272  0.4273  0.2867
23748ION     NA28148   3.576   5.299  23.007 -0.3175  0.0035  0.0699
23749ION     NA28149  11.292   1.866  36.003  0.3092 -0.0332  0.3261
23750ION     NA28150  18.047   6.098   2.344 -0.3079  0.1233  0.6893
23751ION     NA28151   5.431   1.277   4.961  0.1807 -0.0507 -0.1119
23752ION     NA28152   1.163   3.926  21.718  0.0946 -0.0455 -0.0270
23753ION     NA28153  13.698   6.011  29.446 -0.0407  0.4358 -0.0126
23754ION     NA28154  22.528   4.467  32.649  0.2662  0.1754  0.8250
23755ION     NA28155  19.838   6.076  10.001  0.2829 -0.1133  0.2007
23756ION     NA28156   5.475   1.617   6.188  0.0200  0.2115 -0.1419
23757ION     NA28157  14.361   6.319  29.028  0.2269  0.5010 -0.1665
23758ION     NA28158  23.952   3.304   4.026  0.0508  0.2451  0.1328
23759ION     NA28159  16.450   1.569  12.437  0.0844  0.1796 -0.0581
23760ION     NA28160  16.341   5.106  30.320 -0.2724 -0.0693  0.1057
23761ION     NA28161   5.986   5.440   0.441  0.5330  0.1132  0.1623
23762ION     NA28162   9.795   4.673  29.876  0.0663  0.5184  0.3605
23763ION     NA28163   3.497   2.875   7.854 -0.3596 -0.4975 -0.3293
23764ION     NA28164  19.794   3.297  11.024 -0.1952  0.3777  0.1093
23765ION     NA28165  26.386   2.335  24.627  0.0806 -0.5860 -0.1777
23766ION     NA28166   8.026   2.969  14.611 -0.2039 -0.1362 -0.2700
23767ION     NA28167  20.464   2.793   7.993  0.0199 -0.1486 -0.2092
23768ION     NA28168  17.702   1.994  23.150 -0.0961  0.0603  0.4037
23769ION     NA28169   9.299   0.655  11.007  0.3584 -0.0822 -0.1425
23770ION     NA28170   7.354   3.868  24.952 -0.4075  0.0898  0.2084
23771ION     NA28171   5.973   5.578  25.886 -0.0762 -0.1872  0.1614
23772ION     NA28172  14.237   2.448  12.688  0.0126  0.0742  0.2005
23773ION     NA28173  16.638   3.103  21.467 -0.2451  0.0341  0.1154
23774ION     NA28174  15.181   3.704   4.405 -0.1951  0.1397  0.1455
23775ION     NA28175  22.038   5.093  14.314 -0.3007  0.2167  0.1547
23776ION     NA28176  19.851   2.394   0.829 -0.1283  0.0843  0.3064
23777ION     NA28177   3.533   0.965   2.358 -0.0379 -0.0528  0.3146
23778ION     NA28178  15.049   2.210   7.517  0.3280  0.1412 -0.0238
23779ION     NA28179   7.527   2.399  14.646  0.3206 -0.2266  0.2143
23780ION     NA28180  20.885   2.665   5.178 -0.1033  0.3222  0.3706
23781ION     NA28181  21.053   2.258   0.244 -0.2085  0.1992 -0.2075
23782ION     NA28182  10.472   5.277   7.257 -0.1230 -0.0860 -0.1802
23783ION     NA28183  17.293   3.603  25.025 -0.1291 -0.0891  0.4913
23784ION     NA28184  26.418   1.939  33.031 -0.0247 -0.0537 -0.0418
23785ION     NA28185  15.209   2.244  22.560 -0.0226  0.0532  0.2233
23786ION     NA28186  16.068   0.954  14.974  0.0350  0.2903  0.4258
23787ION     NA28187   4.810   0.925  27.653  0.2895  0.3842 -0.4175
23788ION     NA28188  16.585   1.681  22.508 -0.0163 -0.4298  0.0144
23789ION     NA28189  15.539   6.270   1.789  0.2824 -0.4091 -0.3308
23790ION     NA28190  26.083   5.932  31.583  0.3417  0.2332  0.0570
23791ION     NA28191   8.950   5.030   8.790 -0.1698 -0.1213 -0.2077
23792ION     NA28192  11.770   0.259  10.233  0.1157 -0.0682  0.1260
23793ION     NA28193  23.591   1.106  26.631 -0.2226 -0.4096  0.2018
23794ION     NA28194  16.739   4.386  13.477  0.1216  0.0780  0.0608
23795ION     NA28195  13.458   5.719  12.408 -0.0727 -0.2010  0.6315
23796ION     NA28196   2.466   5.755  22.363 -0.1622 -0.4276 -0.2373
23797ION     NA28197  18.115   5.869  34.249 -0.0633  0.3015 -0.0700
23798ION     NA28198  14.044   0.763  13.787  0.1862 -0.1294 -0.3471
23799ION     NA28199  21.181   0.985   6.123  0.1967 -0.3745 -0.0740
23800ION     NA28200   2.853   5.593  21.434 -0.3398 -0.0676 -0.2670
23801ION     NA28201   2.115   4.081   5.374  0.0285 -0.0805  0.2204
23802ION     NA28202   0.673   6.164  25.923  0.0043  0.0653  0.0233
23803ION     NA28203  16.657   4.724  31.668  0.2321  0.2121 -0.3576
23804ION     NA28204   1.725   1.051  34.931  0.0696  0.0718 -0.1833
23805ION     NA28205   4.110   6.220  33.705  0.2904  0.3066  0.0737
23806ION     NA28206   3.359   4.968   6.564 -0.3456  0.3989 -0.0984
23807ION     NA28207  14.371   2.339  31.239  0.0662  0.2780 -0.3859
23808ION     NA28208  24.152   0.757   7.694 -0.6835 -0.5951  0.0301
23809ION     NA28209  17.924   2.796   0.678  0.0940 -0.0044 -0.0738
23810ION     NA28210   8.210   2.060  13.234  0.5252 -0.0453  0.0230
23811ION     NA28211  19.718   2.486  30.282 -0.2073 -0.4806  0.1165
23812ION     NA28212  22.927   0.801   5.723 -0.3413  0.2735  0.1722
23813ION     NA28213  25.119   1.021   0.440 -0.4695  0.0164  0.2189
23814ION     NA28214  17.443   6.490  24.477  0.3108 -0.2367  0.2313
23815ION     NA28215   4.096   0.928  26.744 -0.0350 -0.1547  0.0658
23816ION     NA28216  17.698   3.000  31.529  0.3165  0.0293 -0.4599
23817ION     NA28217  25.633   1.791   3.445 -0.0622  0.2550 -0.0996
23818ION     NA28218   5.234   4.316  32.217 -0.1034 -0.0954  0.0071
23819ION     NA28219   4.155   2.383  29.464  0.1597 -0.1901  0.4372
23820ION     NA28220  11.837   1.294   2.175 -0.0981  0.1258  0.3369
23821ION     NA28221   4.173   3.664  13.713  0.1864 -0.2875 -0.0804
23822ION     NA28222   9.574   3.382  34.011 -0.2487  0.2677 -0.3624
23823ION     NA28223  25.721   5.677   7.851 -0.4290 -0.2274  0.0584
23824ION     NA28224   4.782   3.530   7.552 -0.1159 -0.3491  0.5604
23825ION     NA28225   0.315   0.507   2.401  0.2917 -0.2003 -0.1266
23826ION     NA28226   4.250   2.241  34.965  0.2671 -0.2646  0.0035
23827ION     NA28227  18.077   2.862  11.845  0.1460  0.0031  0.0597
23828ION     NA28228  13.391   3.774   3.728 -0.2687 -0.0166  0.5236
23829ION     NA28229  11.843   4.401   9.913  0.2253  0.4575  0.2531
23830ION     NA28230  18.679   3.987  22.432 -0.0540 -0.1832 -0.0217
23831ION     NA28231   5.361   4.313  27.607 -0.1689 -0.0653 -0.2587
23832ION     NA28232  16.441   3.240   0.758 -0.0725  0.1953 -0.2155
23833ION     NA28233  14.465   5.850  25.923  0.1077 -0.1862  0.3481
23834ION     NA28234   7.425   4.958  11.011 -0.1173  0.2400  0.1024
23835ION     NA28235   4.000   1.560   3.183 -0.0913  0.7012 -0.4093
23836ION     NA28236  20.649   5.781  22.973 -0.5271  0.0790 -0.2918
23837ION     NA28237  12.080   2.117   8.450 -0.1640  0.3298  0.4184
23838ION     NA28238  24.506   0.576  12.188 -0.6058 -0.4669  0.1519
23839ION     NA28239  21.361   0.371   9.714  0.6980  0.2225  0.0368
23840ION     NA28240  13.429   1.099  26.685 -0.1124 -0.3797  0.2447
23841ION     NA28241   7.030   6.141   3.345 -0.1312 -0.0661  0.1909
23842ION     NA28242   1.541   5.731  10.387 -0.1884 -0.0946  0.1031
23843ION     NA28243  14.612   4.398   8.653  0.0602 -0.2775 -0.4956
23844ION     NA28244   0.282   0.808  10.097  0.2046  0.1779  0.1205
23845ION     NA28245  19.125   6.242   0.105  0.4668 -0.0629  0.0500
23846ION     NA28246   8.871   5.746   7.811  0.0871 -0.1600  0.0453
23847ION     NA28247   0.812   5.128   1.323  0.2034  0.0810 -0.1609
23848ION     NA28248  20.821   1.245  27.959 -0.3749  0.1198  0.3251
23849ION     NA28249  11.589   0.279  25.812  0.0975 -0.1016 -0.0958
23850ION     NA28250  13.141   0.776  34.733  0.0343 -0.1452  0.1099
23851ION     NA28251   9.879   0.331   9.296  0.1000  0.1673 -0.1776
23852ION     CL28252  16.499   4.143  32.693  0.0253 -0.2382 -0.1230
23853ION     CL28253  14.155   3.511   8.489  0.2812 -0.2834  0.2349
23854ION     CL28254  17.687   6.114  34.706 -0.0134  0.1754 -0.3614
23855ION     CL28255  10.676   3.525   0.033 -0.1222 -0.0993 -0.0622
23856ION     CL28256  17.360   3.265  11.263  0.0767  0.6930 -0.3231
23857ION     CL28257   6.656   5.343   2.768 -0.0301  0.1899  0.2902
23858ION     CL28258  25.081   0.411   3.819 -0.2547  0.0164  0.0235
23859ION     CL28259  24.747   6.580  28.711  0.2733 -0.0504  0.1737
23860ION     CL28260  12.297   6.297  34.323  0.1892  0.4131 -0.1235
23861ION     CL28261   1.356   4.716  32.912 -0.1101  0.2933  0.1388
23862ION     CL28262   0.682   0.207   0.513 -0.0299 -0.2057 -0.2058
23863ION     CL28263  10.192   5.959  27.566  0.1511  0.2254 -0.5864
23864ION     CL28264  16.784   2.600   4.853 -0.2475 -0.1143  0.4367
23865ION     CL28265   6.978   4.555   5.396  0.1676 -0.0449 -0.3345
23866ION     CL28266  21.656   5.617  32.049 -0.2650  0.0861  0.1533
23867ION     CL28267   9.554   0.840  34.230  0.4000 -0.1642  0.2675
23868ION     CL28268  15.041   4.722  31.252 -0.2287 -0.0592  0.4982
23869ION     CL28269  22.775   6.161  14.643 -0.0219  0.3100  0.2022
23870ION     CL28270  10.074   6.564   6.005 -0.0899  0.1963 -0.1624
23871ION     CL28271   7.686   5.794  34.121  0.1827 -0.1504  0.0041
23872ION     CL28272  21.554   1.333  33.030 -0.0446 -0.0901 -0.1817
23873ION     CL28273   2.989   0.528  13.007  0.0507 -0.2589  0.1239
23874ION     CL28274  21.655   0.881  30.035  0.0515  0.2422  0.2054
23875ION     CL28275   9.914   2.334   5.465 -0.1205 -0.1687 -0.2085
23876ION     CL28276   5.997   0.385  29.068  0.0587 -0.1132 -0.0620
23877ION     CL28277   4.981   4.890  24.256  0.2524 -0.3665  0.1665
23878ION     CL28278  13.999   0.261  28.803 -0.2182  0.0860 -0.6807
23879ION     CL28279  25.411   1.821  27.160  0.2154 -0.1875 -0.0904
23880ION     CL28280   2.372   6.599  25.095 -0.6989 -0.0696 -0.0975
23881ION     CL28281   8.944   3.378   2.015 -0.4707  0.1682 -0.2616
23882ION     CL28282  19.625   5.341   3.111 -0.4027  0.2946 -0.1004
23883ION     CL28283  26.335   2.785  35.059 -0.3980  0.2506 -0.4341
23884ION     CL28284  24.473   0.734   4.796  0.2279  0.3065 -0.6591
23885ION     CL28285  18.897   5.854  14.121 -0.4520 -0.3477 -0.1769
23886ION     CL28286  21.538   4.255  33.109  0.0331  0.3215  0.1324
23887ION     CL28287   4.474   4.862   6.766 -0.0947 -0.2341  0.5397
23888ION     CL28288  13.522   5.238   3.147  0.4858  0.0195  0.1856
23889ION     CL28289  15.117   0.019  33.202  0.0903 -0.4390  0.4279
23890ION     CL28290   4.974   4.530   8.953  0.4315 -0.4028  0.0617
23891ION     CL28291  10.023   5.385  28.930  0.0313 -0.1464  0.2099
23892ION     CL28292   9.963   1.881  23.578  0.4217  0.2711 -0.0159
23893ION     CL28293  22.682   5.257  33.102  0.1428 -0.4924  0.4764
23894ION     CL28294  12.252   0.523  27.519 -0.0971  0.3274 -0.4547
23895ION     CL28295  14.854   3.325   4.323  0.2679 -0.1458  0.0367
23896ION     CL28296  19.827   0.626  23.106 -0.0928 -0.1412  0.3873
23897ION     CL28297  24.026   2.555  33.075 -0.1976  0.1914  0.3639
23898ION     CL28298   9.983   0.237  33.745 -0.0464  0.0635 -0.3123
23899ION     CL28299  20.906   2.528   0.686  0.0142  0.2201 -0.1290
23900ION     CL28300  19.484   0.562  25.052 -0.0190  0.0012  0.3641
23901ION     CL28301  20.120   3.665  25.407  0.4268 -0.5366  0.2377
23902ION     CL28302  19.963   2.446  11.170  0.3587 -0.0714  0.1968
23903ION     CL28303  25.793   3.326   0.679 -0.0680  0.2820 -0.3427
23904ION     CL28304   3.203   5.998  14.697 -0.2560  0.2327  0.3470
23905ION     CL28305  14.648   4.519   5.584  0.1113  0.0445 -0.2657
23906ION     CL28306  12.248   4.940  34.480  0.0998 -0.4341 -0.1540
23907ION     CL28307  25.290   5.159  25.473  0.4203  0.1455  0.3241
23908ION     CL28308  15.557   2.316  22.391  0.3091 -0.3065  0.0727
23909ION     CL28309  11.149   0.250  34.387  0.0711  0.3422 -0.2501
23910ION     CL28310  13.857   0.269  24.503  0.2332  0.1545  0.0097
23911ION     CL28311  24.053   6.293   0.376 -0.0851  0.0646  0.0434
23912ION     CL28312   2.264   4.547  34.869 -0.4188  0.0486 -0.5078
23913ION     CL28313  16.822   1.772  29.150  0.0704  0.1563  0.3137
23914ION     CL28314   3.018   2.023   7.789  0.1676 -0.2368 -0.4482
23915ION     CL28315   5.262   5.879   8.100 -0.2381 -0.2572  0.2770
23916ION     CL28316   7.074   5.266  33.938 -0.2149 -0.3864 -0.3424
23917ION     CL28317   8.871   1.703   5.573 -0.1505 -0.0954  0.1486
23918ION     CL28318  20.654   2.086  11.690  0.3706 -0.2378 -0.0804
23919ION     CL28319  22.172   0.533  27.245 -0.2707  0.2002 -0.5959
23920ION     CL28320   5.264   2.469  31.913  0.1204  0.1034  0.3868
23921ION     CL28321   5.819   1.056   5.669  0.0136 -0.0595 -0.1392
23922ION     CL28322  25.729   4.780  24.786 -0.0760  0.1485  0.0129
23923ION     CL28323  19.365   5.546  10.015  0.7386  0.0612 -0.1012
23924ION     CL28324  17.546   1.023  24.799  0.4034 -0.0280 -0.4020
23925ION     CL28325   4.303   1.346   1.958 -0.4269  0.1710 -0.3231
23926ION     CL28326  11.951   1.909   1.859  0.3031 -0.1466  0.0590
23927ION     CL28327   0.740   0.541  12.135  0.3132  0.1915  0.4045
23928ION     CL28328  19.738   1.707  28.987 -0.0071  0.0787 -0.3330
23929ION     CL28329  15.657   6.160   8.939 -0.1946 -0.3985  0.6223
23930ION     CL28330  18.469   0.488   8.691  0.0683 -0.5278  0.6136
23931ION     CL28331  12.000   1.104  26.846  0.2117  0.5632  0.3942
23932ION     CL28332  16.250   3.419  29.089  0.0108  0.0634  0.2510
23933ION     CL28333   6.341   5.526   1.373 -0.2253 -0.2392 -0.3988
23934ION     CL28334  16.295   3.677  34.149 -0.0095 -0.0290  0.5859
23935ION     CL28335   1.754   2.897   2.079  0.1696 -0.1075 -0.6226
23936ION     CL28336   8.060   0.691   8.270  0.1670 -0.2793 -0.1016
23937ION     CL28337  23.077   2.986  36.095  0.2210 -0.1180  0.2860
23938ION     CL28338  17.748   2.809   5.228 -0.5914  0.0150  0.2826
23939ION     CL28339  21.912   5.361   3.336 -0.2046 -0.2690 -0.1301
23940ION     CL28340  17.970   1.574   8.643  0.1009 -0.0205  0.2034
23941ION     CL28341  14.185   2.009   6.449  0.0083 -0.4904 -0.0934
23942ION     CL28342   4.016   1.710  24.820  0.1654  0.0885  0.2463
23943ION     CL28343  16.730   6.034  22.422 -0.0288 -0.2665  0.1554
23944ION     CL28344  22.872   2.236  10.691 -0.3121  0.0243  0.0153
23945ION     CL28345  10.610   5.887  24.081  0.1807 -0.2641  0.4031
23946ION     CL28346   0.655   5.157   0.241 -0.1716 -0.1795 -0.1389
23947ION     CL28347  14.507   6.165  21.102 -0.3855 -0.1972  0.7569
23948ION     CL28348  22.522   3.114  24.915 -0.0278  0.0765  0.1952
23949ION     CL28349  16.199   4.703   4.609  0.0460  0.0835  0.0178
23950ION     CL28350   1.229   5.022   0.459  0.5352  0.2765 -0.4443
23951ION     CL28351   1.640   0.458  13.249  0.4737 -0.1742  0.0635
23952ION     CL28352  10.726   5.838   0.635 -0.3104  0.2959 -0.1451
23953ION     CL28353  13.019   2.899  26.407 -0.4425  0.3133  0.2795
23954ION     CL28354   9.834   2.228  24.701  0.0421  0.1226  0.1813
23955ION     CL28355  13.808   5.446   9.483  0.0773 -0.0255 -0.0066
23956ION     CL28356   5.333   2.379  23.752 -0.0906 -0.3045  0.3246
23957ION     CL28357  10.436   2.557  35.564 -0.0251 -0.0271 -0.3716
23958ION     CL28358  26.405   2.935  32.906 -0.3137  0.2578  0.0105
23959ION     CL28359  22.346   2.067  12.538 -0.2232 -0.1856  0.1223
23960ION     CL28360  10.162   4.669  28.485 -0.2394  0.4627  0.3570
23961ION     CL28361  12.288   6.159  13.428 -0.0552 -0.3199  0.3530
23962ION     CL28362   1.617   0.772  28.372  0.1958  0.1359 -0.0595
23963ION     CL28363  23.952   2.386  29.804 -0.4563 -0.1134  0.1807
23964ION     CL28364   0.032   3.369  36.122  0.1227 -0.2165 -0.2964
23965ION     CL28365  14.745   3.819  11.178  0.2991  0.0113 -0.1234
23966ION     CL28366  10.478   6.570  23.526 -0.2850 -0.0498 -0.2746
23967ION     CL28367  17.282   2.529  10.474  0.0636  0.0709 -0.2643
23968ION     CL28368  11.190   5.021  24.551  0.1007  0.2382 -0.1128
23969ION     CL28369   1.826   6.311   0.232  0.1755 -0.1307  0.0491
23970ION     CL28370  16.558   0.498   5.099 -0.2717  0.7677  0.0711
23971ION     CL28371  11.094   0.554  10.233  0.0851 -0.0443 -0.0926
23972ION     CL28372   7.965   0.876  22.916 -0.1089  0.1847 -0.1573
23973ION     CL28373  13.927   1.522  27.421  0.0327 -0.1428  0.2041
23974ION     CL28374  17.998   6.207   6.046 -0.3300  0.3822 -0.2217
23975ION     CL28375   8.354   1.831  13.007 -0.2165  0.3104  0.1847
23976ION     CL28376   5.780   2.685   7.973  0.1906  0.4030 -0.1482
23977ION     CL28377  12.032   1.103  14.702  0.1632  0.2470  0.2179
23978ION     CL28378  14.792   5.340   1.547 -0.3939  0.0020  0.1155
23979ION     CL28379  24.786   3.153  10.634  0.1270 -0.1452 -0.2688
23980ION     CL28380   6.825   0.973   4.868  0.0192  0.0274  0.0514
23981ION     CL28381  25.651   4.181  29.578 -0.7011  0.1092  0.1255
23982ION     CL28382   3.864   4.295  12.561  0.1698 -0.1879 -0.2320
23983ION     CL28383   9.447   2.155  25.794 -0.3043  0.4737  0.2709
23984ION     CL28384   7.194   0.484  27.336 -0.3045 -0.2919 -0.2612
23985ION     CL28385  13.275   1.092  13.597  0.3001  0.3362  0.3212
23986ION     CL28386  12.496   3.594   3.870 -0.7319  0.2043 -0.1051
23987ION     CL28387  23.762   0.515   7.024 -0.5360 -0.0991 -0.1545
23988ION     CL28388   0.783   1.665  34.531  0.2878  0.4345  0.0452
23989ION     CL28389  12.785   0.253   7.251 -0.3702  0.3386  0.0061
23990ION     CL28390  17.903   4.249  22.406 -0.1470  0.0485 -0.0084
23991ION     CL28391   0.001   1.021   5.240 -0.1081  0.2170 -0.4667
23992ION     CL28392   6.755   3.553  25.316 -0.2593 -0.1526 -0.5336
23993ION     CL28393   3.581   6.491  28.766 -0.1236 -0.3154 -0.2404
23994ION     CL28394  10.190   4.443  29.443  0.0856  0.1480 -0.0763
23995ION     CL28395  16.675   6.007  14.693 -0.2605  0.1267 -0.4423
23996ION     CL28396  18.567   5.930   4.973 -0.3211 -0.0209  0.0402
23997DPPC   NC328397   0.717   4.563  19.831  0.0216 -0.0721  0.0137
23997DPPC   PO428398   0.757   4.446  20.218  0.0529  0.0001 -0.2835
23997DPPC   GL128399   1.078   4.235  19.993 -0.2382 -0.0190 -0.1329
23997DPPC   GL228400   1.285   4.413  19.992  0.1839  0.0731  0.4382
23997DPPC   C1A28401   0.964   4.184  19.631 -0.3514  0.0841  0.2096
23997DPPC   C2A28402   1.040   4.333  19.263  0.1431 -0.5676 -0.0118
23997DPPC   C3A28403   1.038   4.359  18.808  0.0893 -0.0036 -0.3526
23997DPPC   C4A28404   0.979   4.359  18.322 -0.2171  0.0514  0.0640
23997DPPC   C1B28405   1.409   4.302  19.674 -0.0540 -0.0785  0.0059
23997DPPC   C2B28406   1.530   4.180  19.300  0.1374  0.1361  0.1738
23997DPPC   C3B28407   1.517   4.299  18.827  0.0967 -0.0458 -0.0152
23997DPPC   C4B28408   1.558   4.251  18.348 -0.1865  0.2088  0.1922
23998DPPC   NC328409   1.058   3.906  20.312  0.2562 -0.2824 -0.3904
23998DPPC   PO428410   1.134   3.598  20.085  0.2810 -0.1670 -0.0902
23998DPPC   GL128411   1.127   3.626  19.716  0.2639 -0.1936  0.0762
23998DPPC   GL228412   0.993   3.519  19.505  0.0408 -0.1676 -0.2437
23998DPPC   C1A28413   1.197   3.851  19.404  0.1576 -0.0024 -0.3744
23998DPPC   C2A28414   1.217   3.912  19.005 -0.0421 -0.2278 -0.2304
23998DPPC   C3A28415   1.137   3.932  18.562  0.2328  0.1171  0.1482
23998DPPC   C4A28416   1.256   3.906  18.095  0.0638 -0.1296 -0.2856
23998DPPC   C1B28417   0.901   3.612  19.194  0.3296  0.0027 -0.0502
23998DPPC   C2B28418   0.913   3.524  18.780  0.1858 -0.2784 -0.1718
23998DPPC   C3B28419   0.924   3.453  18.290  0.0065 -0.0086 -0.3121
23998DPPC   C4B28420   0.967   3.610  17.816 -0.1491  0.1171 -0.1475
23999DPPC   NC328421   4.528   0.113  20.123 -0.2463  0.1070  0.3251
23999DPPC   PO428422   4.926   0.185  20.178 -0.1127 -0.0278 -0.2279
23999DPPC   GL128423   4.890   0.057  19.797 -0.2868 -0.0788 -0.1683
23999DPPC   GL228424   4.660   0.107  19.680  0.1653  0.1423  0.3928
23999DPPC   C1A28425   5.112   0.030  19.543  0.1010 -0.0531  0.1606
23999DPPC   C2A28426   5.214  -0.012  19.130 -0.0119  0.0860  0.0583
23999DPPC   C3A28427   5.263   0.003  18.660  0.1031  0.0610 -0.0631
23999DPPC   C4A28428   5.322  -0.106  18.221  0.0024 -0.2948 -0.0617
23999DPPC   C1B28429   4.709   0.092  19.315  0.0253  0.2822  0.2694
23999DPPC   C2B28430   4.781   0.157  18.903 -0.0835  0.0701 -0.0278
23999DPPC   C3B28431   4.779   0.132  18.453 -0.1371  0.3620 -0.0029
23999DPPC   C4B28432   4.813   0.048  17.941 -0.1295  0.2415 -0.1231
24000DPPC   NC328433   5.327   1.866  20.224 -0.0128 -0.0177 -0.0697
24000DPPC   PO428434   5.690   1.804  20.092  0.0102 -0.0918 -0.0511
24000DPPC   GL128435   5.982   1.842  19.815  0.0485 -0.1874  0.4273
24000DPPC   GL228436   5.765   2.053  19.654 -0.0901  0.3067  0.2927
24000DPPC   C1A28437   6.018   1.721  19.502  0.1938 -0.2316  0.0775
24000DPPC   C2A28438   6.100   1.675  19.131 -0.0063  0.0655  0.0668
24000DPPC   C3A28439   6.079   1.565  18.691  0.3397 -0.0513  0.1880
24000DPPC   C4A28440   6.153   1.518  18.192 -0.1616  0.4638 -0.1939
24000DPPC   C1B28441   5.926   2.092  19.302  0.0643  0.4558  0.0174
24000DPPC   C2B28442   5.849   2.087  18.878  0.1814 -0.0320 -0.0021
24000DPPC   C3B28443   5.855   2.051  18.376 -0.2779  0.0092 -0.3009
24000DPPC   C4B28444   5.976   2.045  17.931  0.1656  0.1727  0.1497
24001DPPC   NC328445   0.244   3.366  20.392  0.2753 -0.1377 -0.0478
24001DPPC   PO428446   0.472   3.539  20.129  0.2854 -0.0109  0.0483
24001DPPC   GL128447   0.428   3.488  19.728  0.2653  0.1862 -0.0468
24001DPPC   GL228448   0.358   3.709  19.576 -0.3106  0.5740  0.0472
24001DPPC   C1A28449   0.603   3.313  19.454 -0.0386  0.1503  0.3483
24001DPPC   C2A28450   0.645   3.153  19.073 -0.1815 -0.2982  0.1222
24001DPPC   C3A28451   0.587   3.133  18.595 -0.0335  0.1002  0.1934
24001DPPC   C4A28452   0.557   3.142  18.085 -0.0912  0.1631 -0.2231
24001DPPC   C1B28453   0.376   3.679  19.243 -0.1098 -0.2483 -0.2364
24001DPPC   C2B28454   0.419   3.632  18.776 -0.0988  0.0669 -0.1239
24001DPPC   C3B28455   0.468   3.612  18.268  0.1312  0.0426 -0.0706
24001DPPC   C4B28456   0.410   3.666  17.848  0.2613  0.1533  0.4673
24002DPPC   NC328457   2.809   1.376  20.256  0.2773 -0.3406 -0.4229
24002DPPC   PO428458   3.124   1.161  20.154 -0.1051 -0.0150 -0.0682
24002DPPC   GL128459   3.210   1.104  19.794 -0.0273 -0.4062  0.3774
24002DPPC   GL228460   2.987   0.887  19.757  0.1249  0.4132  0.4254
24002DPPC   C1A28461   3.434   1.215  19.522  0.0830 -0.3665  0.2423
24002DPPC   C2A28462   3.455   1.208  19.102  0.0736  0.1026 -0.2807
24002DPPC   C3A28463   3.370   1.247  18.623  0.0354  0.4143 -0.0746
24002DPPC   C4A28464   3.418   1.207  18.092 -0.0091  0.0139 -0.3163
24002DPPC   C1B28465   3.089   0.835  19.421  0.0531  0.1038 -0.3463
24002DPPC   C2B28466   3.159   0.804  18.981  0.0069 -0.0654 -0.1789
24002DPPC   C3B28467   3.001   0.826  18.528  0.3554 -0.1433 -0.0866
24002DPPC   C4B28468   2.983   0.897  18.036 -0.0882 -0.1671  0.3173
24003DPPC   NC328469   5.902   5.246  20.481 -0.2984 -0.0727  0.3508
24003DPPC   PO428470   6.113   5.573  20.470 -0.0336  0.0626  0.1147
24003DPPC   GL128471   6.399   5.754  20.256 -0.1140  0.0282 -0.6144
24003DPPC   GL228472   6.412   5.508  20.127 -0.1645  0.0005 -0.1677
24003DPPC   C1A28473   6.305   5.848  19.918  0.0546 -0.5649 -0.0394
24003DPPC   C2A28474   6.279   5.889  19.534 -0.0808 -0.1062 -0.3237
24003DPPC   C3A28475   6.403   5.890  19.095 -0.1410 -0.0145  0.0463
24003DPPC   C4A28476   6.463   5.932  18.622  0.0090 -0.0288  0.0556
24003DPPC   C1B28477   6.445   5.331  19.789 -0.0970  0.0844 -0.1790
24003DPPC   C2B28478   6.536   5.386  19.418  0.2370  0.0096  0.3723
24003DPPC   C3B28479   6.619   5.461  18.957 -0.0549  0.0187 -0.3342
24003DPPC   C4B28480   6.591   5.475  18.505 -0.1444 -0.1120  0.0748
24004DPPC   NC328481   1.743   0.929  19.986  0.0191 -0.1195 -0.1441
24004DPPC   PO428482   1.715   1.154  19.680  0.2026  0.0491 -0.0773
24004DPPC   GL128483   1.644   1.047  19.255 -0.0464  0.0140  0.1747
24004DPPC   GL228484   1.369   1.227  19.343 -0.4395 -0.2028 -0.0197
24004DPPC   C1A28485   1.595   1.102  18.908 -0.2016 -0.0483  0.1863
24004DPPC   C2A28486   1.604   1.121  18.493 -0.0224  0.0763  0.3208
24004DPPC   C3A28487   1.626   1.149  17.994  0.0379 -0.0558  0.0045
24004DPPC   C4A28488   1.662   1.053  17.531 -0.0857 -0.1055  0.1082
24004DPPC   C1B28489   1.237   1.304  19.040 -0.0228 -0.0109  0.3241
24004DPPC   C2B28490   1.140   1.292  18.644  0.1901 -0.0735  0.0352
24004DPPC   C3B28491   1.106   1.270  18.164  0.0217  0.0994  0.0832
24004DPPC   C4B28492   0.902   0.861  17.952 -0.1218  0.1039  0.0129
24005DPPC   NC328493   4.334   0.876  20.376  0.0633  0.0127  0.2715
24005DPPC   PO428494   3.949   0.824  20.368  0.0319 -0.3418  0.0823
24005DPPC   GL128495   4.096   0.889  19.985  0.0257 -0.3309 -0.0984
24005DPPC   GL228496   3.875   0.627  19.925  0.0512 -0.1145  0.0448
24005DPPC   C1A28497   4.323   0.915  19.706  0.2235 -0.0854  0.3235
24005DPPC   C2A28498   4.355   0.991  19.337  0.0440  0.2534 -0.1502
24005DPPC   C3A28499   4.416   1.021  18.844 -0.0086 -0.1697 -0.0060
24005DPPC   C4A28500   4.417   0.986  18.397 -0.1398 -0.0739 -0.0232
24005DPPC   C1B28501   3.996   0.546  19.568  0.4165  0.0820  0.0198
24005DPPC   C2B28502   4.032   0.667  19.208 -0.0102 -0.1586 -0.1371
24005DPPC   C3B28503   4.144   0.627  18.806  0.2196  0.2008 -0.1361
24005DPPC   C4B28504   4.026   0.630  18.353  0.1744  0.1080  0.0794
24006DPPC   NC328505   3.478   3.854  20.731  0.0687 -0.2227  0.3193
24006DPPC   PO428506   3.327   4.150  20.518  0.2379 -0.0230 -0.0683
24006DPPC   GL128507   3.262   4.036  20.125  0.0007  0.1685  0.0980
24006DPPC   GL228508   3.215   4.314  20.022  0.3090  0.0131 -0.2900
24006DPPC   C1A28509   3.350   3.866  19.810 -0.0688 -0.0309 -0.1231
24006DPPC   C2A28510   3.392   3.899  19.393 -0.3047 -0.0471  0.0740
24006DPPC   C3A28511   3.469   3.888  18.915  0.1638 -0.2174 -0.1417
24006DPPC   C4A28512   3.500   3.858  18.420 -0.1006 -0.0532 -0.0965
24006DPPC   C1B28513   3.298   4.372  19.703 -0.0641  0.1515  0.1113
24006DPPC   C2B28514   3.309   4.398  19.291 -0.0231 -0.2803 -0.0793
24006DPPC   C3B28515   3.320   4.357  18.744 -0.1537 -0.1515  0.2149
24006DPPC   C4B28516   3.294   4.332  18.215  0.0106  0.0148  0.3172
24007DPPC   NC328517   2.387   5.163  20.041 -0.3891 -0.1686  0.0321
24007DPPC   PO428518   2.269   5.555  20.053  0.1848 -0.4015 -0.1179
24007DPPC   GL128519   2.207   5.934  19.794 -0.1828  0.1238 -0.2733
24007DPPC   GL228520   2.455   6.095  19.924  0.1359  0.1245 -0.0808
24007DPPC   C1A28521   2.270   5.875  19.405  0.1722 -0.2369  0.0231
24007DPPC   C2A28522   2.283   5.866  18.980 -0.1361 -0.1097  0.2655
24007DPPC   C3A28523   2.322   5.816  18.482  0.1870 -0.0965 -0.2154
24007DPPC   C4A28524   2.416   5.786  18.002  0.0407  0.0418 -0.1880
24007DPPC   C1B28525   2.569   6.223  19.583  0.0333 -0.1818  0.0922
24007DPPC   C2B28526   2.657   6.178  19.167 -0.2181  0.0801  0.0425
24007DPPC   C3B28527   2.640   6.239  18.703  0.2601  0.3835  0.0043
24007DPPC   C4B28528   2.721   6.231  18.171 -0.0616 -0.2701 -0.1114
24008DPPC   NC328529   1.824   1.778  20.367  0.2167 -0.0381 -0.0316
24008DPPC   PO428530   2.112   1.997  20.168 -0.2350  0.1391  0.0380
24008DPPC   GL128531   2.152   1.862  19.736  0.2613  0.1015  0.3890
24008DPPC   GL228532   2.383   2.104  19.763  0.0869  0.0351 -0.1183
24008DPPC   C1A28533   2.369   1.632  19.464 -0.0771 -0.1113 -0.1398
24008DPPC   C2A28534   2.413   1.389  19.112 -0.1135  0.1880 -0.0157
24008DPPC   C3A28535   2.324   1.398  18.621 -0.0023 -0.4398  0.2961
24008DPPC   C4A28536   2.371   1.419  18.125 -0.0284 -0.0464  0.0708
24008DPPC   C1B28537   2.399   2.046  19.371 -0.1845 -0.0525  0.0507
24008DPPC   C2B28538   2.200   1.963  19.047 -0.0390  0.1550  0.2679
24008DPPC   C3B28539   2.203   1.868  18.553  0.2504  0.0341 -0.1428
24008DPPC   C4B28540   2.233   1.920  18.041 -0.0273 -0.3243 -0.0297
24009DPPC   NC328541   1.799   2.785  20.432  0.0687 -0.2145 -0.0798
24009DPPC   PO428542   2.172   2.836  20.304  0.1115 -0.0487  0.1415
24009DPPC   GL128543   2.061   2.854  19.754 -0.0769 -0.1713 -0.1849
24009DPPC   GL228544   2.248   3.009  19.888  0.0422 -0.0419 -0.0665
24009DPPC   C1A28545   2.029   2.793  19.405 -0.2794  0.0226  0.0795
24009DPPC   C2A28546   1.947   2.842  19.032 -0.2565 -0.0992  0.3519
24009DPPC   C3A28547   2.025   2.866  18.521  0.2387 -0.1614  0.1899
24009DPPC   C4A28548   2.017   2.837  18.004  0.1102  0.0931 -0.1446
24009DPPC   C1B28549   2.368   3.108  19.531 -0.0903  0.1474  0.0484
24009DPPC   C2B28550   2.336   3.179  19.180 -0.0378 -0.3185  0.0450
24009DPPC   C3B28551   2.327   3.227  18.732  0.2721  0.0805 -0.0678
24009DPPC   C4B28552   2.270   3.236  18.239 -0.0351 -0.4589  0.0340
24010DPPC   NC328553   5.227   5.799  20.583 -0.0348  0.3208 -0.0354
24010DPPC   PO428554   5.565   5.623  20.435 -0.0419  0.0039 -0.0561
24010DPPC   GL128555   5.827   5.615  20.098 -0.1707 -0.0700  0.2447
24010DPPC   GL228556   5.639   5.456  19.929  0.3073 -0.2504 -0.0642
24010DPPC   C1A28557   5.851   5.862  19.869 -0.4142  0.0184 -0.3672
24010DPPC   C2A28558   5.814   6.039  19.490 -0.0005 -0.4181 -0.3036
24010DPPC   C3A28559   5.945   5.986  19.010 -0.0495 -0.2088 -0.1461
24010DPPC   C4A28560   5.979   5.958  18.506  0.0499 -0.0170 -0.0830
24010DPPC   C1B28561   5.580   5.615  19.603 -0.1621 -0.2609  0.1262
24010DPPC   C2B28562   5.513   5.621  19.191  0.0266 -0.0506  0.1464
24010DPPC   C3B28563   5.620   5.600  18.726 -0.0730  0.0716  0.1618
24010DPPC   C4B28564   5.695   5.637  18.214  0.3303  0.2082  0.1739
24011DPPC   NC328565   2.465   2.329  20.252 -0.2764  0.0033 -0.0521
24011DPPC   PO428566   2.556   2.681  20.072 -0.0171  0.0507 -0.0719
24011DPPC   GL128567   2.662   2.452  19.710  0.0097  0.3440 -0.1264
24011DPPC   GL228568   2.333   2.548  19.627  0.1654 -0.0056  0.0321
24011DPPC   C1A28569   2.678   2.350  19.330  0.1317 -0.0376  0.0335
24011DPPC   C2A28570   2.662   2.293  18.953 -0.1011  0.1334 -0.0373
24011DPPC   C3A28571   2.580   2.330  18.486 -0.2625  0.0699 -0.0842
24011DPPC   C4A28572   2.643   2.297  17.988  0.2813 -0.1134 -0.1383
24011DPPC   C1B28573   2.459   2.722  19.307 -0.0122 -0.1542 -0.0556
24011DPPC   C2B28574   2.511   2.752  18.902  0.2194 -0.2506  0.3025
24011DPPC   C3B28575   2.511   2.804  18.413  0.1810 -0.0717  0.3205
24011DPPC   C4B28576   2.555   2.815  17.974 -0.0562 -0.1722 -0.0897
24012DPPC   NC328577   4.363   2.929  19.973 -0.3951  0.0773 -0.1862
24012DPPC   PO428578   4.050   3.071  20.155 -0.1861 -0.2607 -0.1086
24012DPPC   GL128579   3.970   3.165  19.755 -0.1059  0.1324  0.0576
24012DPPC   GL228580   3.688   3.005  19.711 -0.3030  0.4116 -0.2207
24012DPPC   C1A28581   4.155   3.327  19.494  0.1979  0.1564 -0.1731
24012DPPC   C2A28582   4.077   3.278  19.124  0.1018  0.2872  0.0735
24012DPPC   C3A28583   4.160   3.286  18.636 -0.1590 -0.1011 -0.1031
24012DPPC   C4A28584   4.217   3.321  18.084  0.1231  0.1457 -0.1432
24012DPPC   C1B28585   3.733   2.995  19.306 -0.0951 -0.0491 -0.2245
24012DPPC   C2B28586   3.739   2.988  18.904 -0.0226  0.2127  0.0375
24012DPPC   C3B28587   3.832   2.964  18.399  0.2104 -0.0658 -0.4713
24012DPPC   C4B28588   3.870   2.889  17.925  0.1389  0.1759 -0.0996
24013DPPC   NC328589   4.396   6.080  20.307  0.1356 -0.1992 -0.2308
24013DPPC   PO428590   4.117   6.347  20.370  0.0144  0.1239  0.3185
24013DPPC   GL128591   3.977   6.286  19.971  0.1466 -0.1108  0.0551
24013DPPC   GL228592   4.243   6.418  19.973  0.3082  0.1713 -0.5028
24013DPPC   C1A28593   4.047   6.068  19.682  0.2772  0.0524 -0.2541
24013DPPC   C2A28594   4.069   6.020  19.305  0.0761  0.0483 -0.1267
24013DPPC   C3A28595   4.125   5.984  18.828 -0.0847  0.1922  0.1864
24013DPPC   C4A28596   4.118   6.038  18.354  0.4860  0.1229 -0.0486
24013DPPC   C1B28597   4.342   6.405  19.617 -0.1987 -0.0324  0.1584
24013DPPC   C2B28598   4.427   6.327  19.215  0.1994 -0.1620 -0.2972
24013DPPC   C3B28599   4.422   6.369  18.706 -0.1952  0.1239  0.3935
24013DPPC   C4B28600   4.491   6.397  18.227 -0.1722  0.1988  0.0141
24014DPPC   NC328601   1.415   5.188  19.972  0.0737  0.0647  0.2689
24014DPPC   PO428602   1.848   5.189  19.990 -0.4318 -0.0203  0.1765
24014DPPC   GL128603   1.767   5.217  19.592  0.0269  0.0787 -0.0496
24014DPPC   GL228604   2.059   5.203  19.607 -0.1183 -0.0749  0.0419
24014DPPC   C1A28605   1.675   5.124  19.236  0.2444 -0.0033  0.3780
24014DPPC   C2A28606   1.625   5.157  18.828 -0.2178 -0.0679 -0.1065
24014DPPC   C3A28607   1.665   5.125  18.312 -0.0113 -0.1091 -0.0329
24014DPPC   C4A28608   1.605   5.067  17.838  0.0953 -0.2052  0.0674
24014DPPC   C1B28609   2.107   5.089  19.312 -0.1387  0.1987 -0.2422
24014DPPC   C2B28610   2.083   5.047  18.936  0.0481 -0.0006  0.0888
24014DPPC   C3B28611   2.117   5.023  18.436  0.3799 -0.1282  0.1562
24014DPPC   C4B28612   2.183   4.963  17.941  0.2798  0.0345 -0.0711
24015DPPC   NC328613   5.647   4.918  20.991  0.3638 -0.1723 -0.1134
24015DPPC   PO428614   5.572   4.890  20.624  0.2856  0.0732 -0.0016
24015DPPC   GL128615   5.454   5.006  20.223 -0.1848  0.4591 -0.0316
24015DPPC   GL228616   5.771   5.014  20.098  0.1952 -0.1879  0.0051
24015DPPC   C1A28617   5.322   5.161  19.908  0.1315  0.0416 -0.4943
24015DPPC   C2A28618   5.323   5.183  19.501 -0.3510 -0.0910 -0.1279
24015DPPC   C3A28619   5.213   5.188  19.002 -0.1617  0.1396  0.0649
24015DPPC   C4A28620   5.336   5.267  18.509  0.0610 -0.2510 -0.2065
24015DPPC   C1B28621   5.702   5.043  19.731  0.2612 -0.2206  0.3998
24015DPPC   C2B28622   5.803   5.040  19.336  0.1994 -0.2364 -0.2743
24015DPPC   C3B28623   5.797   5.140  18.875 -0.1333  0.2571  0.5594
24015DPPC   C4B28624   5.846   5.205  18.414 -0.0406 -0.2022 -0.1283
24016DPPC   NC328625   7.895   5.319  20.111 -0.1165  0.0463  0.0176
24016DPPC   PO428626   7.655   4.974  20.093 -0.2420  0.1229  0.1275
24016DPPC   GL128627   7.395   5.005  19.774  0.2647 -0.0170  0.3182
24016DPPC   GL228628   7.543   5.327  19.785  0.2505  0.0313  0.3535
24016DPPC   C1A28629   7.387   4.892  19.428  0.0892  0.3067  0.0186
24016DPPC   C2A28630   7.248   4.806  19.059  0.0995 -0.0425  0.1301
24016DPPC   C3A28631   7.299   4.767  18.595 -0.0239  0.0511  0.2149
24016DPPC   C4A28632   7.269   4.825  18.082  0.0641  0.0153 -0.1552
24016DPPC   C1B28633   7.582   5.257  19.392  0.3547  0.3399 -0.0379
24016DPPC   C2B28634   7.607   5.155  18.991  0.2376  0.1206  0.1042
24016DPPC   C3B28635   7.614   5.260  18.531 -0.2151  0.1804  0.0745
24016DPPC   C4B28636   7.601   5.248  18.059 -0.3140  0.1966 -0.1447
24017DPPC   NC328637   6.833   6.418  20.374  0.1383 -0.0491  0.1642
24017DPPC   PO428638   6.772   6.012  20.285  0.0345 -0.0305  0.0855
24017DPPC   GL128639   7.154   5.973  20.033 -0.0935  0.2358 -0.2847
24017DPPC   GL228640   7.163   6.223  19.983  0.4930 -0.0016 -0.2110
24017DPPC   C1A28641   7.214   5.752  19.760 -0.1437 -0.3144 -0.2143
24017DPPC   C2A28642   7.397   5.652  19.383  0.1065 -0.3121  0.0700
24017DPPC   C3A28643   7.429   5.688  18.883 -0.0457 -0.2450 -0.3036
24017DPPC   C4A28644   7.476   5.722  18.403 -0.2334 -0.1805 -0.1227
24017DPPC   C1B28645   7.164   6.138  19.589 -0.4798 -0.0486 -0.0077
24017DPPC   C2B28646   7.264   6.121  19.170  0.2546  0.0721 -0.1714
24017DPPC   C3B28647   7.268   6.096  18.711 -0.0929 -0.1099 -0.1959
24017DPPC   C4B28648   7.324   6.188  18.250  0.0972 -0.2564  0.0404
24018DPPC   NC328649   4.789   6.352  20.962  0.0559  0.0367  0.0492
24018DPPC   PO428650   4.875   6.165  20.602  0.3215 -0.1875  0.0735
24018DPPC   GL128651   4.934   6.327  20.247 -0.0135 -0.0539 -0.2678
24018DPPC   GL228652   5.097   6.041  20.153 -0.0790 -0.0762 -0.0631
24018DPPC   C1A28653   4.750   6.352  19.954 -0.0203  0.2978 -0.2940
24018DPPC   C2A28654   4.817   6.260  19.552 -0.0373  0.2130 -0.3385
24018DPPC   C3A28655   4.915   6.207  19.014  0.0335 -0.1469 -0.1194
24018DPPC   C4A28656   4.945   6.267  18.508 -0.2941 -0.0340  0.3916
24018DPPC   C1B28657   5.137   6.151  19.800 -0.0447  0.0910 -0.0335
24018DPPC   C2B28658   5.315   6.139  19.404  0.0562  0.0122 -0.2166
24018DPPC   C3B28659   5.452   6.132  18.971 -0.1157 -0.0008  0.0667
24018DPPC   C4B28660   5.536   6.141  18.504 -0.0691  0.3121 -0.3396
24019DPPC   NC328661   5.421   3.509  20.635 -0.1119  0.1687  0.0907
24019DPPC   PO428662   5.121   3.651  20.460  0.0610  0.1385 -0.0994
24019DPPC   GL128663   5.261   3.691  20.138  0.0517  0.7073 -0.1650
24019DPPC   GL228664   5.550   3.661  20.132 -0.0300 -0.0216  0.0988
24019DPPC   C1A28665   5.202   3.777  19.857 -0.1005  0.0278  0.2194
24019DPPC   C2A28666   5.254   3.899  19.482  0.2204  0.0845  0.0130
24019DPPC   C3A28667   5.230   3.872  19.001 -0.0190  0.1361 -0.3306
24019DPPC   C4A28668   5.275   3.992  18.568  0.0367 -0.0267 -0.1883
24019DPPC   C1B28669   5.691   3.701  19.803 -0.0417 -0.0462  0.2001
24019DPPC   C2B28670   5.806   3.796  19.419 -0.0150  0.1553  0.3126
24019DPPC   C3B28671   5.764   3.834  18.960  0.1803 -0.3771 -0.0689
24019DPPC   C4B28672   5.751   3.856  18.492  0.0930 -0.0476  0.2794
24020DPPC   NC328673   4.228   1.772  20.225 -0.2948  0.1378 -0.3382
24020DPPC   PO428674   4.355   2.111  20.402  0.0997  0.1182 -0.1149
24020DPPC   GL128675   4.283   2.275  20.010 -0.3501  0.1999 -0.1304
24020DPPC   GL228676   4.127   2.067  19.854  0.1796 -0.1684 -0.1905
24020DPPC   C1A28677   4.421   2.470  19.713  0.0317  0.1673 -0.4598
24020DPPC   C2A28678   4.369   2.345  19.329 -0.0462 -0.3440  0.2407
24020DPPC   C3A28679   4.371   2.288  18.881 -0.2318  0.2826 -0.0768
24020DPPC   C4A28680   4.352   2.256  18.400  0.3946  0.1035  0.0362
24020DPPC   C1B28681   4.037   1.975  19.518 -0.2161 -0.0849 -0.1038
24020DPPC   C2B28682   4.035   1.936  19.087  0.2494 -0.0760 -0.0179
24020DPPC   C3B28683   4.139   1.891  18.627  0.0900 -0.0454 -0.0267
24020DPPC   C4B28684   4.062   1.927  18.092 -0.1464 -0.1170  0.0959
24021DPPC   NC328685   3.630   6.256  20.499  0.3137  0.3076  0.1852
24021DPPC   PO428686   3.601   6.561  20.199 -0.2773 -0.0192 -0.1331
24021DPPC   GL128687   3.811   6.715  19.847  0.2638 -0.0890 -0.0649
24021DPPC   GL228688   3.614   6.911  19.779  0.0602 -0.3311  0.2837
24021DPPC   C1A28689   3.876   6.526  19.589  0.3516  0.0888 -0.1543
24021DPPC   C2A28690   3.858   6.457  19.236  0.1954  0.1316  0.0832
24021DPPC   C3A28691   3.890   6.452  18.726  0.0266 -0.0571  0.1406
24021DPPC   C4A28692   3.842   6.439  18.182 -0.0147 -0.1835  0.0810
24021DPPC   C1B28693   3.651   6.902  19.423 -0.1277  0.3215  0.3062
24021DPPC   C2B28694   3.708   6.888  19.013 -0.2103  0.0286  0.0464
24021DPPC   C3B28695   3.705   6.878  18.487 -0.2934 -0.2461 -0.2331
24021DPPC   C4B28696   3.703   6.937  18.031 -0.1230  0.0950 -0.1022
24022DPPC   NC328697   1.870   6.576  20.108  0.0018  0.1121  0.0169
24022DPPC   PO428698   2.055   6.797  20.384 -0.1329 -0.0069  0.1436
24022DPPC   GL128699   2.252   6.794  20.093 -0.0168  0.2803  0.0235
24022DPPC   GL228700   2.348   6.642  19.877  0.1629 -0.4229  0.0370
24022DPPC   C1A28701   2.217   7.045  19.850 -0.2525 -0.2623  0.2291
24022DPPC   C2A28702   2.230   7.191  19.384 -0.0622  0.1833  0.1321
24022DPPC   C3A28703   2.245   7.108  18.919 -0.0882 -0.0529  0.0523
24022DPPC   C4A28704   2.232   7.153  18.444 -0.0848  0.2174  0.1183
24022DPPC   C1B28705   2.417   6.775  19.552 -0.2089  0.3155 -0.1415
24022DPPC   C2B28706   2.389   6.749  19.175 -0.1227  0.1598  0.2198
24022DPPC   C3B28707   2.429   6.707  18.687 -0.0330  0.1521  0.1132
24022DPPC   C4B28708   2.452   6.628  18.177 -0.2467 -0.0277 -0.3848
24023DPPC   NC328709   3.902   3.621  20.047  0.0459 -0.0080 -0.0433
24023DPPC   PO428710   3.858   3.942  20.274  0.3512 -0.1485  0.1506
24023DPPC   GL128711   3.765   4.073  19.971  0.0989 -0.1177  0.3202
24023DPPC   GL228712   3.732   4.343  19.789 -0.1253 -0.1856  0.4076
24023DPPC   C1A28713   3.774   3.868  19.652  0.0448 -0.0291 -0.0027
24023DPPC   C2A28714   3.909   3.808  19.301  0.1707 -0.2279  0.1554
24023DPPC   C3A28715   3.984   3.804  18.833 -0.2367 -0.0276  0.0239
24023DPPC   C4A28716   4.047   3.726  18.338  0.1605 -0.1151 -0.0059
24023DPPC   C1B28717   3.817   4.266  19.423  0.3745 -0.1866 -0.2928
24023DPPC   C2B28718   3.720   4.275  19.043 -0.1197  0.0894  0.0345
24023DPPC   C3B28719   3.831   4.218  18.556  0.0129  0.0789  0.1218
24023DPPC   C4B28720   3.897   4.206  18.091  0.1214  0.1326  0.0749
24024DPPC   NC328721   2.383   0.071  20.831 -0.1864 -0.0953  0.1370
24024DPPC   PO428722   2.705  -0.101  20.702 -0.2331  0.1431  0.0357
24024DPPC   GL128723   2.745  -0.077  20.269  0.2782 -0.0781 -0.0606
24024DPPC   GL228724   2.765  -0.368  20.255 -0.2749  0.0886 -0.3243
24024DPPC   C1A28725   2.811  -0.018  19.877  0.2779  0.1333  0.1080
24024DPPC   C2A28726   2.856  -0.035  19.466 -0.2126  0.0623  0.0479
24024DPPC   C3A28727   2.904  -0.006  18.939 -0.2450  0.1345 -0.3677
24024DPPC   C4A28728   2.903   0.008  18.465 -0.1285  0.0251 -0.1553
24024DPPC   C1B28729   2.891  -0.514  19.947 -0.0023 -0.0061 -0.1125
24024DPPC   C2B28730   3.056  -0.465  19.555 -0.0847 -0.2505  0.0012
24024DPPC   C3B28731   3.092  -0.526  19.017 -0.0292 -0.0941 -0.1368
24024DPPC   C4B28732   3.092  -0.475  18.561  0.1312 -0.4908 -0.0869
24025DPPC   NC328733   6.593   2.950  20.174 -0.1898  0.0398  0.0483
24025DPPC   PO428734   6.258   2.979  20.027  0.2373 -0.1018  0.2521
24025DPPC   GL128735   6.158   3.148  19.698  0.2500  0.1350  0.2587
24025DPPC   GL228736   5.984   2.903  19.577  0.1173 -0.1208 -0.1116
24025DPPC   C1A28737   6.325   3.201  19.379  0.3835  0.1604  0.0703
24025DPPC   C2A28738   6.357   3.233  18.976  0.1658  0.0397 -0.1848
24025DPPC   C3A28739   6.416   3.208  18.512  0.1625  0.1237  0.0021
24025DPPC   C4A28740   6.404   3.193  18.049 -0.2063 -0.0639 -0.1057
24025DPPC   C1B28741   5.953   2.848  19.190  0.0259 -0.3772 -0.0081
24025DPPC   C2B28742   5.980   2.881  18.759  0.3049 -0.0314  0.1539
24025DPPC   C3B28743   6.041   2.854  18.297 -0.1727 -0.3163  0.0715
24025DPPC   C4B28744   6.125   2.746  17.845 -0.2639 -0.1363 -0.0190
24026DPPC   NC328745   6.633   4.708  20.730 -0.2689 -0.0477 -0.0174
24026DPPC   PO428746   6.825   4.524  20.412  0.3223 -0.0448  0.0491
24026DPPC   GL128747   6.702   4.826  20.155  0.2883 -0.2537  0.0615
24026DPPC   GL228748   6.463   4.672  20.073 -0.2884  0.4032 -0.1890
24026DPPC   C1A28749   6.768   4.985  19.816  0.0457  0.0677  0.1097
24026DPPC   C2A28750   6.845   4.924  19.400  0.0204  0.0575  0.0345
24026DPPC   C3A28751   6.787   4.942  18.900  0.1304  0.2044 -0.2158
24026DPPC   C4A28752   6.847   4.915  18.357  0.0364  0.1432  0.0371
24026DPPC   C1B28753   6.368   4.507  19.753  0.2915  0.0126  0.1623
24026DPPC   C2B28754   6.398   4.539  19.302 -0.0371 -0.1453  0.1472
24026DPPC   C3B28755   6.408   4.528  18.851 -0.0299 -0.2211 -0.0769
24026DPPC   C4B28756   6.424   4.576  18.387 -0.0756  0.1061 -0.0319
24027DPPC   NC328757   3.167   2.448  20.793 -0.1910  0.0427 -0.1413
24027DPPC   PO428758   3.456   2.333  20.535 -0.1710  0.0796 -0.0415
24027DPPC   GL128759   3.438   2.361  20.072 -0.4421  0.0804 -0.1229
24027DPPC   GL228760   3.501   2.104  20.025  0.0672  0.3032 -0.0610
24027DPPC   C1A28761   3.464   2.578  19.791  0.1777 -0.0602 -0.0408
24027DPPC   C2A28762   3.452   2.636  19.394 -0.0689 -0.0482 -0.0777
24027DPPC   C3A28763   3.455   2.489  18.880  0.1637 -0.0063 -0.1815
24027DPPC   C4A28764   3.453   2.555  18.385 -0.0882  0.1253  0.1286
24027DPPC   C1B28765   3.575   2.117  19.661  0.0355  0.2819  0.1121
24027DPPC   C2B28766   3.565   2.079  19.262 -0.5449  0.1518  0.0965
24027DPPC   C3B28767   3.664   2.013  18.776 -0.0116  0.2923 -0.0288
24027DPPC   C4B28768   3.593   2.002  18.288  0.0069 -0.2004  0.0089
24028DPPC   NC328769   6.773   1.216  20.382 -0.0034 -0.1487  0.0477
24028DPPC   PO428770   6.485   1.262  20.164  0.2008  0.0070 -0.3104
24028DPPC   GL128771   6.573   1.302  19.827 -0.0676 -0.0587 -0.1530
24028DPPC   GL228772   6.338   1.582  19.724 -0.2937  0.2952  0.1138
24028DPPC   C1A28773   6.572   1.109  19.540 -0.1137  0.1059  0.0486
24028DPPC   C2A28774   6.601   1.072  19.154 -0.0487 -0.2808  0.0294
24028DPPC   C3A28775   6.662   1.054  18.706  0.1631  0.0696 -0.0118
24028DPPC   C4A28776   6.760   0.919  18.292  0.2435  0.0117  0.1682
24028DPPC   C1B28777   6.471   1.510  19.392 -0.1828 -0.3344  0.0504
24028DPPC   C2B28778   6.519   1.523  18.962 -0.0339  0.0259 -0.0068
24028DPPC   C3B28779   6.552   1.501  18.488  0.0421 -0.0702  0.2423
24028DPPC   C4B28780   6.742   1.385  18.049  0.1796 -0.0251  0.0786
24029DPPC   NC328781   1.491   3.863  19.865  0.1288  0.2008 -0.2309
24029DPPC   PO428782   1.705   3.702  20.108 -0.1077 -0.1839 -0.3099
24029DPPC   GL128783   1.985   3.660  19.881 -0.0482 -0.0309  0.1323
24029DPPC   GL228784   2.202   3.864  19.809  0.0642  0.4027 -0.0579
24029DPPC   C1A28785   1.785   3.572  19.581  0.0547  0.1819  0.1121
24029DPPC   C2A28786   1.687   3.700  19.211 -0.0621  0.0191  0.3422
24029DPPC   C3A28787   1.650   3.827  18.705 -0.1236 -0.1148 -0.0119
24029DPPC   C4A28788   1.717   3.811  18.189  0.2130 -0.0295 -0.0335
24029DPPC   C1B28789   2.410   4.071  19.561  0.1455 -0.0346  0.1530
24029DPPC   C2B28790   2.485   4.069  19.195  0.0143 -0.0435 -0.3509
24029DPPC   C3B28791   2.494   4.152  18.754  0.2432  0.0820 -0.1236
24029DPPC   C4B28792   2.652   4.054  18.297 -0.2874  0.0362 -0.2766
24030DPPC   NC328793   7.449   1.624  20.262 -0.0262  0.2006  0.0253
24030DPPC   PO428794   7.210   1.946  20.142  0.0314 -0.3147 -0.2510
24030DPPC   GL128795   7.236   1.989  19.724 -0.2040 -0.0863 -0.3160
24030DPPC   GL228796   7.452   1.811  19.734  0.4478  0.5420  0.0544
24030DPPC   C1A28797   7.193   2.117  19.383 -0.0186 -0.1122  0.1533
24030DPPC   C2A28798   7.231   2.143  18.959  0.0072  0.4087 -0.1525
24030DPPC   C3A28799   7.181   2.224  18.488 -0.1091  0.1844  0.0012
24030DPPC   C4A28800   7.234   2.207  18.021  0.1467  0.0038  0.2984
24030DPPC   C1B28801   7.309   1.667  19.381 -0.2637  0.1467  0.1138
24030DPPC   C2B28802   7.360   1.641  18.948 -0.2629 -0.1265 -0.2681
24030DPPC   C3B28803   7.305   1.729  18.498 -0.0220  0.0415  0.2226
24030DPPC   C4B28804   7.398   1.674  17.972 -0.1449 -0.0762  0.0425
24031DPPC   NC328805   6.008   4.682  20.307 -0.2215 -0.0189 -0.1392
24031DPPC   PO428806   5.630   4.578  20.186 -0.0993  0.1842  0.6359
24031DPPC   GL128807   5.415   4.594  19.831 -0.1891  0.2526 -0.0531
24031DPPC   GL228808   5.272   4.781  19.950  0.1084  0.3420 -0.2951
24031DPPC   C1A28809   5.510   4.698  19.534 -0.2320  0.2871  0.2577
24031DPPC   C2A28810   5.409   4.712  19.134 -0.1144 -0.2513  0.1602
24031DPPC   C3A28811   5.454   4.829  18.664 -0.2821 -0.0180  0.1742
24031DPPC   C4A28812   5.542   4.892  18.209  0.1892 -0.0153  0.2014
24031DPPC   C1B28813   4.991   4.886  19.732  0.1040 -0.1410  0.0772
24031DPPC   C2B28814   4.888   4.881  19.285 -0.1171  0.4317  0.3495
24031DPPC   C3B28815   4.843   4.840  18.765 -0.2174 -0.1149 -0.5434
24031DPPC   C4B28816   4.946   4.988  18.280  0.3457  0.2982 -0.3216
24032DPPC   NC328817   1.689   0.669  20.546 -0.0502  0.0109  0.1539
24032DPPC   PO428818   1.639   0.503  20.191  0.0388 -0.1936  0.3373
24032DPPC   GL128819   1.667   0.303  19.843 -0.0872  0.1544 -0.2286
24032DPPC   GL228820   1.394   0.367  19.741 -0.1640 -0.0901  0.0907
24032DPPC   C1A28821   1.883   0.162  19.626 -0.6229 -0.3691 -0.0535
24032DPPC   C2A28822   1.859   0.150  19.184 -0.1610  0.2504  0.1170
24032DPPC   C3A28823   1.887   0.205  18.685 -0.1754  0.4294  0.2061
24032DPPC   C4A28824   1.955   0.138  18.215 -0.1920 -0.1291 -0.1402
24032DPPC   C1B28825   1.431   0.285  19.335 -0.0162  0.2110 -0.5140
24032DPPC   C2B28826   1.435   0.309  18.898  0.2164 -0.2499  0.4913
24032DPPC   C3B28827   1.475   0.325  18.456 -0.0768  0.0271  0.2199
24032DPPC   C4B28828   1.512   0.235  17.974  0.0526  0.0726 -0.1106
24033DPPC   NC328829   2.036   3.391  20.281 -0.1175  0.0779  0.0103
24033DPPC   PO428830   1.836   3.183  20.060 -0.1121  0.0864 -0.1793
24033DPPC   GL128831   1.830   3.165  19.642  0.0753  0.0172 -0.1750
24033DPPC   GL228832   1.652   2.961  19.548  0.2881 -0.4867  0.2215
24033DPPC   C1A28833   1.859   3.269  19.338  0.2544 -0.1512 -0.0707
24033DPPC   C2A28834   1.848   3.347  18.944 -0.0709  0.2441  0.0287
24033DPPC   C3A28835   1.887   3.392  18.458  0.3556 -0.0820  0.4447
24033DPPC   C4A28836   1.853   3.340  17.892  0.2076 -0.0442 -0.2086
24033DPPC   C1B28837   1.543   3.038  19.190  0.0305  0.4334 -0.2453
24033DPPC   C2B28838   1.521   2.982  18.739 -0.1506 -0.0114 -0.1008
24033DPPC   C3B28839   1.604   3.043  18.250 -0.2790  0.1048 -0.2471
24033DPPC   C4B28840   1.581   2.974  17.750 -0.2095  0.1826  0.0926
24034DPPC   NC328841   4.769   5.462  20.609 -0.1030  0.1306 -0.1471
24034DPPC   PO428842   4.742   5.750  20.368  0.1181  0.1098  0.3330
24034DPPC   GL128843   4.731   5.688  19.921 -0.0554  0.0052 -0.0841
24034DPPC   GL228844   4.549   5.942  19.899 -0.2469  0.0132  0.2811
24034DPPC   C1A28845   5.005   5.677  19.684 -0.2239 -0.0775 -0.0242
24034DPPC   C2A28846   5.069   5.758  19.273 -0.1595 -0.1492  0.1010
24034DPPC   C3A28847   5.152   5.827  18.745  0.4811 -0.1406 -0.1941
24034DPPC   C4A28848   5.155   5.866  18.297 -0.0823 -0.1696  0.3385
24034DPPC   C1B28849   4.484   5.884  19.562  0.1135  0.0520  0.2310
24034DPPC   C2B28850   4.618   5.873  19.159 -0.1122 -0.2255 -0.0397
24034DPPC   C3B28851   4.635   5.830  18.711  0.0900 -0.2824  0.0083
24034DPPC   C4B28852   4.524   5.838  18.224 -0.2135  0.0012  0.1427
24035DPPC   NC328853   7.737   2.442  20.578  0.0576  0.0377  0.0837
24035DPPC   PO428854   7.627   2.309  20.235  0.4762 -0.0481  0.0696
24035DPPC   GL128855   7.411   2.369  19.891 -0.3621 -0.2707  0.1868
24035DPPC   GL228856   7.158   2.465  19.969 -0.3437  0.0636  0.0836
24035DPPC   C1A28857   7.523   2.444  19.561  0.0935 -0.0143  0.0049
24035DPPC   C2A28858   7.493   2.512  19.165 -0.0953 -0.0218 -0.0391
24035DPPC   C3A28859   7.556   2.493  18.724  0.3111 -0.0985  0.0662
24035DPPC   C4A28860   7.522   2.522  18.219  0.3017  0.2048 -0.0156
24035DPPC   C1B28861   7.082   2.473  19.603  0.2714 -0.1663 -0.2545
24035DPPC   C2B28862   6.933   2.597  19.230  0.1859  0.0272 -0.1000
24035DPPC   C3B28863   7.032   2.673  18.792 -0.3772 -0.0915  0.4796
24035DPPC   C4B28864   7.033   2.694  18.329 -0.1323  0.3940 -0.0065
24036DPPC   NC328865   4.273   3.209  20.725  0.3443  0.0833  0.1683
24036DPPC   PO428866   4.641   3.136  20.591 -0.1527 -0.2575 -0.1272
24036DPPC   GL128867   4.645   3.270  20.179 -0.4197  0.0148  0.0445
24036DPPC   GL228868   4.818   3.472  20.185 -0.3856 -0.0028  0.1554
24036DPPC   C1A28869   4.565   3.290  19.782 -0.1543  0.4193  0.0497
24036DPPC   C2A28870   4.579   3.159  19.388  0.1460 -0.0098  0.2995
24036DPPC   C3A28871   4.565   3.090  18.913  0.0573  0.2601 -0.4617
24036DPPC   C4A28872   4.577   3.120  18.433 -0.1384 -0.2592 -0.1929
24036DPPC   C1B28873   4.847   3.585  19.859  0.2157 -0.0855  0.1331
24036DPPC   C2B28874   4.875   3.544  19.419  0.2757 -0.2030 -0.0160
24036DPPC   C3B28875   4.901   3.562  18.925 -0.3697  0.3602  0.1581
24036DPPC   C4B28876   4.986   3.518  18.455 -0.0638  0.0417  0.3080
24037DPPC   NC328877   3.956   2.461  20.677  0.0692  0.1058 -0.2094
24037DPPC   PO428878   4.153   2.591  20.320  0.2794  0.0556 -0.2949
24037DPPC   GL128879   4.033   2.641  19.921  0.3102 -0.0506 -0.1705
24037DPPC   GL228880   3.869   2.406  19.842  0.1469 -0.2854  0.1537
24037DPPC   C1A28881   4.087   2.769  19.580  0.1002 -0.1332 -0.1864
24037DPPC   C2A28882   4.214   2.819  19.176 -0.0143  0.1493 -0.2185
24037DPPC   C3A28883   4.194   2.783  18.668  0.0190  0.2211 -0.1343
24037DPPC   C4A28884   4.234   2.804  18.214 -0.2059  0.2479  0.1637
24037DPPC   C1B28885   3.926   2.397  19.478 -0.2322 -0.2101  0.2044
24037DPPC   C2B28886   3.897   2.435  19.035 -0.0460 -0.0403  0.0581
24037DPPC   C3B28887   3.877   2.397  18.554 -0.0378 -0.2067 -0.0936
24037DPPC   C4B28888   3.846   2.420  18.034 -0.0625  0.1526 -0.0923
24038DPPC   NC328889   7.216   2.445  20.413  0.1345  0.0722 -0.0770
24038DPPC   PO428890   7.054   2.797  20.275  0.0401  0.2725  0.1645
24038DPPC   GL128891   6.968   2.847  19.833  0.2687  0.4444 -0.0350
24038DPPC   GL228892   7.237   2.924  19.778  0.0241 -0.0638  0.3235
24038DPPC   C1A28893   6.804   3.003  19.491  0.2082 -0.2541 -0.4631
24038DPPC   C2A28894   6.836   3.095  19.071  0.2656 -0.0512 -0.1397
24038DPPC   C3A28895   6.884   3.081  18.582  0.0592  0.0909  0.3172
24038DPPC   C4A28896   6.914   3.120  18.068  0.0136  0.0879 -0.3254
24038DPPC   C1B28897   7.290   2.940  19.416  0.1101 -0.0665  0.1300
24038DPPC   C2B28898   7.321   2.994  19.039  0.0111  0.3424  0.2061
24038DPPC   C3B28899   7.374   3.060  18.542  0.3782  0.2353 -0.0727
24038DPPC   C4B28900   7.427   3.031  18.113  0.0267  0.2397 -0.0293
24039DPPC   NC328901   2.827   4.345  20.643 -0.1391  0.2208  0.4260
24039DPPC   PO428902   2.817   4.191  20.279 -0.2713 -0.2284  0.1988
24039DPPC   GL128903   2.885   4.461  19.805 -0.2783  0.2033  0.1987
24039DPPC   GL228904   2.860   4.123  19.794 -0.0679 -0.5585 -0.1950
24039DPPC   C1A28905   2.843   4.527  19.419  0.1178 -0.3193  0.1787
24039DPPC   C2A28906   2.834   4.576  18.989  0.2283  0.0282 -0.1039
24039DPPC   C3A28907   2.824   4.490  18.498 -0.2344 -0.2476  0.2886
24039DPPC   C4A28908   2.860   4.551  17.938  0.0839 -0.1615 -0.0270
24039DPPC   C1B28909   2.886   4.036  19.433  0.1025  0.1287 -0.0800
24039DPPC   C2B28910   2.969   4.032  19.038  0.0576 -0.1256 -0.1638
24039DPPC   C3B28911   3.068   3.877  18.595  0.0324  0.0866  0.0129
24039DPPC   C4B28912   3.074   3.892  18.130  0.0501 -0.1671  0.3767
24040DPPC   NC328913   1.741   4.686  20.148  0.3752  0.0512  0.1949
24040DPPC   PO428914   2.110   4.761  20.251  0.2414 -0.1462  0.0025
24040DPPC   GL128915   2.297   4.710  19.905 -0.0397 -0.2715  0.0552
24040DPPC   GL228916   2.036   4.831  19.785 -0.2563 -0.0337 -0.4420
24040DPPC   C1A28917   2.333   4.670  19.529  0.0068  0.0818  0.0485
24040DPPC   C2A28918   2.366   4.626  19.113  0.1479 -0.0489  0.0415
24040DPPC   C3A28919   2.296   4.601  18.606 -0.1995 -0.2147 -0.0141
24040DPPC   C4A28920   2.341   4.501  18.179  0.0087 -0.0677 -0.3154
24040DPPC   C1B28921   1.882   4.736  19.435 -0.1401  0.1324  0.0455
24040DPPC   C2B28922   1.824   4.651  19.028  0.2837  0.0927 -0.2602
24040DPPC   C3B28923   1.796   4.698  18.636  0.4082  0.4838  0.0973
24040DPPC   C4B28924   1.843   4.663  18.150  0.0915  0.3148 -0.2980
24041DPPC   NC328925   3.818   5.789  20.064 -0.0944 -0.0130  0.1972
24041DPPC   PO428926   4.136   5.656  20.221  0.0877  0.0735  0.4589
24041DPPC   GL128927   4.061   5.487  19.837 -0.0005 -0.1251 -0.0670
24041DPPC   GL228928   4.336   5.483  19.686 -0.2400  0.0335 -0.0694
24041DPPC   C1A28929   3.825   5.543  19.609 -0.1127 -0.1675  0.0647
24041DPPC   C2A28930   3.806   5.579  19.165 -0.2460  0.0013  0.0838
24041DPPC   C3A28931   3.752   5.638  18.689  0.0148 -0.1202  0.2287
24041DPPC   C4A28932   3.764   5.609  18.226 -0.4038  0.2490  0.1458
24041DPPC   C1B28933   4.248   5.460  19.330 -0.0826 -0.1808 -0.2426
24041DPPC   C2B28934   4.270   5.508  18.966  0.1045  0.2561  0.3485
24041DPPC   C3B28935   4.307   5.483  18.490  0.1968  0.3360 -0.0808
24041DPPC   C4B28936   4.285   5.428  17.992  0.4188 -0.1739 -0.0425
24042DPPC   NC328937   4.955   0.691  20.721  0.2222 -0.1047 -0.0166
24042DPPC   PO428938   4.744   0.584  20.397 -0.2561  0.0526  0.0983
24042DPPC   GL128939   4.636   0.739  20.033  0.1338 -0.4014  0.1718
24042DPPC   GL228940   4.806   0.514  19.918 -0.0657 -0.0731  0.1545
24042DPPC   C1A28941   4.874   0.950  19.873  0.0476 -0.1108 -0.0561
24042DPPC   C2A28942   4.889   0.869  19.448 -0.1517 -0.2901 -0.0872
24042DPPC   C3A28943   4.898   0.905  18.927 -0.0700  0.1222 -0.1172
24042DPPC   C4A28944   4.922   0.880  18.428 -0.2395  0.1123  0.0693
24042DPPC   C1B28945   4.965   0.455  19.618  0.0359  0.1368 -0.2478
24042DPPC   C2B28946   5.060   0.455  19.210  0.1131  0.2220  0.1398
24042DPPC   C3B28947   5.087   0.473  18.700  0.1577  0.3167 -0.0091
24042DPPC   C4B28948   5.151   0.462  18.206  0.0412  0.0772 -0.3287
24043DPPC   NC328949   1.252   6.129  20.352 -0.2619  0.0441  0.1409
24043DPPC   PO428950   1.459   6.203  20.067 -0.3251 -0.0265  0.2578
24043DPPC   GL128951   1.605   6.467  19.688 -0.0543  0.1659 -0.0589
24043DPPC   GL228952   1.864   6.345  19.682 -0.2347  0.2875  0.0654
24043DPPC   C1A28953   1.583   6.417  19.337 -0.2183 -0.2481  0.4560
24043DPPC   C2A28954   1.611   6.413  18.904 -0.0696 -0.0620  0.2344
24043DPPC   C3A28955   1.683   6.355  18.374  0.0096 -0.2422 -0.0120
24043DPPC   C4A28956   1.649   6.367  17.872  0.1773  0.0671 -0.0919
24043DPPC   C1B28957   2.072   6.340  19.340 -0.1071  0.3605  0.1970
24043DPPC   C2B28958   2.156   6.394  18.955 -0.0621  0.0682  0.1830
24043DPPC   C3B28959   2.185   6.297  18.428  0.1469 -0.1590  0.0988
24043DPPC   C4B28960   2.127   6.311  17.936 -0.0086 -0.2549 -0.0699
24044DPPC   NC328961   3.412   1.863  20.446  0.1528  0.2288  0.0589
24044DPPC   PO428962   3.173   1.795  20.162 -0.2190 -0.1228 -0.3985
24044DPPC   GL128963   3.215   1.835  19.793 -0.0540  0.5124  0.1591
24044DPPC   GL228964   3.006   1.599  19.844  0.0382 -0.0703 -0.3793
24044DPPC   C1A28965   3.286   1.728  19.449  0.2315  0.0418  0.2160
24044DPPC   C2A28966   3.322   1.683  18.996  0.1759  0.3321 -0.0947
24044DPPC   C3A28967   3.214   1.672  18.553 -0.0451 -0.1429  0.1831
24044DPPC   C4A28968   3.180   1.677  18.109  0.2460 -0.0349  0.0831
24044DPPC   C1B28969   2.876   1.465  19.545  0.1966 -0.1649 -0.1582
24044DPPC   C2B28970   2.943   1.261  19.263  0.0700  0.1517 -0.3162
24044DPPC   C3B28971   2.906   1.306  18.829 -0.4094  0.0493  0.0609
24044DPPC   C4B28972   2.907   1.319  18.333 -0.1778 -0.5254  0.0850
24045DPPC   NC328973   6.824   2.127  19.889 -0.0274  0.0953  0.0539
24045DPPC   PO428974   6.706   2.502  20.023  0.0064  0.1775  0.0386
24045DPPC   GL128975   6.594   2.556  19.623  0.0519  0.1947  0.2430
24045DPPC   GL228976   6.456   2.753  19.598  0.2039 -0.2195  0.1700
24045DPPC   C1A28977   6.642   2.265  19.382  0.0014 -0.0772  0.0235
24045DPPC   C2A28978   6.733   2.254  18.973  0.0854 -0.0521 -0.1107
24045DPPC   C3A28979   6.667   2.282  18.556  0.0285 -0.0651  0.1635
24045DPPC   C4A28980   6.725   2.228  18.118 -0.2338 -0.0794  0.1395
24045DPPC   C1B28981   6.517   2.746  19.239 -0.1912  0.1381 -0.3546
24045DPPC   C2B28982   6.531   2.774  18.804 -0.1410 -0.0767 -0.0510
24045DPPC   C3B28983   6.563   2.750  18.352  0.1802 -0.1166  0.0323
24045DPPC   C4B28984   6.646   2.680  17.885  0.0289  0.0069 -0.1324
24046DPPC   NC328985   2.172   5.899  20.455  0.0550  0.0144  0.1849
24046DPPC   PO428986   1.931   6.048  20.173 -0.1309  0.0168 -0.2099
24046DPPC   GL128987   1.766   5.926  19.842 -0.1665  0.0064 -0.0537
24046DPPC   GL228988   1.810   5.613  19.848 -0.0941 -0.1115  0.0598
24046DPPC   C1A28989   1.710   6.036  19.489  0.0437 -0.1490 -0.0904
24046DPPC   C2A28990   1.726   6.040  19.092 -0.0898  0.1002  0.0548
24046DPPC   C3A28991   1.910   5.997  18.646 -0.0206  0.0708 -0.0304
24046DPPC   C4A28992   1.918   5.924  18.136  0.0668 -0.1948  0.1003
24046DPPC   C1B28993   1.841   5.602  19.445  0.3955  0.3197 -0.0140
24046DPPC   C2B28994   1.903   5.530  19.102  0.1199  0.0205 -0.3005
24046DPPC   C3B28995   1.950   5.538  18.592  0.3411  0.0981 -0.0220
24046DPPC   C4B28996   2.004   5.448  18.129 -0.3598  0.2163  0.2836
24047DPPC   NC328997   5.317   2.759  20.142 -0.1360  0.0234 -0.0379
24047DPPC   PO428998   5.159   2.460  20.346  0.1243  0.0707  0.0727
24047DPPC   GL128999   5.104   2.217  19.960 -0.1719 -0.2949 -0.0907
24047DPPC   GL229000   4.875   2.277  19.831  0.3896  0.1850 -0.1442
24047DPPC   C1A29001   5.329   2.135  19.658 -0.0296 -0.2137 -0.1202
24047DPPC   C2A29002   5.438   2.146  19.218 -0.0886 -0.1760 -0.2342
24047DPPC   C3A29003   5.354   2.116  18.741 -0.0769  0.3518 -0.0486
24047DPPC   C4A29004   5.325   2.090  18.253  0.1883 -0.0408  0.1197
24047DPPC   C1B29005   4.814   2.314  19.458 -0.0307 -0.1059  0.1232
24047DPPC   C2B29006   4.877   2.175  19.066  0.3976 -0.0044 -0.3474
24047DPPC   C3B29007   4.872   2.092  18.581 -0.0510 -0.0180 -0.1986
24047DPPC   C4B29008   4.781   2.239  18.105  0.0367 -0.5338 -0.0963
24048DPPC   NC329009   4.866   3.963  20.202 -0.3844  0.1406 -0.2964
24048DPPC   PO429010   4.504   3.986  20.373  0.0055 -0.1175  0.1153
24048DPPC   GL129011   4.292   3.849  20.036  0.0516 -0.0299 -0.0612
24048DPPC   GL229012   4.379   3.674  19.900 -0.3768  0.2864  0.1261
24048DPPC   C1A29013   4.130   4.023  19.756 -0.0712  0.1242 -0.0025
24048DPPC   C2A29014   4.338   4.150  19.418 -0.0709  0.0791 -0.1757
24048DPPC   C3A29015   4.323   4.082  18.947 -0.0928  0.0967 -0.0920
24048DPPC   C4A29016   4.304   4.163  18.422  0.3348  0.1743  0.2228
24048DPPC   C1B29017   4.460   3.689  19.532  0.2400 -0.4080  0.0352
24048DPPC   C2B29018   4.467   3.595  19.095  0.2330 -0.1732  0.2460
24048DPPC   C3B29019   4.491   3.676  18.597 -0.0328 -0.2269 -0.0658
24048DPPC   C4B29020   4.536   3.773  18.138 -0.0242 -0.1089  0.0270
24049DPPC   NC329021   3.352   0.723  19.931 -0.1914  0.1871 -0.0695
24049DPPC   PO429022   3.625   1.010  20.040  0.0975  0.2134 -0.0874
24049DPPC   GL129023   3.833   1.002  19.603  0.0454  0.4700  0.1584
24049DPPC   GL229024   3.616   0.795  19.557  0.4133  0.1075 -0.1014
24049DPPC   C1A29025   3.847   1.109  19.337 -0.0546 -0.1451  0.4352
24049DPPC   C2A29026   3.956   1.091  18.926 -0.1983 -0.0755 -0.1997
24049DPPC   C3A29027   3.896   1.066  18.482  0.0493  0.2491  0.0018
24049DPPC   C4A29028   3.864   1.062  17.944 -0.5523 -0.1834  0.0304
24049DPPC   C1B29029   3.538   0.762  19.236 -0.2098  0.2436 -0.0899
24049DPPC   C2B29030   3.614   0.736  18.792  0.2706  0.1160  0.1948
24049DPPC   C3B29031   3.511   0.763  18.371  0.1959 -0.2250  0.2600
24049DPPC   C4B29032   3.464   0.774  17.863 -0.0321  0.0966 -0.0258
24050DPPC   NC329033   5.697   3.954  20.470 -0.4393  0.1498 -0.0879
24050DPPC   PO429034   5.936   3.610  20.400 -0.0040 -0.3102  0.0432
24050DPPC   GL129035   6.016   3.411  20.048 -0.1274 -0.1107 -0.0550
24050DPPC   GL229036   5.774   3.297  19.979 -0.1072 -0.0323 -0.2475
24050DPPC   C1A29037   6.103   3.546  19.673  0.2854 -0.2534 -0.1316
24050DPPC   C2A29038   6.302   3.671  19.322 -0.1930 -0.4644 -0.0619
24050DPPC   C3A29039   6.299   3.712  18.820  0.1593 -0.1182  0.0240
24050DPPC   C4A29040   6.216   3.686  18.341  0.1966 -0.2210  0.3064
24050DPPC   C1B29041   5.754   3.274  19.591  0.4807  0.0540  0.1819
24050DPPC   C2B29042   5.889   3.377  19.204  0.0992  0.3246  0.1561
24050DPPC   C3B29043   5.957   3.371  18.692  0.0634  0.1210 -0.0928
24050DPPC   C4B29044   5.896   3.270  18.197  0.0490  0.0297  0.1245
24051DPPC   NC329045   8.072   0.883  20.303  0.0359 -0.0930 -0.4586
24051DPPC   PO429046   8.343   0.646  20.511 -0.1963  0.2144  0.4251
24051DPPC   GL129047   8.378   0.466  20.143  0.2204 -0.1568  0.0818
24051DPPC   GL229048   8.628   0.393  20.169 -0.0206 -0.0289 -0.3719
24051DPPC   C1A29049   8.207   0.522  19.827  0.2045  0.1006 -0.2489
24051DPPC   C2A29050   8.120   0.577  19.425  0.2779  0.2863 -0.0710
24051DPPC   C3A29051   8.139   0.623  18.912  0.2396  0.0480 -0.2413
24051DPPC   C4A29052   8.191   0.638  18.390  0.1506 -0.0819 -0.5512
24051DPPC   C1B29053   8.718   0.552  19.862  0.3144  0.1133 -0.1472
24051DPPC   C2B29054   8.665   0.526  19.431 -0.1042  0.0914 -0.1644
24051DPPC   C3B29055   8.758   0.474  18.926  0.2331  0.0768 -0.1836
24051DPPC   C4B29056   8.767   0.558  18.425 -0.1828  0.0425 -0.1349
24052DPPC   NC329057   6.662   1.726  20.120 -0.1725 -0.2486 -0.1187
24052DPPC   PO429058   7.006   1.540  19.980 -0.1136  0.2600  0.2489
24052DPPC   GL129059   6.923   1.537  19.617  0.2306 -0.2444  0.3173
24052DPPC   GL229060   6.871   1.845  19.501  0.0215 -0.0018  0.0068
24052DPPC   C1A29061   6.985   1.315  19.337  0.0235 -0.1921  0.1519
24052DPPC   C2A29062   6.986   1.319  18.926 -0.3976 -0.0408  0.0726
24052DPPC   C3A29063   7.061   1.276  18.435  0.3866 -0.2550  0.2662
24052DPPC   C4A29064   7.189   1.186  17.998 -0.3007  0.1710 -0.2236
24052DPPC   C1B29065   6.989   1.844  19.153  0.2995  0.2217 -0.2305
24052DPPC   C2B29066   6.876   1.808  18.775 -0.0779  0.1063  0.4335
24052DPPC   C3B29067   6.878   1.800  18.258 -0.0087  0.0955 -0.0350
24052DPPC   C4B29068   6.947   1.762  17.769  0.2006 -0.0780  0.2038
24053DPPC   NC329069   5.557   0.154  20.475  0.1302  0.2128  0.0363
24053DPPC   PO429070   5.359   0.468  20.544  0.1029 -0.4105  0.4688
24053DPPC   GL129071   5.246   0.518  20.076 -0.0733  0.0045  0.1162
24053DPPC   GL229072   5.265   0.776  20.047 -0.0450 -0.1051 -0.0243
24053DPPC   C1A29073   5.368   0.423  19.754 -0.3273  0.1211  0.2350
24053DPPC   C2A29074   5.512   0.322  19.376 -0.1583  0.2471  0.2860
24053DPPC   C3A29075   5.578   0.315  18.884  0.1129  0.1053 -0.1553
24053DPPC   C4A29076   5.573   0.261  18.418 -0.0751 -0.0802 -0.0200
24053DPPC   C1B29077   5.290   0.840  19.689 -0.2653 -0.0285  0.1758
24053DPPC   C2B29078   5.378   0.848  19.302 -0.0977 -0.2077 -0.0439
24053DPPC   C3B29079   5.402   0.796  18.873 -0.2139  0.0111 -0.0243
24053DPPC   C4B29080   5.491   0.784  18.380  0.0141 -0.2951  0.2570
24054DPPC   NC329081   1.592   2.758  19.994  0.0732  0.1624 -0.0470
24054DPPC   PO429082   1.524   2.417  19.845 -0.0318 -0.0107 -0.0532
24054DPPC   GL129083   1.841   2.423  19.582  0.3249  0.0423 -0.3874
24054DPPC   GL229084   1.995   2.282  19.489 -0.4162 -0.2245 -0.1608
24054DPPC   C1A29085   1.672   2.590  19.292  0.0560  0.4414 -0.2032
24054DPPC   C2A29086   1.543   2.475  18.968  0.0952 -0.0818 -0.1081
24054DPPC   C3A29087   1.532   2.439  18.515  0.2629  0.0673  0.0537
24054DPPC   C4A29088   1.623   2.554  18.026  0.1269  0.0211 -0.2136
24054DPPC   C1B29089   2.042   2.355  19.134  0.1755  0.0206 -0.3046
24054DPPC   C2B29090   2.087   2.384  18.754 -0.0265  0.0566 -0.2950
24054DPPC   C3B29091   2.164   2.408  18.284  0.3221 -0.1317  0.1275
24054DPPC   C4B29092   2.260   2.427  17.788  0.1699 -0.1929  0.0921
24055DPPC   NC329093   6.253   5.970  20.684  0.1314  0.1039 -0.0329
24055DPPC   PO429094   6.427   6.254  20.559 -0.0042 -0.1320  0.2477
24055DPPC   GL129095   6.311   6.248  20.113  0.1711  0.0531 -0.1544
24055DPPC   GL229096   6.505   6.339  20.101  0.0471 -0.3818  0.1636
24055DPPC   C1A29097   6.127   6.263  19.774 -0.4196 -0.2840 -0.1862
24055DPPC   C2A29098   6.202   6.357  19.386 -0.0972 -0.0512  0.0958
24055DPPC   C3A29099   6.265   6.421  18.960 -0.1560  0.2290 -0.0324
24055DPPC   C4A29100   6.320   6.356  18.464 -0.1259  0.2036 -0.2635
24055DPPC   C1B29101   6.619   6.218  19.775 -0.0367 -0.1160  0.0910
24055DPPC   C2B29102   6.729   6.236  19.340 -0.4159 -0.0562  0.0060
24055DPPC   C3B29103   6.745   6.285  18.867 -0.1200  0.0874 -0.2650
24055DPPC   C4B29104   6.820   6.246  18.364 -0.0654  0.1912 -0.2200
24056DPPC   NC329105   6.525   4.187  20.143  0.1082  0.2509  0.2214
24056DPPC   PO429106   6.836   3.998  20.315  0.0071 -0.0933  0.1875
24056DPPC   GL129107   7.094   4.230  20.002  0.1038 -0.3944 -0.2482
24056DPPC   GL229108   6.833   4.420  19.960 -0.1261  0.0772 -0.0728
24056DPPC   C1A29109   7.109   4.054  19.705  0.2224  0.1108  0.1952
24056DPPC   C2A29110   7.023   3.957  19.298 -0.0326 -0.3282  0.1862
24056DPPC   C3A29111   6.988   3.900  18.810 -0.1616  0.0648 -0.2557
24056DPPC   C4A29112   7.012   3.969  18.335 -0.1267  0.0617  0.2602
24056DPPC   C1B29113   6.802   4.458  19.580 -0.3556  0.0074 -0.1149
24056DPPC   C2B29114   6.920   4.448  19.171  0.0697  0.1662  0.1163
24056DPPC   C3B29115   6.902   4.399  18.700 -0.0614  0.2391 -0.3043
24056DPPC   C4B29116   6.887   4.431  18.264  0.1510 -0.1083 -0.2613
24057DPPC   NC329117   2.986   3.695  20.413  0.0341 -0.1349  0.0076
24057DPPC   PO429118   2.998   3.337  20.269 -0.1902  0.0322  0.0132
24057DPPC   GL129119   2.759   3.287  19.901  0.4818  0.1094 -0.2513
24057DPPC   GL229120   2.661   3.071  19.845 -0.0139  0.0203  0.3419
24057DPPC   C1A29121   2.818   3.233  19.526  0.0708 -0.1173  0.1797
24057DPPC   C2A29122   2.807   3.151  19.116 -0.1224  0.0858  0.1381
24057DPPC   C3A29123   2.830   3.137  18.662  0.2148 -0.0327  0.1045
24057DPPC   C4A29124   2.839   3.177  18.157  0.0550  0.2236 -0.2868
24057DPPC   C1B29125   2.819   2.829  19.621  0.1280  0.0661 -0.0447
24057DPPC   C2B29126   2.970   2.699  19.308 -0.1392  0.3570 -0.0636
24057DPPC   C3B29127   2.970   2.665  18.811 -0.0937 -0.0791  0.4146
24057DPPC   C4B29128   2.941   2.630  18.306 -0.3779 -0.1796  0.1373
24058DPPC   NC329129   5.043   4.926  20.966  0.0335 -0.0669  0.1101
24058DPPC   PO429130   4.829   4.994  20.604  0.1229 -0.0577 -0.0894
24058DPPC   GL129131   4.788   4.913  20.171 -0.0829  0.2123  0.2523
24058DPPC   GL229132   4.934   5.188  20.158  0.0628 -0.0290 -0.0539
24058DPPC   C1A29133   4.525   4.865  19.910 -0.2087 -0.1990 -0.3440
24058DPPC   C2A29134   4.437   4.891  19.473  0.0527 -0.0203  0.1164
24058DPPC   C3A29135   4.402   4.895  18.994  0.2356  0.0153 -0.0811
24058DPPC   C4A29136   4.463   4.969  18.489 -0.3364  0.1718  0.1321
24058DPPC   C1B29137   4.836   5.314  19.830  0.1052  0.1366  0.2547
24058DPPC   C2B29138   4.727   5.323  19.424  0.1162  0.1211  0.5969
24058DPPC   C3B29139   4.739   5.379  18.971  0.1139 -0.2829  0.3058
24058DPPC   C4B29140   4.842   5.441  18.515 -0.2456  0.2790  0.0340
24059DPPC   NC329141   4.928   1.495  20.495 -0.1071 -0.1598 -0.2296
24059DPPC   PO429142   4.562   1.422  20.326 -0.1143 -0.2091  0.1309
24059DPPC   GL129143   4.722   1.415  19.944 -0.1941 -0.2842 -0.0852
24059DPPC   GL229144   4.976   1.349  19.995  0.1655 -0.0407  0.1448
24059DPPC   C1A29145   4.702   1.270  19.582  0.1493 -0.4817 -0.2245
24059DPPC   C2A29146   4.730   1.317  19.136 -0.1319  0.2494 -0.3077
24059DPPC   C3A29147   4.784   1.366  18.646 -0.1369 -0.0214 -0.2396
24059DPPC   C4A29148   4.764   1.362  18.135  0.0919 -0.3404  0.1900
24059DPPC   C1B29149   5.065   1.350  19.646 -0.1729 -0.2494 -0.2498
24059DPPC   C2B29150   5.268   1.333  19.250 -0.1641 -0.4720  0.3500
24059DPPC   C3B29151   5.255   1.247  18.750 -0.0792  0.0944  0.3449
24059DPPC   C4B29152   5.295   1.235  18.260 -0.3323  0.1425  0.3169
24060DPPC   NC329153   5.096   3.131  20.375 -0.1064 -0.0037 -0.2266
24060DPPC   PO429154   5.437   3.210  20.276 -0.1121 -0.2685 -0.3558
24060DPPC   GL129155   5.321   3.189  19.882 -0.1112  0.7956  0.4297
24060DPPC   GL229156   5.038   3.125  19.899 -0.1771 -0.1998 -0.3557
24060DPPC   C1A29157   5.312   3.421  19.590  0.1999 -0.2658 -0.0661
24060DPPC   C2A29158   5.389   3.456  19.210  0.3247 -0.3157 -0.0219
24060DPPC   C3A29159   5.395   3.496  18.710 -0.2255 -0.1984  0.0074
24060DPPC   C4A29160   5.449   3.531  18.255 -0.2346 -0.0229 -0.1355
24060DPPC   C1B29161   5.073   3.038  19.529  0.1502 -0.0899 -0.0390
24060DPPC   C2B29162   5.098   3.039  19.131  0.1212  0.0655  0.2019
24060DPPC   C3B29163   5.094   3.080  18.676  0.2282  0.0850 -0.0014
24060DPPC   C4B29164   5.102   3.036  18.166 -0.0860  0.0161 -0.2041
24061DPPC   NC329165   6.728   5.226  20.368  0.0470 -0.1138  0.5363
24061DPPC   PO429166   6.365   5.000  20.426  0.0862 -0.1171 -0.2513
24061DPPC   GL129167   6.213   4.968  19.960 -0.4131 -0.2221  0.2148
24061DPPC   GL229168   6.085   5.247  19.962  0.1827  0.3611  0.1710
24061DPPC   C1A29169   6.247   4.957  19.597 -0.4031 -0.1340 -0.0870
24061DPPC   C2A29170   6.291   5.008  19.169 -0.0600  0.0149  0.1339
24061DPPC   C3A29171   6.320   5.072  18.708 -0.2090  0.1976 -0.3946
24061DPPC   C4A29172   6.321   5.033  18.184  0.1828  0.0195  0.0905
24061DPPC   C1B29173   6.080   5.427  19.610  0.1220 -0.0342 -0.0520
24061DPPC   C2B29174   5.978   5.516  19.187  0.1085 -0.0258  0.1524
24061DPPC   C3B29175   6.183   5.518  18.742  0.0573 -0.2483 -0.0823
24061DPPC   C4B29176   6.177   5.581  18.253  0.2252  0.0002 -0.1793
24062DPPC   NC329177   5.694   1.410  20.424 -0.1072 -0.0034  0.2505
24062DPPC   PO429178   5.379   1.308  20.146  0.1959  0.0527 -0.1295
24062DPPC   GL129179   5.544   1.392  19.743  0.0236  0.3550 -0.1965
24062DPPC   GL229180   5.382   1.686  19.791 -0.1942  0.2304  0.0846
24062DPPC   C1A29181   5.687   1.346  19.403  0.1226 -0.2850  0.0329
24062DPPC   C2A29182   5.688   1.167  19.036  0.1072  0.4415 -0.0178
24062DPPC   C3A29183   5.697   1.165  18.597  0.0682 -0.0162 -0.0298
24062DPPC   C4A29184   5.790   1.112  18.115  0.0403 -0.1992  0.1347
24062DPPC   C1B29185   5.409   1.764  19.416 -0.1388  0.1984  0.2866
24062DPPC   C2B29186   5.587   1.636  19.036  0.2024 -0.0600  0.2353
24062DPPC   C3B29187   5.614   1.665  18.547  0.0182  0.0764  0.3880
24062DPPC   C4B29188   5.656   1.661  18.067  0.0807 -0.2060 -0.0317
24063DPPC   NC329189   3.725   5.402  20.632  0.1251 -0.0384 -0.0758
24063DPPC   PO429190   3.478   5.612  20.390 -0.2238  0.0281 -0.2209
24063DPPC   GL129191   3.348   5.592  19.981 -0.1372 -0.2098  0.0238
24063DPPC   GL229192   3.052   5.694  20.029 -0.4575 -0.1476 -0.0737
24063DPPC   C1A29193   3.376   5.637  19.631 -0.0802 -0.4710  0.2905
24063DPPC   C2A29194   3.353   5.694  19.202 -0.2995 -0.0642  0.1300
24063DPPC   C3A29195   3.253   5.702  18.738 -0.2358  0.3193 -0.0202
24063DPPC   C4A29196   3.246   5.709  18.226 -0.0333  0.0059  0.1832
24063DPPC   C1B29197   2.928   5.711  19.685  0.4219 -0.0315 -0.2316
24063DPPC   C2B29198   2.863   5.693  19.260 -0.1721 -0.0921  0.2859
24063DPPC   C3B29199   2.790   5.784  18.808 -0.1591 -0.2566 -0.2781
24063DPPC   C4B29200   2.790   5.777  18.356  0.1613  0.3834 -0.0537
24064DPPC   NC329201   1.245   4.799  20.256 -0.1353 -0.1208  0.2805
24064DPPC   PO429202   0.979   4.938  19.982  0.0241 -0.2010 -0.0714
24064DPPC   GL129203   0.947   4.890  19.588  0.1714 -0.2549 -0.0708
24064DPPC   GL229204   1.148   4.617  19.636 -0.1876 -0.2406 -0.2057
24064DPPC   C1A29205   1.012   4.937  19.252  0.2472  0.1246  0.2771
24064DPPC   C2A29206   0.896   4.955  18.848 -0.0112  0.0425 -0.1157
24064DPPC   C3A29207   0.843   4.824  18.341 -0.1419 -0.0987  0.0055
24064DPPC   C4A29208   0.867   4.830  17.833 -0.0036 -0.0287  0.0862
24064DPPC   C1B29209   1.340   4.657  19.332 -0.2819 -0.1873 -0.1197
24064DPPC   C2B29210   1.341   4.787  18.960 -0.0492  0.0003  0.2604
24064DPPC   C3B29211   1.364   4.755  18.509  0.2943 -0.3316 -0.0477
24064DPPC   C4B29212   1.256   4.695  18.054  0.1618  0.0651  0.1105
24065DPPC   NC329213   2.558   3.095  20.272 -0.4417  0.0295  0.1696
24065DPPC   PO429214   2.527   3.483  20.379  0.0807  0.0817  0.2834
24065DPPC   GL129215   2.668   3.813  20.099 -0.5172  0.1736  0.2702
24065DPPC   GL229216   2.964   3.745  19.990  0.1995  0.0418 -0.0572
24065DPPC   C1A29217   2.603   3.750  19.733  0.1125 -0.0109 -0.2873
24065DPPC   C2A29218   2.618   3.643  19.384 -0.0841 -0.1347  0.0873
24065DPPC   C3A29219   2.662   3.624  18.937 -0.0370 -0.0509 -0.1972
24065DPPC   C4A29220   2.644   3.564  18.453  0.2367  0.3130  0.2290
24065DPPC   C1B29221   3.020   3.637  19.661 -0.1988 -0.2466  0.1652
24065DPPC   C2B29222   3.103   3.550  19.284 -0.0226 -0.0393  0.1746
24065DPPC   C3B29223   3.207   3.463  18.827 -0.0062 -0.0997  0.0571
24065DPPC   C4B29224   3.171   3.453  18.344 -0.0311  0.3160 -0.1104
24066DPPC   NC329225   3.475   1.467  19.956 -0.0831 -0.3796 -0.0594
24066DPPC   PO429226   3.759   1.730  20.032  0.1734 -0.1000  0.2040
24066DPPC   GL129227   3.945   1.592  19.713  0.0461  0.0087  0.0108
24066DPPC   GL229228   4.247   1.600  19.787  0.1193 -0.1670  0.5593
24066DPPC   C1A29229   3.884   1.594  19.316 -0.0732 -0.0137 -0.3754
24066DPPC   C2A29230   3.789   1.565  18.894  0.0941 -0.0052  0.2508
24066DPPC   C3A29231   3.768   1.592  18.431 -0.2423 -0.3161  0.0319
24066DPPC   C4A29232   3.713   1.598  17.927 -0.0881 -0.3254 -0.2074
24066DPPC   C1B29233   4.281   1.405  19.478 -0.0725 -0.1295  0.1331
24066DPPC   C2B29234   4.269   1.452  19.088 -0.2208  0.0488  0.2379
24066DPPC   C3B29235   4.219   1.399  18.615  0.1413 -0.1303  0.0256
24066DPPC   C4B29236   4.177   1.454  18.130  0.0149 -0.1613 -0.0584
24067DPPC   NC329237   7.083   3.002  20.714  0.0830 -0.3310  0.0085
24067DPPC   PO429238   7.444   2.938  20.564  0.3596 -0.0157  0.0993
24067DPPC   GL129239   7.489   2.758  20.128 -0.4281 -0.2974 -0.1544
24067DPPC   GL229240   7.478   3.065  20.082  0.0580  0.2351  0.0043
24067DPPC   C1A29241   7.741   2.817  19.845 -0.2082 -0.2475 -0.1722
24067DPPC   C2A29242   7.806   2.849  19.444  0.0357  0.0295  0.0661
24067DPPC   C3A29243   7.824   2.875  18.942 -0.1006  0.1376 -0.0441
24067DPPC   C4A29244   7.864   2.850  18.469 -0.1078  0.0083  0.0497
24067DPPC   C1B29245   7.538   3.244  19.693  0.0810  0.1189 -0.0813
24067DPPC   C2B29246   7.618   3.404  19.329  0.2079  0.1452 -0.0841
24067DPPC   C3B29247   7.657   3.397  18.822  0.2300  0.1458 -0.0739
24067DPPC   C4B29248   7.688   3.347  18.395 -0.1066  0.0644 -0.2127
24068DPPC   NC329249   4.954   4.089  20.698  0.0301  0.1770  0.0521
24068DPPC   PO429250   5.296   4.193  20.529 -0.1797 -0.1992 -0.0990
24068DPPC   GL129251   5.225   4.300  20.078 -0.1142  0.0916 -0.0855
24068DPPC   GL229252   5.448   4.155  19.983  0.1682  0.1483 -0.3150
24068DPPC   C1A29253   5.065   4.260  19.746  0.3167  0.4978 -0.0349
24068DPPC   C2A29254   5.095   4.404  19.369 -0.2027  0.1222 -0.2175
24068DPPC   C3A29255   5.139   4.368  18.901  0.0708  0.0558  0.0185
24068DPPC   C4A29256   5.111   4.485  18.474  0.1415 -0.2196  0.1425
24068DPPC   C1B29257   5.541   4.251  19.618 -0.0716  0.1875 -0.4387
24068DPPC   C2B29258   5.599   4.266  19.236  0.0030  0.2334  0.2154
24068DPPC   C3B29259   5.624   4.325  18.792  0.0160 -0.3863 -0.0981
24068DPPC   C4B29260   5.558   4.337  18.291  0.0929  0.0879 -0.0724
24069DPPC   NC329261   6.074   3.857  19.957 -0.1693 -0.1821 -0.0339
24069DPPC   PO429262   6.017   4.189  20.191  0.0677 -0.3043  0.0207
24069DPPC   GL129263   5.955   4.434  19.914 -0.2810 -0.4120  0.0306
24069DPPC   GL229264   5.847   4.601  19.732 -0.1520  0.2051  0.0377
24069DPPC   C1A29265   5.966   4.193  19.600 -0.2780 -0.2165 -0.0149
24069DPPC   C2A29266   6.067   4.166  19.205  0.0135  0.0373  0.0062
24069DPPC   C3A29267   6.087   4.164  18.740  0.2436 -0.2483 -0.0692
24069DPPC   C4A29268   6.022   4.152  18.248 -0.1095  0.1863 -0.0005
24069DPPC   C1B29269   5.910   4.544  19.380  0.0528  0.3106  0.1719
24069DPPC   C2B29270   5.923   4.685  19.001 -0.0229  0.2470 -0.0064
24069DPPC   C3B29271   5.962   4.672  18.522  0.3366  0.1055  0.3298
24069DPPC   C4B29272   5.961   4.591  18.013  0.0366  0.3645 -0.2462
24070DPPC   NC329273   7.917   6.173  20.255 -0.2187  0.2520  0.3786
24070DPPC   PO429274   7.751   6.444  20.498  0.0287  0.3084  0.0033
24070DPPC   GL129275   7.714   6.624  20.126 -0.1917 -0.0429 -0.1568
24070DPPC   GL229276   7.482   6.413  20.152  0.1375 -0.2106 -0.0072
24070DPPC   C1A29277   7.827   6.433  19.834 -0.2613  0.0014 -0.3165
24070DPPC   C2A29278   7.996   6.366  19.427 -0.2014 -0.0575 -0.1017
24070DPPC   C3A29279   8.061   6.360  18.922 -0.0039  0.0250  0.0287
24070DPPC   C4A29280   8.114   6.358  18.426 -0.2488 -0.0451 -0.1033
24070DPPC   C1B29281   7.413   6.568  19.802 -0.1694  0.3555 -0.3252
24070DPPC   C2B29282   7.432   6.512  19.416 -0.1209  0.0086 -0.0695
24070DPPC   C3B29283   7.544   6.477  18.946  0.2661  0.3819  0.3018
24070DPPC   C4B29284   7.677   6.455  18.520  0.2246 -0.1733 -0.1617
24071DPPC   NC329285   5.107   4.675  20.402  0.0746  0.0395 -0.1721
24071DPPC   PO429286   4.829   4.418  20.355  0.0705 -0.0280 -0.0147
24071DPPC   GL129287   4.693   4.394  19.998  0.0459 -0.1643 -0.0059
24071DPPC   GL229288   4.580   4.138  19.928  0.0599  0.2759 -0.1873
24071DPPC   C1A29289   4.609   4.498  19.621  0.0517 -0.1813  0.2475
24071DPPC   C2A29290   4.611   4.481  19.211 -0.1304 -0.2112 -0.0292
24071DPPC   C3A29291   4.549   4.475  18.724  0.1087  0.1924  0.2013
24071DPPC   C4A29292   4.621   4.560  18.210 -0.0622  0.1514  0.0355
24071DPPC   C1B29293   4.711   3.992  19.620 -0.4582  0.4259  0.1908
24071DPPC   C2B29294   4.827   4.009  19.235 -0.3851 -0.0559 -0.2354
24071DPPC   C3B29295   4.774   4.053  18.743 -0.0221 -0.3684 -0.2170
24071DPPC   C4B29296   4.862   4.102  18.261 -0.0983 -0.0401 -0.0023
24072DPPC   NC329297   6.179   0.783  20.412  0.2547 -0.1645  0.2423
24072DPPC   PO429298   6.575   0.741  20.400  0.0193  0.1596 -0.0746
24072DPPC   GL129299   6.746   0.809  20.053 -0.1952 -0.2185 -0.0881
24072DPPC   GL229300   6.905   1.067  19.935  0.6763 -0.3231  0.1602
24072DPPC   C1A29301   6.681   0.583  19.783  0.1273 -0.1822  0.1034
24072DPPC   C2A29302   6.789   0.537  19.404  0.1662 -0.2279 -0.0852
24072DPPC   C3A29303   6.856   0.467  18.963 -0.1790 -0.2320 -0.2025
24072DPPC   C4A29304   6.932   0.448  18.414  0.0611  0.1140  0.1104
24072DPPC   C1B29305   6.977   0.970  19.581 -0.1749  0.1287  0.0678
24072DPPC   C2B29306   7.077   0.857  19.135  0.0124 -0.1401  0.1125
24072DPPC   C3B29307   7.108   0.838  18.682 -0.0997  0.4074  0.0849
24072DPPC   C4B29308   7.296   0.756  18.215  0.1159  0.1631 -0.0000
24073DPPC   NC329309   2.477   4.969  20.480  0.0767  0.1997 -0.0722
24073DPPC   PO429310   2.689   4.687  20.291  0.1107  0.2588  0.0056
24073DPPC   GL129311   2.759   4.829  19.989 -0.0087  0.0253 -0.2609
24073DPPC   GL229312   3.096   4.776  19.990  0.0343 -0.3612 -0.0519
24073DPPC   C1A29313   2.733   4.919  19.665  0.1103  0.4532 -0.2446
24073DPPC   C2A29314   2.688   4.994  19.245 -0.2393  0.2604  0.0809
24073DPPC   C3A29315   2.725   4.941  18.724  0.1503  0.2275 -0.0322
24073DPPC   C4A29316   2.626   4.904  18.228 -0.0851  0.5049  0.0632
24073DPPC   C1B29317   3.123   4.863  19.613  0.2769  0.6436  0.0661
24073DPPC   C2B29318   3.189   4.876  19.206  0.1148 -0.1074  0.2184
24073DPPC   C3B29319   3.191   4.856  18.730 -0.1355 -0.2301 -0.1038
24073DPPC   C4B29320   3.192   4.837  18.242  0.0760  0.0797 -0.1126
24074DPPC   NC329321   6.401   1.025  20.767 -0.0944  0.1485  0.2584
24074DPPC   PO429322   6.113   1.216  20.564 -0.4054 -0.0048 -0.0434
24074DPPC   GL129323   5.982   1.132  20.157  0.5321  0.2050  0.1151
24074DPPC   GL229324   5.950   1.337  20.015 -0.3986 -0.7349  0.2403
24074DPPC   C1A29325   6.203   0.879  19.931 -0.1948 -0.0446  0.0916
24074DPPC   C2A29326   6.251   0.748  19.561 -0.1297 -0.0465 -0.0426
24074DPPC   C3A29327   6.395   0.660  19.146  0.0820 -0.0312  0.1301
24074DPPC   C4A29328   6.449   0.619  18.702  0.0482  0.2804  0.2706
24074DPPC   C1B29329   6.013   1.273  19.699 -0.2804 -0.0006  0.1433
24074DPPC   C2B29330   6.080   1.135  19.302  0.1812 -0.0373 -0.0315
24074DPPC   C3B29331   6.174   1.033  18.855 -0.0366  0.0802 -0.1434
24074DPPC   C4B29332   6.233   0.971  18.406 -0.0009 -0.4610  0.0316
24075DPPC   NC329333   3.628   4.435  20.256  0.3215 -0.1754 -0.1195
24075DPPC   PO429334   3.608   4.805  20.104 -0.2153  0.3262 -0.1936
24075DPPC   GL129335   3.569   4.932  19.699  0.0107  0.1610 -0.1150
24075DPPC   GL229336   3.484   5.207  19.751 -0.3671 -0.4864 -0.0924
24075DPPC   C1A29337   3.652   4.816  19.431  0.5380 -0.0040 -0.1899
24075DPPC   C2A29338   3.645   4.760  19.005  0.1349  0.1227  0.1049
24075DPPC   C3A29339   3.627   4.762  18.506 -0.0093  0.2784  0.0336
24075DPPC   C4A29340   3.600   4.699  18.040 -0.0723 -0.2635  0.0938
24075DPPC   C1B29341   3.533   5.272  19.354  0.0635  0.1962 -0.3233
24075DPPC   C2B29342   3.466   5.246  18.975  0.1858  0.0726 -0.1228
24075DPPC   C3B29343   3.485   5.265  18.467 -0.0942  0.1467 -0.3178
24075DPPC   C4B29344   3.460   5.206  18.012 -0.0043 -0.0695  0.0471
24076DPPC   NC329345   3.198   5.240  20.255 -0.2239 -0.4889 -0.1000
24076DPPC   PO429346   2.823   5.210  20.268 -0.0942 -0.0721 -0.0828
24076DPPC   GL129347   2.788   5.396  19.908 -0.1279  0.0200 -0.6250
24076DPPC   GL229348   3.067   5.302  19.770 -0.0672  0.2461  0.3073
24076DPPC   C1A29349   2.658   5.365  19.532  0.3133  0.0682 -0.1370
24076DPPC   C2A29350   2.370   5.435  19.235  0.2124 -0.4752  0.1265
24076DPPC   C3A29351   2.444   5.372  18.778  0.0970  0.2709 -0.0004
24076DPPC   C4A29352   2.515   5.365  18.260 -0.2288 -0.1160 -0.4081
24076DPPC   C1B29353   3.037   5.291  19.379 -0.1652  0.5157  0.0024
24076DPPC   C2B29354   2.968   5.313  18.948 -0.0374  0.0950  0.0406
24076DPPC   C3B29355   2.958   5.326  18.472  0.0650  0.1980  0.2860
24076DPPC   C4B29356   2.927   5.242  17.996  0.1502  0.2206 -0.4350
24077DPPC   NC329357   6.385   0.107  20.465 -0.0370  0.0881  0.2248
24077DPPC   PO429358   6.049   0.306  20.460  0.2695 -0.1214 -0.0239
24077DPPC   GL129359   5.734   0.601  20.271  0.0600 -0.0176  0.2206
24077DPPC   GL229360   5.751   0.374  20.087 -0.0091 -0.3489 -0.1766
24077DPPC   C1A29361   5.717   0.805  19.956 -0.3158  0.2677 -0.1025
24077DPPC   C2A29362   5.796   0.844  19.609 -0.5585 -0.3001  0.2434
24077DPPC   C3A29363   5.863   0.718  19.115 -0.0289  0.2848 -0.2583
24077DPPC   C4A29364   5.895   0.700  18.667 -0.3452 -0.0235  0.2903
24077DPPC   C1B29365   5.954   0.318  19.826 -0.5682  0.0494  0.3686
24077DPPC   C2B29366   6.045   0.289  19.426  0.1383 -0.0796 -0.1927
24077DPPC   C3B29367   6.038   0.266  18.972 -0.0726  0.0638  0.2055
24077DPPC   C4B29368   6.095   0.244  18.516 -0.2059  0.0381 -0.0507
24078DPPC   NC329369   6.348   3.356  20.344 -0.3447 -0.1910  0.2709
24078DPPC   PO429370   6.529   3.645  20.079 -0.1703  0.2362 -0.1024
24078DPPC   GL129371   6.724   3.761  19.782  0.1616  0.1238  0.1649
24078DPPC   GL229372   6.609   4.034  19.749 -0.2375  0.1425 -0.1118
24078DPPC   C1A29373   6.727   3.582  19.487  0.3021 -0.2430 -0.1041
24078DPPC   C2A29374   6.708   3.559  19.081 -0.3527 -0.2474  0.1780
24078DPPC   C3A29375   6.749   3.572  18.544 -0.1228  0.0142  0.1739
24078DPPC   C4A29376   6.703   3.656  18.049  0.2964 -0.0698  0.2799
24078DPPC   C1B29377   6.514   4.055  19.434 -0.1893 -0.1538 -0.1131
24078DPPC   C2B29378   6.580   4.062  19.052 -0.3652 -0.2730 -0.1545
24078DPPC   C3B29379   6.529   4.076  18.516  0.1428  0.1539  0.2418
24078DPPC   C4B29380   6.524   4.089  18.094 -0.0488 -0.2905  0.5358
24079DPPC   NC329381   6.116   2.570  19.862  0.0757 -0.0096  0.5043
24079DPPC   PO429382   5.766   2.791  20.022 -0.0829 -0.0458 -0.0423
24079DPPC   GL129383   5.579   2.933  19.641  0.2693  0.2834 -0.1422
24079DPPC   GL229384   5.682   2.608  19.710  0.0076  0.0691 -0.1080
24079DPPC   C1A29385   5.586   3.040  19.297  0.4544  0.1642 -0.0143
24079DPPC   C2A29386   5.563   3.038  18.902 -0.2487 -0.0398 -0.0794
24079DPPC   C3A29387   5.563   2.944  18.441  0.0524 -0.3292 -0.0974
24079DPPC   C4A29388   5.667   2.876  17.949 -0.2501  0.2706  0.1865
24079DPPC   C1B29389   5.712   2.507  19.407 -0.4156 -0.0093 -0.0976
24079DPPC   C2B29390   5.617   2.541  19.022 -0.1780 -0.0872 -0.1311
24079DPPC   C3B29391   5.702   2.468  18.540 -0.0090 -0.1980 -0.4289
24079DPPC   C4B29392   5.644   2.426  18.114  0.0347 -0.0393 -0.2030
24080DPPC   NC329393   1.337   1.896  19.938  0.1603 -0.0196  0.0788
24080DPPC   PO429394   1.693   1.899  19.891  0.0606 -0.0882  0.2633
24080DPPC   GL129395   1.776   1.905  19.443 -0.2447  0.0042  0.5160
24080DPPC   GL229396   1.836   1.607  19.511 -0.0585  0.0475 -0.4300
24080DPPC   C1A29397   1.681   2.026  19.073 -0.2544  0.2943 -0.1971
24080DPPC   C2A29398   1.722   2.016  18.710 -0.2860 -0.1465  0.0333
24080DPPC   C3A29399   1.796   2.015  18.240  0.1752 -0.0101 -0.2500
24080DPPC   C4A29400   1.741   2.076  17.744 -0.0903  0.1323  0.4148
24080DPPC   C1B29401   1.826   1.485  19.172  0.1029 -0.4148 -0.2116
24080DPPC   C2B29402   1.902   1.551  18.785  0.1117  0.1559 -0.0932
24080DPPC   C3B29403   1.935   1.516  18.314  0.1937 -0.3252  0.0103
24080DPPC   C4B29404   1.951   1.490  17.829 -0.1552 -0.0517  0.0015
24081DPPC   NC329405   7.736   4.592  20.498  0.1144 -0.4867  0.1902
24081DPPC   PO429406   7.355   4.489  20.459 -0.1077 -0.1787 -0.0756
24081DPPC   GL129407   7.528   4.358  20.082  0.3439  0.1327 -0.2461
24081DPPC   GL229408   7.724   4.550  19.998  0.1566  0.4720  0.2066
24081DPPC   C1A29409   7.409   4.370  19.753  0.4125 -0.3198 -0.1268
24081DPPC   C2A29410   7.429   4.363  19.361  0.0761  0.2933  0.4384
24081DPPC   C3A29411   7.382   4.357  18.913  0.0518 -0.0251  0.0783
24081DPPC   C4A29412   7.389   4.269  18.460 -0.2157 -0.2275  0.1477
24081DPPC   C1B29413   7.744   4.662  19.632 -0.1919 -0.1019  0.0556
24081DPPC   C2B29414   7.732   4.657  19.199  0.1181 -0.1233 -0.0461
24081DPPC   C3B29415   7.764   4.662  18.729 -0.2396  0.0596  0.2277
24081DPPC   C4B29416   7.752   4.825  18.281 -0.1853  0.0312  0.1703
24082DPPC   NC329417   3.085   6.219  20.811 -0.3383 -0.0350 -0.0377
24082DPPC   PO429418   3.152   6.012  20.441  0.0256 -0.1132 -0.5049
24082DPPC   GL129419   3.340   6.115  20.146  0.2453 -0.0930 -0.0441
24082DPPC   GL229420   3.205   6.352  20.061 -0.1525  0.3058 -0.1693
24082DPPC   C1A29421   3.415   6.041  19.850  0.4038 -0.0769  0.0256
24082DPPC   C2A29422   3.603   6.075  19.508 -0.0127  0.0603 -0.2536
24082DPPC   C3A29423   3.608   6.083  19.014  0.1450  0.2679 -0.1600
24082DPPC   C4A29424   3.607   6.090  18.459  0.0975  0.1021 -0.2645
24082DPPC   C1B29425   3.284   6.507  19.712  0.1274 -0.2028  0.1993
24082DPPC   C2B29426   3.352   6.433  19.287  0.1899 -0.2450  0.0832
24082DPPC   C3B29427   3.370   6.509  18.827  0.4163  0.1437  0.0024
24082DPPC   C4B29428   3.369   6.528  18.342 -0.1555 -0.3023 -0.1547
24083DPPC   NC329429  25.904   1.008  19.860  0.0425  0.1349 -0.1624
24083DPPC   PO429430  26.030   1.374  19.853  0.3380 -0.1128  0.1413
24083DPPC   GL129431  26.006   1.322  19.473  0.1209 -0.1826 -0.3856
24083DPPC   GL229432  26.116   1.659  19.500 -0.4428  0.1025 -0.0500
24083DPPC   C1A29433  25.822   1.211  19.187 -0.1265 -0.0104  0.1375
24083DPPC   C2A29434  25.804   1.270  18.791 -0.3410 -0.2344  0.0555
24083DPPC   C3A29435  25.807   1.345  18.339 -0.1350  0.2627 -0.2473
24083DPPC   C4A29436  25.778   1.291  17.843  0.1908  0.0216 -0.2164
24083DPPC   C1B29437  26.077   1.699  19.152 -0.1329 -0.2188 -0.0706
24083DPPC   C2B29438  26.136   1.660  18.762  0.1587 -0.2764 -0.0486
24083DPPC   C3B29439  26.150   1.703  18.271 -0.1586  0.2154  0.2630
24083DPPC   C4B29440  26.125   1.690  17.784  0.1071 -0.0434  0.1616
24084DPPC   NC329441   4.767   2.300  20.681 -0.4041  0.1587  0.4420
24084DPPC   PO429442   4.955   1.982  20.556 -0.0215  0.2267  0.3742
24084DPPC   GL129443   4.892   1.822  20.127 -0.0388  0.2839 -0.1969
24084DPPC   GL229444   4.686   2.007  20.096  0.2411 -0.2025  0.1550
24084DPPC   C1A29445   4.978   1.830  19.807 -0.2203  0.2499  0.1903
24084DPPC   C2A29446   4.964   1.826  19.390  0.2404  0.0392  0.1035
24084DPPC   C3A29447   5.076   1.770  18.938 -0.0184  0.0420  0.1437
24084DPPC   C4A29448   5.121   1.658  18.426 -0.0048  0.5444 -0.0509
24084DPPC   C1B29449   4.561   1.981  19.800 -0.0510 -0.0174 -0.5006
24084DPPC   C2B29450   4.495   1.840  19.382  0.0994 -0.2307 -0.1612
24084DPPC   C3B29451   4.517   1.825  18.884 -0.1455  0.1068  0.0143
24084DPPC   C4B29452   4.564   1.775  18.390 -0.1103  0.3589 -0.1469
24085DPPC   NC329453   0.826   0.573  20.403  0.2667 -0.0551 -0.0938
24085DPPC   PO429454   0.785   0.260  20.212  0.2216 -0.1117  0.1641
24085DPPC   GL129455   0.733   0.186  19.780  0.0801 -0.2299 -0.1874
24085DPPC   GL229456   0.955   0.367  19.676  0.1512  0.0642 -0.0194
24085DPPC   C1A29457   0.699  -0.029  19.471 -0.4265 -0.0687 -0.1300
24085DPPC   C2A29458   0.634  -0.039  19.048 -0.1465  0.2589 -0.2032
24085DPPC   C3A29459   0.678   0.043  18.568 -0.0649  0.1757  0.0695
24085DPPC   C4A29460   0.658   0.012  18.105  0.1106 -0.0771  0.0305
24085DPPC   C1B29461   0.962   0.393  19.316 -0.3295 -0.4878  0.1950
24085DPPC   C2B29462   1.000   0.502  18.921  0.0314 -0.0704  0.1227
24085DPPC   C3B29463   0.995   0.446  18.513 -0.1064  0.0481 -0.0712
24085DPPC   C4B29464   1.015   0.325  18.002 -0.2561 -0.0355 -0.0066
24086DPPC   NC329465   5.923   6.019  20.281  0.1296  0.0638 -0.2541
24086DPPC   PO429466   5.891   6.374  20.422  0.2149  0.0640 -0.4233
24086DPPC   GL129467   6.029   6.596  20.080  0.3136  0.1931 -0.0454
24086DPPC   GL229468   5.731   6.476  19.927 -0.4781 -0.0125  0.0125
24086DPPC   C1A29469   6.293   6.632  19.889 -0.1940  0.1185  0.1327
24086DPPC   C2A29470   6.534   6.792  19.629  0.1348  0.1033 -0.1270
24086DPPC   C3A29471   6.535   6.757  19.167  0.0654 -0.0669 -0.2893
24086DPPC   C4A29472   6.649   6.729  18.744  0.1630  0.0021  0.0723
24086DPPC   C1B29473   5.791   6.526  19.583 -0.1795 -0.0370  0.0962
24086DPPC   C2B29474   5.772   6.500  19.181 -0.0872 -0.0457 -0.1862
24086DPPC   C3B29475   5.825   6.460  18.740 -0.0912 -0.1127 -0.0002
24086DPPC   C4B29476   5.870   6.491  18.260  0.0186  0.1917  0.0751
24087DPPC   NC329477   2.663   0.779  20.072  0.0239  0.0359  0.0025
24087DPPC   PO429478   3.004   0.663  20.252  0.1418  0.1386 -0.2309
24087DPPC   GL129479   2.886   0.356  20.032 -0.3594 -0.0083  0.0456
24087DPPC   GL229480   3.165   0.313  19.930  0.2961  0.0949  0.0241
24087DPPC   C1A29481   2.719   0.453  19.731  0.7237 -0.0085 -0.0195
24087DPPC   C2A29482   2.792   0.452  19.330 -0.0310 -0.4684  0.0421
24087DPPC   C3A29483   2.742   0.432  18.817  0.0415 -0.1601 -0.0849
24087DPPC   C4A29484   2.683   0.496  18.354 -0.2129  0.1446 -0.0573
24087DPPC   C1B29485   3.156   0.395  19.572  0.0069  0.3292  0.0558
24087DPPC   C2B29486   3.230   0.352  19.117  0.0430 -0.0030 -0.0601
24087DPPC   C3B29487   3.207   0.401  18.664 -0.2070 -0.0747  0.1446
24087DPPC   C4B29488   3.173   0.437  18.188 -0.0231  0.1630  0.2302
24088DPPC   NC329489   7.192   4.691  19.986  0.0266 -0.2352  0.1105
24088DPPC   PO429490   7.181   5.040  20.197 -0.1167  0.3468 -0.1918
24088DPPC   GL129491   7.107   5.364  19.991  0.5790  0.0054 -0.2632
24088DPPC   GL229492   6.817   5.453  19.971  0.3726 -0.1303  0.1233
24088DPPC   C1A29493   7.118   5.327  19.615 -0.0365  0.1646  0.0964
24088DPPC   C2A29494   7.131   5.287  19.171  0.1133  0.0591 -0.2205
24088DPPC   C3A29495   7.144   5.306  18.716  0.0459 -0.2341 -0.2371
24088DPPC   C4A29496   7.196   5.360  18.252  0.1901  0.0945 -0.0189
24088DPPC   C1B29497   6.746   5.700  19.696  0.0617  0.4969 -0.0129
24088DPPC   C2B29498   6.914   5.728  19.309  0.2938  0.0825 -0.1003
24088DPPC   C3B29499   6.938   5.790  18.855 -0.1752 -0.3653  0.0858
24088DPPC   C4B29500   6.937   5.756  18.369 -0.2793  0.0341 -0.3526
24089DPPC   NC329501   3.048   2.871  20.002  0.1275 -0.1167  0.0706
24089DPPC   PO429502   3.046   2.501  20.139  0.3062  0.1612 -0.1086
24089DPPC   GL129503   3.058   2.213  19.876  0.2264 -0.3554 -0.0743
24089DPPC   GL229504   2.776   2.123  19.947 -0.3802 -0.0091  0.0244
24089DPPC   C1A29505   3.163   2.193  19.514 -0.5420 -0.0475  0.0516
24089DPPC   C2A29506   3.123   2.243  19.098  0.2813  0.0416  0.1136
24089DPPC   C3A29507   3.093   2.157  18.623 -0.0353  0.2861  0.0013
24089DPPC   C4A29508   3.134   2.150  18.126  0.0432 -0.0714 -0.0173
24089DPPC   C1B29509   2.786   1.934  19.669  0.2146  0.4315  0.0984
24089DPPC   C2B29510   2.812   1.813  19.243 -0.0617 -0.1739 -0.4761
24089DPPC   C3B29511   2.742   1.775  18.769  0.4598 -0.2005  0.0746
24089DPPC   C4B29512   2.653   1.836  18.313 -0.2060  0.2261 -0.3067
24090DPPC   NC329513   0.453   6.360  19.925 -0.0986 -0.0280 -0.2055
24090DPPC   PO429514   0.802   6.396  20.100  0.2844 -0.3357  0.1145
24090DPPC   GL129515   0.994   6.298  19.798  0.0839  0.0117 -0.3847
24090DPPC   GL229516   0.738   6.142  19.614 -0.2194  0.1996 -0.1338
24090DPPC   C1A29517   1.150   6.509  19.549  0.1551  0.0142  0.5213
24090DPPC   C2A29518   1.161   6.541  19.128 -0.0116  0.2475  0.2722
24090DPPC   C3A29519   1.156   6.529  18.666  0.2718 -0.2884 -0.2507
24090DPPC   C4A29520   1.198   6.500  18.169 -0.1675 -0.1138 -0.2389
24090DPPC   C1B29521   0.863   6.163  19.258 -0.1902  0.0564  0.2060
24090DPPC   C2B29522   0.824   6.177  18.827 -0.0572 -0.1871  0.0307
24090DPPC   C3B29523   0.896   6.223  18.377  0.3550  0.1115  0.1220
24090DPPC   C4B29524   0.883   6.162  17.892  0.1332 -0.0494  0.1737
24091DPPC   NC329525   3.981   4.640  20.563 -0.2074 -0.1143  0.1019
24091DPPC   PO429526   4.034   5.014  20.449  0.0711  0.1491  0.2193
24091DPPC   GL129527   4.106   4.990  20.023 -0.0313 -0.1040 -0.0700
24091DPPC   GL229528   4.063   4.750  20.051  0.2729 -0.0090  0.3102
24091DPPC   C1A29529   4.015   5.052  19.603  0.0618  0.0487  0.1933
24091DPPC   C2A29530   3.954   5.117  19.193  0.0475 -0.0174 -0.2717
24091DPPC   C3A29531   3.951   5.135  18.756  0.1348  0.2193  0.0799
24091DPPC   C4A29532   3.962   5.126  18.255 -0.1901  0.0072 -0.2047
24091DPPC   C1B29533   4.127   4.533  19.728 -0.1766  0.2159 -0.1469
24091DPPC   C2B29534   4.076   4.565  19.255 -0.1361  0.1754  0.0397
24091DPPC   C3B29535   4.064   4.648  18.763 -0.0576 -0.1248 -0.1116
24091DPPC   C4B29536   4.088   4.650  18.262 -0.1810 -0.2600 -0.1433
24092DPPC   NC329537   1.958   1.485  19.974 -0.1568 -0.1182  0.2325
24092DPPC   PO429538   2.243   1.203  20.068  0.1311  0.1583 -0.2602
24092DPPC   GL129539   2.451   1.241  19.664 -0.0604 -0.0518  0.1023
24092DPPC   GL229540   2.166   1.284  19.543  0.0417  0.2163  0.1211
24092DPPC   C1A29541   2.582   0.956  19.446 -0.1030 -0.1189 -0.0547
24092DPPC   C2A29542   2.657   0.866  19.063 -0.2484 -0.2306 -0.1527
24092DPPC   C3A29543   2.552   0.892  18.604  0.0742 -0.0756 -0.1521
24092DPPC   C4A29544   2.519   0.965  18.151 -0.2867  0.0528 -0.1041
24092DPPC   C1B29545   2.082   1.116  19.218  0.0692 -0.2430 -0.1584
24092DPPC   C2B29546   2.095   1.018  18.835  0.0674  0.2421  0.2206
24092DPPC   C3B29547   2.096   1.030  18.353  0.0324  0.2355 -0.3185
24092DPPC   C4B29548   2.117   1.020  17.820 -0.3402 -0.0855  0.1937
24093DPPC   NC329549   4.643   2.491  20.266  0.2911  0.2139 -0.0655
24093DPPC   PO429550   4.802   2.810  20.166  0.2695 -0.1024 -0.0062
24093DPPC   GL129551   4.862   2.742  19.763  0.1362 -0.2358 -0.2757
24093DPPC   GL229552   5.149   2.608  19.724 -0.0943  0.1267  0.3305
24093DPPC   C1A29553   4.771   2.781  19.382  0.1066  0.1926  0.1535
24093DPPC   C2A29554   4.732   2.624  19.011 -0.0148 -0.2927  0.2506
24093DPPC   C3A29555   4.750   2.654  18.571 -0.1579  0.0617  0.2299
24093DPPC   C4A29556   4.701   2.720  18.123 -0.3118  0.0256 -0.0343
24093DPPC   C1B29557   5.219   2.618  19.310 -0.1068  0.0905  0.1287
24093DPPC   C2B29558   5.175   2.580  18.864 -0.0579  0.1975  0.2523
24093DPPC   C3B29559   5.222   2.569  18.422  0.1854 -0.0753  0.0745
24093DPPC   C4B29560   5.212   2.631  17.963  0.0264 -0.1302 -0.0620
24094DPPC   NC329561   6.013   2.152  20.180  0.1413 -0.1357  0.3396
24094DPPC   PO429562   6.349   2.116  20.053  0.1174  0.2018  0.0764
24094DPPC   GL129563   6.322   2.167  19.681 -0.2882 -0.0868 -0.0553
24094DPPC   GL229564   6.430   1.983  19.561  0.2909  0.3671 -0.0084
24094DPPC   C1A29565   6.204   2.432  19.456 -0.3053 -0.3452  0.2179
24094DPPC   C2A29566   6.204   2.444  19.062 -0.0079  0.0701  0.1941
24094DPPC   C3A29567   6.181   2.388  18.576 -0.1644  0.2451  0.0491
24094DPPC   C4A29568   6.251   2.408  18.161 -0.0782  0.2159 -0.0781
24094DPPC   C1B29569   6.447   1.925  19.220 -0.2811  0.0454  0.0618
24094DPPC   C2B29570   6.375   1.972  18.797  0.1572 -0.0227 -0.2264
24094DPPC   C3B29571   6.401   1.952  18.346 -0.1664  0.0868 -0.0576
24094DPPC   C4B29572   6.449   1.917  17.882  0.1428  0.0125 -0.3160
24095DPPC   NC329573   3.649   2.713  20.244  0.1061 -0.0875  0.0476
24095DPPC   PO429574   3.546   3.103  20.150 -0.0305  0.1048  0.0965
24095DPPC   GL129575   3.498   3.340  19.830  0.0565 -0.1708  0.0380
24095DPPC   GL229576   3.238   3.255  19.776 -0.3856 -0.1833 -0.0909
24095DPPC   C1A29577   3.653   3.438  19.556 -0.1111  0.0292 -0.0856
24095DPPC   C2A29578   3.611   3.417  19.153 -0.4517  0.1401 -0.0809
24095DPPC   C3A29579   3.676   3.424  18.658  0.1349 -0.3187 -0.0366
24095DPPC   C4A29580   3.642   3.392  18.136 -0.0353 -0.0440  0.0172
24095DPPC   C1B29581   3.194   3.076  19.452  0.1797  0.0089  0.3240
24095DPPC   C2B29582   3.291   2.992  19.076  0.2047 -0.0412  0.2384
24095DPPC   C3B29583   3.281   3.027  18.612 -0.1027  0.1347 -0.0594
24095DPPC   C4B29584   3.269   2.969  18.103 -0.0856 -0.1283  0.1150
24096DPPC   NC329585   4.002   0.194  20.333 -0.1067  0.1887 -0.1841
24096DPPC   PO429586   4.232   0.468  20.165  0.1292 -0.0364 -0.3129
24096DPPC   GL129587   4.360   0.461  19.847  0.4804  0.2249  0.0273
24096DPPC   GL229588   4.206   0.205  19.762  0.1479  0.0447 -0.2351
24096DPPC   C1A29589   4.545   0.545  19.542 -0.1009 -0.4457 -0.0667
24096DPPC   C2A29590   4.566   0.506  19.148  0.3138 -0.0490 -0.1255
24096DPPC   C3A29591   4.611   0.531  18.696  0.0912 -0.0721 -0.1401
24096DPPC   C4A29592   4.587   0.559  18.211  0.3040  0.1112  0.0824
24096DPPC   C1B29593   4.270   0.201  19.405  0.0699  0.0384 -0.0814
24096DPPC   C2B29594   4.208   0.138  18.991 -0.0158 -0.0366  0.2053
24096DPPC   C3B29595   4.193   0.180  18.531  0.3763 -0.2651  0.1844
24096DPPC   C4B29596   4.225   0.223  18.074  0.1308 -0.1407  0.1528
24097DPPC   NC329597   5.854   1.883  15.457  0.1255  0.1519  0.2247
24097DPPC   PO429598   5.842   1.516  15.596 -0.1133  0.0446 -0.1725
24097DPPC   GL129599   6.081   1.382  15.909  0.0591  0.2141 -0.5398
24097DPPC   GL229600   6.240   1.591  16.015  0.1083  0.3672 -0.1827
24097DPPC   C1A29601   5.900   1.248  16.206  0.0792 -0.2638  0.1123
24097DPPC   C2A29602   5.884   1.113  16.612 -0.1327 -0.3051  0.1714
24097DPPC   C3A29603   5.776   1.150  17.136  0.0872  0.1422 -0.1047
24097DPPC   C4A29604   5.725   1.207  17.624  0.2497 -0.2817 -0.0366
24097DPPC   C1B29605   6.215   1.542  16.383  0.1844 -0.1878  0.0132
24097DPPC   C2B29606   6.242   1.537  16.773  0.2371  0.0591  0.1940
24097DPPC   C3B29607   6.105   1.576  17.183  0.2848  0.2537 -0.0465
24097DPPC   C4B29608   6.078   1.602  17.716 -0.2654  0.1560  0.0305
24098DPPC   NC329609   3.114   1.081  15.235 -0.0588  0.4635  0.0283
24098DPPC   PO429610   2.847   0.853  15.419  0.1463  0.0941  0.3451
24098DPPC   GL129611   2.922   0.749  15.819  0.1321 -0.0225 -0.1571
24098DPPC   GL229612   2.670   0.939  15.874 -0.0243  0.3633 -0.0953
24098DPPC   C1A29613   3.176   0.779  16.087  0.3847  0.3170 -0.2276
24098DPPC   C2A29614   3.183   0.791  16.505 -0.1818  0.0485  0.0752
24098DPPC   C3A29615   3.134   0.863  16.961  0.1343  0.0614 -0.1911
24098DPPC   C4A29616   3.086   0.793  17.448 -0.3573 -0.0263 -0.0076
24098DPPC   C1B29617   2.694   0.921  16.232 -0.0068  0.1591  0.0806
24098DPPC   C2B29618   2.665   0.941  16.681 -0.1590  0.0571  0.1157
24098DPPC   C3B29619   2.604   0.908  17.088 -0.1662 -0.1343 -0.1431
24098DPPC   C4B29620   2.555   0.864  17.601 -0.1233  0.0085  0.1986
24099DPPC   NC329621   3.057   1.231  15.712  0.1610  0.2946 -0.0831
24099DPPC   PO429622   3.261   1.471  15.471  0.0164  0.0690 -0.1400
24099DPPC   GL129623   3.335   1.541  15.863 -0.3270 -0.1479  0.1024
24099DPPC   GL229624   3.614   1.561  15.766  0.2256 -0.1092  0.0150
24099DPPC   C1A29625   3.340   1.621  16.220 -0.5084 -0.2421  0.1761
24099DPPC   C2A29626   3.354   1.696  16.643  0.0462  0.0125 -0.3022
24099DPPC   C3A29627   3.310   1.749  17.117  0.2402  0.1334  0.2287
24099DPPC   C4A29628   3.222   1.704  17.628  0.1356 -0.0265 -0.1752
24099DPPC   C1B29629   3.810   1.522  16.028 -0.0901  0.0289  0.0114
24099DPPC   C2B29630   3.796   1.506  16.432  0.0559 -0.0467 -0.2028
24099DPPC   C3B29631   3.763   1.543  16.900  0.1811  0.0954 -0.3717
24099DPPC   C4B29632   3.703   1.593  17.423 -0.1247 -0.0548 -0.0348
24100DPPC   NC329633   2.654   3.703  15.402 -0.3341  0.1811 -0.0488
24100DPPC   PO429634   2.806   4.018  15.582 -0.1395 -0.2558 -0.1769
24100DPPC   GL129635   2.880   4.164  15.933  0.0170 -0.1833  0.3141
24100DPPC   GL229636   2.557   4.132  16.004 -0.0943 -0.1884  0.0531
24100DPPC   C1A29637   3.052   4.028  16.205 -0.2338  0.3862 -0.2004
24100DPPC   C2A29638   3.100   3.945  16.590 -0.3781  0.0123  0.0263
24100DPPC   C3A29639   3.030   4.022  17.114  0.1591  0.0308 -0.0833
24100DPPC   C4A29640   3.108   4.011  17.582 -0.1073  0.4048 -0.1689
24100DPPC   C1B29641   2.577   4.026  16.365 -0.0659 -0.2147 -0.0304
24100DPPC   C2B29642   2.515   4.098  16.784  0.2478  0.3853  0.1684
24100DPPC   C3B29643   2.550   4.084  17.288 -0.1968  0.0958  0.3211
24100DPPC   C4B29644   2.628   4.075  17.765  0.2963  0.0576  0.0121
24101DPPC   NC329645   0.683   2.177  15.744  0.1106 -0.2511  0.3091
24101DPPC   PO429646   0.825   2.520  15.627 -0.5846 -0.2661 -0.3312
24101DPPC   GL129647   0.624   2.809  15.907 -0.0051  0.0686  0.0817
24101DPPC   GL229648   0.640   2.519  16.119 -0.0337  0.2578 -0.2527
24101DPPC   C1A29649   0.638   3.051  16.225 -0.1301  0.1716 -0.1118
24101DPPC   C2A29650   0.564   3.214  16.585  0.1122 -0.1051  0.0671
24101DPPC   C3A29651   0.633   3.295  17.009 -0.1047 -0.1099 -0.2838
24101DPPC   C4A29652   0.933   3.520  17.264 -0.0089  0.0408  0.0875
24101DPPC   C1B29653   0.695   2.660  16.437  0.1559  0.0232 -0.0496
24101DPPC   C2B29654   0.833   2.864  16.721  0.1204  0.1090  0.0409
24101DPPC   C3B29655   1.085   3.153  16.965  0.0238  0.2426  0.0147
24101DPPC   C4B29656   1.489   3.454  16.975  0.1015  0.1168  0.0176
24102DPPC   NC329657   5.812   5.917  15.277  0.2235 -0.2259 -0.0754
24102DPPC   PO429658   5.816   5.884  15.679 -0.0289  0.1274  0.0111
24102DPPC   GL129659   5.664   6.151  16.023  0.0711 -0.1921 -0.2209
24102DPPC   GL229660   5.565   5.905  16.073 -0.0116  0.0833  0.2246
24102DPPC   C1A29661   5.792   6.271  16.342  0.1799  0.1088  0.3726
24102DPPC   C2A29662   5.860   6.425  16.690  0.1375 -0.0755  0.1365
24102DPPC   C3A29663   5.798   6.417  17.171  0.2267 -0.1925  0.3244
24102DPPC   C4A29664   5.771   6.485  17.684 -0.2274  0.0248  0.1312
24102DPPC   C1B29665   5.699   5.705  16.284 -0.0477  0.1674  0.0697
24102DPPC   C2B29666   5.707   5.658  16.694 -0.1357 -0.0255 -0.1671
24102DPPC   C3B29667   5.701   5.654  17.183 -0.4108 -0.0669  0.0252
24102DPPC   C4B29668   5.758   5.618  17.669 -0.0154 -0.0070 -0.1620
24103DPPC   NC329669   5.023   1.996  15.422 -0.0190  0.1489 -0.0736
24103DPPC   PO429670   5.361   1.900  15.624 -0.1444 -0.1011  0.1272
24103DPPC   GL129671   5.341   1.906  16.057  0.0681  0.6042  0.0598
24103DPPC   GL229672   5.259   1.617  16.140  0.1493  0.0052 -0.3119
24103DPPC   C1A29673   5.429   2.121  16.309 -0.0144 -0.0855  0.0096
24103DPPC   C2A29674   5.474   2.160  16.718 -0.0140  0.0605 -0.1444
24103DPPC   C3A29675   5.320   2.106  17.223  0.0713  0.2309 -0.1497
24103DPPC   C4A29676   5.319   2.222  17.745  0.1315  0.2056 -0.2940
24103DPPC   C1B29677   5.181   1.694  16.482  0.1632 -0.0480  0.2064
24103DPPC   C2B29678   5.115   1.750  16.863 -0.2110 -0.3301 -0.0359
24103DPPC   C3B29679   5.083   1.737  17.373  0.0541  0.2262  0.1164
24103DPPC   C4B29680   5.095   1.828  17.874 -0.1123 -0.0500  0.3931
24104DPPC   NC329681   4.177   2.001  15.586 -0.0098  0.1091  0.1526
24104DPPC   PO429682   4.578   2.004  15.724  0.1616  0.0993  0.0597
24104DPPC   GL129683   4.531   1.783  16.083  0.1846  0.0893  0.0049
24104DPPC   GL229684   4.216   1.680  15.959  0.1667  0.0210 -0.1195
24104DPPC   C1A29685   4.609   1.759  16.427 -0.0224  0.4614  0.1518
24104DPPC   C2A29686   4.601   1.726  16.848 -0.1071 -0.0556 -0.0609
24104DPPC   C3A29687   4.620   1.739  17.390  0.0487 -0.0794  0.1530
24104DPPC   C4A29688   4.568   1.775  17.890  0.4253 -0.0366 -0.3091
24104DPPC   C1B29689   4.143   1.759  16.301 -0.3438 -0.1381 -0.1765
24104DPPC   C2B29690   4.126   1.807  16.707  0.0628  0.2938  0.3468
24104DPPC   C3B29691   4.147   1.915  17.154 -0.2494 -0.1096 -0.1317
24104DPPC   C4B29692   4.125   1.978  17.593 -0.2156  0.0325 -0.0127
24105DPPC   NC329693   5.769   0.536  15.561  0.0077 -0.1702 -0.0496
24105DPPC   PO429694   5.859   0.180  15.778  0.0368  0.0354  0.0301
24105DPPC   GL129695   5.628   0.185  16.059 -0.1131 -0.0251  0.0712
24105DPPC   GL229696   5.384   0.355  16.026 -0.1426 -0.1141 -0.0386
24105DPPC   C1A29697   5.511   0.017  16.360  0.1603 -0.0904 -0.0610
24105DPPC   C2A29698   5.367  -0.136  16.732  0.3257  0.2632  0.0617
24105DPPC   C3A29699   5.299  -0.094  17.207 -0.0779  0.0020  0.0400
24105DPPC   C4A29700   5.279  -0.113  17.705 -0.3218  0.2593 -0.1094
24105DPPC   C1B29701   5.285   0.426  16.323  0.1635 -0.0097 -0.4309
24105DPPC   C2B29702   5.161   0.424  16.707 -0.2516  0.1671 -0.2491
24105DPPC   C3B29703   5.148   0.349  17.198  0.0733 -0.1997  0.1307
24105DPPC   C4B29704   5.100   0.440  17.694  0.1911  0.0580 -0.1048
24106DPPC   NC329705   3.482   3.349  15.222  0.2582 -0.0639 -0.0262
24106DPPC   PO429706   3.671   3.046  15.408 -0.0967  0.0687  0.0736
24106DPPC   GL129707   3.657   3.000  15.878  0.0112  0.3698 -0.0488
24106DPPC   GL229708   3.776   3.218  15.898  0.4215  0.2191 -0.3046
24106DPPC   C1A29709   3.516   2.899  16.195 -0.1424 -0.2061 -0.2902
24106DPPC   C2A29710   3.377   3.039  16.569  0.0364 -0.0133 -0.1420
24106DPPC   C3A29711   3.393   3.066  17.072  0.0514 -0.3251 -0.1191
24106DPPC   C4A29712   3.291   3.019  17.557  0.0912 -0.0927  0.1924
24106DPPC   C1B29713   3.834   3.284  16.242 -0.2196 -0.1286  0.1747
24106DPPC   C2B29714   3.776   3.392  16.653 -0.0109  0.3218 -0.2150
24106DPPC   C3B29715   3.782   3.386  17.161 -0.0056  0.0923 -0.0002
24106DPPC   C4B29716   3.800   3.408  17.658 -0.1429  0.0267 -0.1654
24107DPPC   NC329717   3.049   3.335  15.539 -0.1296 -0.1227  0.2445
24107DPPC   PO429718   2.785   3.071  15.501  0.6847  0.1769  0.3058
24107DPPC   GL129719   2.785   2.981  15.929  0.3162 -0.1334  0.3497
24107DPPC   GL229720   2.795   2.728  15.893 -0.1609  0.0416 -0.0630
24107DPPC   C1A29721   2.802   3.025  16.298 -0.0313 -0.1220  0.2062
24107DPPC   C2A29722   2.883   3.109  16.653 -0.1980 -0.1613  0.0360
24107DPPC   C3A29723   2.898   3.142  17.142  0.0512 -0.0615 -0.0365
24107DPPC   C4A29724   2.816   3.199  17.631  0.1034  0.1498 -0.0841
24107DPPC   C1B29725   2.778   2.510  16.206 -0.3299  0.5443 -0.1430
24107DPPC   C2B29726   2.754   2.340  16.573 -0.0830 -0.0100 -0.1361
24107DPPC   C3B29727   2.711   2.280  16.993  0.1219 -0.1065  0.1229
24107DPPC   C4B29728   2.648   2.291  17.494  0.0316 -0.1254 -0.0662
24108DPPC   NC329729   2.100   4.873  15.311  0.1643  0.1774  0.1263
24108DPPC   PO429730   1.998   4.570  15.524 -0.0097  0.1073 -0.2476
24108DPPC   GL129731   2.012   4.574  15.902 -0.3434  0.2035 -0.2120
24108DPPC   GL229732   2.297   4.508  16.027  0.3907  0.2509  0.1178
24108DPPC   C1A29733   1.877   4.580  16.241  0.1075  0.0927 -0.0131
24108DPPC   C2A29734   1.888   4.586  16.628 -0.0876  0.5715  0.1176
24108DPPC   C3A29735   1.851   4.608  17.147  0.1095 -0.1962  0.1242
24108DPPC   C4A29736   1.821   4.644  17.592 -0.1608 -0.0756 -0.1609
24108DPPC   C1B29737   2.334   4.590  16.398  0.0200  0.0515 -0.0265
24108DPPC   C2B29738   2.412   4.571  16.801 -0.0427 -0.0361 -0.3256
24108DPPC   C3B29739   2.449   4.572  17.221  0.1786 -0.1371 -0.1450
24108DPPC   C4B29740   2.420   4.591  17.702  0.2369 -0.2901 -0.1098
24109DPPC   NC329741   1.366   0.916  15.458 -0.1275  0.2917  0.1692
24109DPPC   PO429742   1.754   0.938  15.519 -0.0305  0.0233  0.1006
24109DPPC   GL129743   1.847   0.986  15.874  0.1099  0.1333 -0.0476
24109DPPC   GL229744   1.932   0.714  15.965 -0.1501  0.1464 -0.0040
24109DPPC   C1A29745   1.623   1.135  16.105 -0.1046  0.2924 -0.5606
24109DPPC   C2A29746   1.698   1.131  16.484 -0.0912 -0.1159  0.1832
24109DPPC   C3A29747   1.769   1.201  16.959  0.1023 -0.2762  0.2329
24109DPPC   C4A29748   1.955   1.517  17.324  0.0935  0.1261 -0.1238
24109DPPC   C1B29749   1.972   0.765  16.299  0.1834 -0.1641 -0.1190
24109DPPC   C2B29750   1.853   0.688  16.686 -0.1547  0.2565 -0.0903
24109DPPC   C3B29751   1.790   0.680  17.136  0.2869 -0.1528 -0.2318
24109DPPC   C4B29752   1.870   0.596  17.646  0.1631  0.3136  0.0253
24110DPPC   NC329753   3.402   5.038  15.355 -0.1799 -0.3935  0.1409
24110DPPC   PO429754   3.092   4.875  15.520 -0.1212  0.1574 -0.1142
24110DPPC   GL129755   2.971   4.836  15.879 -0.0035 -0.2424  0.0859
24110DPPC   GL229756   2.792   4.651  15.858  0.0199  0.4402 -0.2139
24110DPPC   C1A29757   2.930   5.058  16.157  0.0548 -0.0880 -0.1775
24110DPPC   C2A29758   2.983   5.250  16.534  0.1024 -0.0904  0.1575
24110DPPC   C3A29759   2.965   5.299  16.962  0.1241 -0.3282 -0.0488
24110DPPC   C4A29760   3.008   5.323  17.489  0.1844  0.0449 -0.1796
24110DPPC   C1B29761   2.749   4.490  16.109  0.2500  0.1961  0.4331
24110DPPC   C2B29762   2.884   4.354  16.430  0.1841 -0.0056 -0.1225
24110DPPC   C3B29763   2.979   4.469  16.921  0.1422  0.0689 -0.0144
24110DPPC   C4B29764   2.861   4.427  17.447 -0.2541  0.1167  0.0149
24111DPPC   NC329765   4.242   4.767  15.522  0.0915 -0.2622  0.1375
24111DPPC   PO429766   4.556   4.870  15.741  0.0983  0.2209  0.2397
24111DPPC   GL129767   4.569   4.899  16.214 -0.0171 -0.0655  0.2161
24111DPPC   GL229768   4.268   4.983  16.079 -0.1137 -0.3384 -0.1163
24111DPPC   C1A29769   4.492   4.840  16.576  0.1605  0.0995 -0.1876
24111DPPC   C2A29770   4.478   4.990  16.951 -0.2476  0.2160 -0.0581
24111DPPC   C3A29771   4.511   4.966  17.397 -0.2583 -0.0105  0.1234
24111DPPC   C4A29772   4.588   4.974  17.915 -0.0231 -0.1715  0.0873
24111DPPC   C1B29773   4.065   5.005  16.400 -0.1254  0.1023 -0.0276
24111DPPC   C2B29774   4.024   5.095  16.818  0.1770  0.3257 -0.1992
24111DPPC   C3B29775   4.050   5.103  17.307 -0.2669 -0.2713  0.0666
24111DPPC   C4B29776   4.006   5.062  17.786  0.0635 -0.1111 -0.4135
24112DPPC   NC329777   3.724   0.754  15.247 -0.1233 -0.0149  0.1986
24112DPPC   PO429778   3.615   1.091  15.361 -0.1943 -0.2497  0.3881
24112DPPC   GL129779   3.731   0.985  15.708 -0.3385  0.2270 -0.1778
24112DPPC   GL229780   3.463   1.106  15.877 -0.0682  0.1714  0.1517
24112DPPC   C1A29781   3.706   0.684  15.963 -0.2007 -0.0098 -0.4329
24112DPPC   C2A29782   3.625   0.588  16.369  0.1103 -0.0336 -0.0179
24112DPPC   C3A29783   3.603   0.683  16.812 -0.1697 -0.0641 -0.4097
24112DPPC   C4A29784   3.546   0.708  17.226  0.0302 -0.0377 -0.4119
24112DPPC   C1B29785   3.575   1.104  16.262 -0.1270  0.3695  0.0120
24112DPPC   C2B29786   3.461   1.179  16.649 -0.0689  0.0340  0.0013
24112DPPC   C3B29787   3.452   1.183  17.124 -0.0217  0.2627  0.0226
24112DPPC   C4B29788   3.331   1.190  17.618  0.1655 -0.1657 -0.1773
24113DPPC   NC329789   5.832   5.410  15.960  0.1360  0.1595  0.2075
24113DPPC   PO429790   5.526   5.479  15.703  0.0952 -0.1779  0.2684
24113DPPC   GL129791   5.334   5.480  16.049  0.2742  0.0352  0.2975
24113DPPC   GL229792   5.439   5.203  16.164  0.2256  0.1740  0.1003
24113DPPC   C1A29793   5.324   5.626  16.397  0.4393  0.0191  0.1154
24113DPPC   C2A29794   5.216   5.705  16.719  0.0467 -0.1057  0.1271
24113DPPC   C3A29795   5.200   5.790  17.203  0.1642  0.2775 -0.0320
24113DPPC   C4A29796   5.176   5.782  17.689 -0.1061 -0.0142 -0.1241
24113DPPC   C1B29797   5.327   5.197  16.536  0.1692  0.1227 -0.2046
24113DPPC   C2B29798   5.355   5.287  16.957 -0.1513 -0.0294  0.0122
24113DPPC   C3B29799   5.358   5.310  17.475 -0.0655  0.0862 -0.0433
24113DPPC   C4B29800   5.439   5.321  17.925 -0.0747 -0.0687  0.0040
24114DPPC   NC329801   3.770   3.930  15.703 -0.1286 -0.0291  0.2359
24114DPPC   PO429802   3.521   3.593  15.661  0.0946  0.0831 -0.1443
24114DPPC   GL129803   3.478   3.623  16.122  0.0516 -0.0366  0.1001
24114DPPC   GL229804   3.588   3.941  16.135  0.0222  0.1351 -0.4041
24114DPPC   C1A29805   3.311   3.484  16.464  0.3361  0.0136 -0.0111
24114DPPC   C2A29806   3.225   3.485  16.890 -0.1997  0.1060 -0.1392
24114DPPC   C3A29807   3.197   3.475  17.366 -0.3233 -0.0909  0.0956
24114DPPC   C4A29808   3.177   3.498  17.839  0.0534 -0.0509 -0.1983
24114DPPC   C1B29809   3.589   3.883  16.492  0.1450 -0.0217 -0.1498
24114DPPC   C2B29810   3.618   3.799  16.930  0.2075 -0.2021  0.1753
24114DPPC   C3B29811   3.569   3.773  17.406 -0.1440 -0.3797 -0.2084
24114DPPC   C4B29812   3.511   3.932  17.916 -0.2771  0.0401  0.0097
24115DPPC   NC329813   1.744   0.432  15.594  0.0796 -0.1004 -0.0232
24115DPPC   PO429814   1.960   0.217  15.357  0.0973  0.1877  0.0487
24115DPPC   GL129815   2.020  -0.040  15.698 -0.0640  0.1469 -0.2972
24115DPPC   GL229816   1.723  -0.043  15.663  0.0184  0.0658 -0.2625
24115DPPC   C1A29817   2.153  -0.089  16.033 -0.4205  0.0274  0.3482
24115DPPC   C2A29818   2.195  -0.220  16.383  0.0600 -0.0200  0.3005
24115DPPC   C3A29819   2.192  -0.276  16.870  0.1773 -0.0944  0.0031
24115DPPC   C4A29820   2.172  -0.343  17.351  0.2205  0.0826 -0.2514
24115DPPC   C1B29821   1.615  -0.024  16.009 -0.3492 -0.5711  0.0449
24115DPPC   C2B29822   1.670  -0.186  16.343 -0.0439  0.4225  0.2124
24115DPPC   C3B29823   1.643  -0.199  16.850  0.0301  0.2712 -0.2464
24115DPPC   C4B29824   1.654  -0.207  17.365  0.0498 -0.0847 -0.1570
24116DPPC   NC329825   1.522   6.561  15.218 -0.0078 -0.0401  0.0858
24116DPPC   PO429826   1.242   6.535  15.535 -0.0115  0.1100  0.0505
24116DPPC   GL129827   1.157   6.597  15.920  0.0620  0.0332  0.0888
24116DPPC   GL229828   0.879   6.687  15.880  0.0188  0.0928 -0.3208
24116DPPC   C1A29829   1.232   6.603  16.281  0.0149  0.3005 -0.3585
24116DPPC   C2A29830   1.220   6.568  16.699 -0.0573 -0.2492 -0.0532
24116DPPC   C3A29831   1.240   6.534  17.174  0.0006 -0.2580  0.0846
24116DPPC   C4A29832   1.141   6.556  17.689 -0.3026  0.3532 -0.2582
24116DPPC   C1B29833   0.772   6.723  16.226  0.1220 -0.0896  0.1063
24116DPPC   C2B29834   0.703   6.622  16.639  0.1229  0.1657  0.2885
24116DPPC   C3B29835   0.747   6.575  17.093 -0.2281  0.4069 -0.1303
24116DPPC   C4B29836   0.676   6.742  17.537  0.3693  0.1550  0.2648
24117DPPC   NC329837   1.998   5.429  15.473  0.2639 -0.0376  0.0931
24117DPPC   PO429838   2.360   5.337  15.501  0.0951  0.2361  0.1327
24117DPPC   GL129839   2.339   5.367  15.917  0.3110 -0.1420 -0.0354
24117DPPC   GL229840   2.100   5.560  15.901 -0.3050  0.0913  0.1257
24117DPPC   C1A29841   2.403   5.239  16.243  0.1870  0.3640 -0.1248
24117DPPC   C2A29842   2.513   5.304  16.683  0.2820  0.3673 -0.0246
24117DPPC   C3A29843   2.539   5.331  17.166 -0.0959 -0.0653  0.1360
24117DPPC   C4A29844   2.536   5.366  17.648  0.0236  0.1070 -0.2691
24117DPPC   C1B29845   1.968   5.485  16.211 -0.4790  0.1996 -0.1654
24117DPPC   C2B29846   2.029   5.464  16.627 -0.1963  0.0415 -0.0676
24117DPPC   C3B29847   1.938   5.402  17.125 -0.0444  0.1387 -0.0076
24117DPPC   C4B29848   1.981   5.445  17.613  0.0871  0.3634 -0.0207
24118DPPC   NC329849   8.324   0.792  15.763 -0.1780 -0.0846 -0.1216
24118DPPC   PO429850   8.206   1.180  15.818  0.0245 -0.0875 -0.0997
24118DPPC   GL129851   7.842   1.211  16.128 -0.4180  0.2076 -0.2499
24118DPPC   GL229852   8.071   1.433  16.290 -0.4900  0.1122 -0.3728
24118DPPC   C1A29853   7.573   1.116  16.376  0.0357  0.0931 -0.0815
24118DPPC   C2A29854   7.737   1.168  16.770 -0.2403  0.1158  0.0729
24118DPPC   C3A29855   7.726   1.207  17.291 -0.1131 -0.2518 -0.0836
24118DPPC   C4A29856   7.620   1.288  17.735 -0.1517  0.1786 -0.1420
24118DPPC   C1B29857   8.056   1.581  16.669 -0.1718 -0.0163  0.0878
24118DPPC   C2B29858   7.988   1.638  17.091  0.0686 -0.1246 -0.1126
24118DPPC   C3B29859   7.947   1.656  17.543 -0.0975  0.1290 -0.0905
24118DPPC   C4B29860   7.888   1.711  18.038 -0.1372 -0.2390  0.4307
24119DPPC   NC329861   4.255   5.333  15.631 -0.1018 -0.0143 -0.1866
24119DPPC   PO429862   3.893   5.131  15.577  0.0370  0.1825  0.0896
24119DPPC   GL129863   3.805   5.091  15.988  0.1301 -0.1137  0.0651
24119DPPC   GL229864   3.783   5.379  16.032  0.0861  0.1411  0.5820
24119DPPC   C1A29865   3.710   4.835  16.237  0.2838  0.1229 -0.2630
24119DPPC   C2A29866   3.699   4.707  16.573  0.2994  0.2128 -0.0866
24119DPPC   C3A29867   3.744   4.756  17.036  0.0098 -0.0304 -0.0885
24119DPPC   C4A29868   3.741   4.729  17.505  0.0177  0.0914 -0.0721
24119DPPC   C1B29869   3.872   5.540  16.365 -0.0759 -0.1521  0.1292
24119DPPC   C2B29870   3.830   5.581  16.777  0.0805 -0.2042  0.0646
24119DPPC   C3B29871   3.829   5.618  17.189 -0.0442  0.4527 -0.0023
24119DPPC   C4B29872   3.815   5.505  17.663  0.2267 -0.2399 -0.0707
24120DPPC   NC329873   3.195   6.499  15.837  0.0613  0.2355  0.1586
24120DPPC   PO429874   3.187   6.867  15.735 -0.3914  0.2011  0.1352
24120DPPC   GL129875   2.946   6.965  16.077 -0.3266  0.2462  0.0355
24120DPPC   GL229876   3.002   6.615  16.171  0.0406  0.0133  0.0669
24120DPPC   C1A29877   2.804   7.114  16.431  0.1339 -0.0390  0.7615
24120DPPC   C2A29878   2.801   7.095  16.821  0.0559  0.1194  0.0186
24120DPPC   C3A29879   2.751   7.101  17.316 -0.0458 -0.0631  0.0854
24120DPPC   C4A29880   2.771   7.039  17.866  0.0364  0.3167  0.0488
24120DPPC   C1B29881   2.962   6.595  16.514  0.1578  0.0002 -0.1196
24120DPPC   C2B29882   2.978   6.598  16.915  0.2260  0.0584  0.1226
24120DPPC   C3B29883   2.961   6.567  17.338  0.1149  0.4158 -0.0568
24120DPPC   C4B29884   3.003   6.584  17.876 -0.0665  0.0123 -0.3095
24121DPPC   NC329885   6.750   1.803  15.217 -0.0070  0.2468  0.0137
24121DPPC   PO429886   6.705   1.424  15.378 -0.0311  0.4510  0.0527
24121DPPC   GL129887   6.766   1.367  15.804  0.3021  0.0576 -0.3376
24121DPPC   GL229888   7.082   1.344  15.740 -0.2762  0.0526 -0.1640
24121DPPC   C1A29889   6.654   1.413  16.171 -0.1423 -0.0469 -0.1611
24121DPPC   C2A29890   6.687   1.465  16.570  0.2530 -0.0762 -0.0866
24121DPPC   C3A29891   6.678   1.455  17.076 -0.2294  0.1296 -0.0760
24121DPPC   C4A29892   6.592   1.444  17.517  0.3030 -0.0753  0.0442
24121DPPC   C1B29893   7.098   1.317  16.119 -0.0694 -0.0468  0.0999
24121DPPC   C2B29894   7.167   1.250  16.499  0.0112 -0.1046 -0.0147
24121DPPC   C3B29895   7.134   1.272  17.052 -0.2956  0.2162 -0.3007
24121DPPC   C4B29896   7.110   1.348  17.533  0.3021 -0.0479  0.0100
24122DPPC   NC329897   6.691   0.943  15.344 -0.2522  0.1161  0.0370
24122DPPC   PO429898   7.017   0.834  15.584  0.0291  0.1109  0.0443
24122DPPC   GL129899   7.014   0.773  15.987 -0.0474 -0.1079  0.0009
24122DPPC   GL229900   6.890   1.006  16.008 -0.0609  0.0323  0.2560
24122DPPC   C1A29901   7.183   0.848  16.323  0.0988  0.1267 -0.3006
24122DPPC   C2A29902   7.270   0.827  16.736 -0.1795  0.0361  0.1585
24122DPPC   C3A29903   7.287   0.786  17.196 -0.1569 -0.1643 -0.3238
24122DPPC   C4A29904   7.293   0.813  17.656 -0.1290 -0.1399  0.0105
24122DPPC   C1B29905   6.793   1.007  16.374  0.0216 -0.1732 -0.1691
24122DPPC   C2B29906   6.781   1.013  16.788 -0.0431 -0.0758  0.3265
24122DPPC   C3B29907   6.833   0.970  17.308 -0.0726 -0.0912 -0.0990
24122DPPC   C4B29908   6.743   0.960  17.771 -0.0850  0.2016  0.0111
24123DPPC   NC329909   4.487   0.499  15.416 -0.1813  0.0657  0.1952
24123DPPC   PO429910   4.660   0.734  15.737  0.2016  0.2294  0.2948
24123DPPC   GL129911   4.566   0.724  16.095  0.0711 -0.1984  0.0843
24123DPPC   GL229912   4.634   0.981  16.198 -0.2732  0.0984  0.1790
24123DPPC   C1A29913   4.335   0.598  16.328 -0.1595 -0.1433  0.1466
24123DPPC   C2A29914   4.164   0.522  16.683 -0.0529  0.0469 -0.4094
24123DPPC   C3A29915   4.053   0.594  17.178  0.1746 -0.2481 -0.0635
24123DPPC   C4A29916   3.987   0.623  17.700 -0.5308 -0.3183 -0.1361
24123DPPC   C1B29917   4.497   0.932  16.518 -0.0762  0.1147  0.2082
24123DPPC   C2B29918   4.465   0.938  16.897  0.1163  0.3571  0.4614
24123DPPC   C3B29919   4.422   0.986  17.375 -0.0301 -0.0652 -0.0519
24123DPPC   C4B29920   4.363   0.982  17.886  0.0459  0.2322  0.0044
24124DPPC   NC329921   7.172   4.727  15.290 -0.1306 -0.0275  0.0802
24124DPPC   PO429922   7.081   4.999  15.558  0.1636  0.1314 -0.0109
24124DPPC   GL129923   6.973   4.864  15.955 -0.0246  0.3282 -0.1455
24124DPPC   GL229924   6.747   4.960  15.971  0.1154 -0.2161  0.0401
24124DPPC   C1A29925   7.190   4.803  16.241  0.2901 -0.1064  0.3312
24124DPPC   C2A29926   7.402   4.853  16.596  0.0401  0.0223  0.0886
24124DPPC   C3A29927   7.408   4.899  17.047 -0.2946 -0.3227 -0.2526
24124DPPC   C4A29928   7.301   4.881  17.530 -0.1084 -0.1895  0.1694
24124DPPC   C1B29929   6.735   5.029  16.337  0.0382 -0.0121 -0.2216
24124DPPC   C2B29930   6.755   4.926  16.727 -0.3377  0.1454  0.3120
24124DPPC   C3B29931   6.783   4.972  17.209  0.0855  0.1737  0.0437
24124DPPC   C4B29932   6.832   5.043  17.692 -0.1030  0.0584 -0.0443
24125DPPC   NC329933   3.598   5.647  15.609 -0.0312 -0.0052 -0.1858
24125DPPC   PO429934   3.919   5.827  15.761  0.1713 -0.3011 -0.3045
24125DPPC   GL129935   3.774   5.921  16.172  0.0859  0.1482  0.3291
24125DPPC   GL229936   4.080   5.946  16.157  0.1472  0.1282  0.3215
24125DPPC   C1A29937   3.658   5.944  16.530  0.1236 -0.4005  0.3453
24125DPPC   C2A29938   3.656   6.012  16.937  0.1650 -0.3329  0.0393
24125DPPC   C3A29939   3.682   5.999  17.426  0.1285  0.0300 -0.0720
24125DPPC   C4A29940   3.663   6.075  17.938 -0.0986 -0.1363 -0.0185
24125DPPC   C1B29941   4.230   5.868  16.458 -0.0601  0.0559 -0.0591
24125DPPC   C2B29942   4.157   5.945  16.878  0.1644  0.0349  0.0661
24125DPPC   C3B29943   4.202   5.962  17.382 -0.1421 -0.1171 -0.1149
24125DPPC   C4B29944   4.078   5.898  17.841 -0.3624 -0.0302  0.2577
24126DPPC   NC329945   5.604   2.705  15.852  0.1550 -0.2889  0.0706
24126DPPC   PO429946   5.726   2.356  15.673 -0.0746 -0.0879 -0.1475
24126DPPC   GL129947   5.700   2.204  15.947 -0.5671  0.0888 -0.2016
24126DPPC   GL229948   5.759   1.883  15.900 -0.2294 -0.1399 -0.1688
24126DPPC   C1A29949   5.758   2.422  16.266  0.2012  0.3375 -0.1191
24126DPPC   C2A29950   5.885   2.475  16.655  0.0299  0.1058 -0.0221
24126DPPC   C3A29951   5.788   2.487  17.179 -0.1143 -0.1024  0.1402
24126DPPC   C4A29952   5.756   2.468  17.642  0.1177 -0.1079  0.1736
24126DPPC   C1B29953   5.649   1.736  16.263 -0.0852 -0.2979 -0.2393
24126DPPC   C2B29954   5.762   1.609  16.620  0.0955 -0.0534 -0.0212
24126DPPC   C3B29955   5.638   1.644  17.157 -0.2473 -0.0323 -0.0943
24126DPPC   C4B29956   5.586   1.793  17.628  0.1970 -0.1068  0.0022
24127DPPC   NC329957   2.260   0.862  15.665  0.1280 -0.1346  0.0680
24127DPPC   PO429958   2.317   0.507  15.583 -0.2438  0.1781  0.2484
24127DPPC   GL129959   2.164   0.365  15.958 -0.3437  0.0013  0.1454
24127DPPC   GL229960   2.375   0.588  16.126 -0.3223  0.2893  0.0912
24127DPPC   C1A29961   1.942   0.247  16.228  0.1797  0.0422  0.0329
24127DPPC   C2A29962   2.012   0.184  16.641  0.0313 -0.2956  0.3501
24127DPPC   C3A29963   1.996   0.139  17.070  0.1360  0.3017  0.0613
24127DPPC   C4A29964   1.994   0.099  17.585 -0.1762 -0.0807 -0.2168
24127DPPC   C1B29965   2.342   0.598  16.499  0.0640 -0.1715  0.4527
24127DPPC   C2B29966   2.244   0.540  16.911  0.0010 -0.0595 -0.0059
24127DPPC   C3B29967   2.270   0.477  17.389  0.0012 -0.2097 -0.1895
24127DPPC   C4B29968   2.294   0.487  17.885  0.0843 -0.0547  0.0332
24128DPPC   NC329969   4.254   3.926  15.582  0.0369 -0.2595 -0.2358
24128DPPC   PO429970   4.134   4.303  15.660 -0.0978 -0.0439 -0.1803
24128DPPC   GL129971   4.346   4.558  15.994 -0.2379 -0.0871 -0.0367
24128DPPC   GL229972   4.604   4.530  16.001  0.2575 -0.1091  0.1486
24128DPPC   C1A29973   4.201   4.567  16.361  0.1076 -0.0350 -0.1704
24128DPPC   C2A29974   4.188   4.552  16.787  0.0504  0.1334 -0.0497
24128DPPC   C3A29975   4.188   4.576  17.291 -0.0744  0.0806  0.1066
24128DPPC   C4A29976   4.172   4.627  17.804  0.0353  0.2324  0.2098
24128DPPC   C1B29977   4.631   4.430  16.351  0.1923 -0.0764  0.1726
24128DPPC   C2B29978   4.684   4.445  16.747 -0.0772 -0.3080 -0.2471
24128DPPC   C3B29979   4.669   4.508  17.236 -0.1135 -0.0412  0.4464
24128DPPC   C4B29980   4.688   4.496  17.709 -0.0123 -0.0417  0.1174
24129DPPC   NC329981   5.391   1.305  15.759 -0.2927 -0.3318 -0.0481
24129DPPC   PO429982   5.058   1.118  15.771  0.1417 -0.0408 -0.0876
24129DPPC   GL129983   5.061   0.914  16.150 -0.1635 -0.0711 -0.4075
24129DPPC   GL229984   5.002   0.652  16.069  0.3373 -0.2072 -0.1640
24129DPPC   C1A29985   5.004   0.898  16.528  0.2206 -0.0544 -0.1054
24129DPPC   C2A29986   4.948   0.823  16.934 -0.1689  0.1434 -0.2145
24129DPPC   C3A29987   4.935   0.845  17.433 -0.0588  0.0458 -0.0729
24129DPPC   C4A29988   4.834   0.841  17.931 -0.0790  0.1405  0.1696
24129DPPC   C1B29989   4.795   0.551  16.352  0.2400  0.0372  0.0889
24129DPPC   C2B29990   4.638   0.533  16.711 -0.0481 -0.2235  0.0384
24129DPPC   C3B29991   4.660   0.493  17.186  0.1401 -0.0446  0.0580
24129DPPC   C4B29992   4.562   0.485  17.671 -0.0439 -0.0041 -0.1174
24130DPPC   NC329993   1.133   4.435  15.436 -0.1100 -0.0209 -0.1924
24130DPPC   PO429994   0.788   4.574  15.600 -0.1677  0.2239 -0.1611
24130DPPC   GL129995   0.806   4.485  16.005  0.1556  0.2486 -0.1810
24130DPPC   GL229996   1.051   4.559  15.953  0.0613  0.0635 -0.4396
24130DPPC   C1A29997   0.886   4.431  16.343  0.1191  0.3048 -0.0296
24130DPPC   C2A29998   0.993   4.366  16.756 -0.2064  0.1825  0.0933
24130DPPC   C3A29999   1.059   4.365  17.301 -0.0997  0.4823  0.0414
24130DPPC   C4A30000   0.960   4.370  17.792  0.0417  0.1668  0.1125
24130DPPC   C1B30001   1.241   4.744  16.220  0.3534  0.1797 -0.2264
24130DPPC   C2B30002   1.364   4.710  16.620  0.2681  0.1231  0.1024
24130DPPC   C3B30003   1.386   4.750  17.095  0.2370 -0.0604 -0.0191
24130DPPC   C4B30004   1.337   4.708  17.597 -0.1197  0.2552 -0.2327
24131DPPC   NC330005   5.930   4.217  15.936  0.0057  0.0860  0.0252
24131DPPC   PO430006   6.168   3.975  15.750 -0.4248 -0.3208  0.1743
24131DPPC   GL130007   6.408   3.673  16.062 -0.2856  0.3034  0.2453
24131DPPC   GL230008   6.577   3.873  15.924  0.3886 -0.2152  0.1661
24131DPPC   C1A30009   6.343   3.746  16.404  0.2154  0.2816  0.1315
24131DPPC   C2A30010   6.334   3.726  16.762  0.1576  0.1513  0.2892
24131DPPC   C3A30011   6.324   3.675  17.250 -0.1971 -0.0193 -0.3699
24131DPPC   C4A30012   6.353   3.584  17.759  0.2291 -0.1979 -0.1608
24131DPPC   C1B30013   6.732   4.035  16.238 -0.1157 -0.3010 -0.1861
24131DPPC   C2B30014   6.642   4.185  16.656 -0.2532  0.0477  0.1369
24131DPPC   C3B30015   6.657   4.070  17.123  0.0553 -0.1445 -0.1266
24131DPPC   C4B30016   6.726   4.133  17.611 -0.2328 -0.0640 -0.1632
24132DPPC   NC330017   0.722   5.380  15.179 -0.0151  0.1931  0.1742
24132DPPC   PO430018   1.072   5.306  15.367 -0.0995  0.0069 -0.0876
24132DPPC   GL130019   1.058   5.219  15.884  0.0147 -0.2010 -0.2245
24132DPPC   GL230020   0.902   5.385  15.820  0.5188 -0.0536 -0.2903
24132DPPC   C1A30021   1.141   5.213  16.255  0.1660 -0.2278  0.0624
24132DPPC   C2A30022   1.223   5.215  16.659  0.1719 -0.0384  0.0356
24132DPPC   C3A30023   1.250   5.224  17.155 -0.0959 -0.1828  0.0910
24132DPPC   C4A30024   1.153   5.251  17.628  0.0789  0.1003  0.1350
24132DPPC   C1B30025   0.745   5.383  16.122 -0.2732 -0.2553 -0.0195
24132DPPC   C2B30026   0.682   5.345  16.562  0.1094  0.0632  0.0648
24132DPPC   C3B30027   0.752   5.293  17.045  0.3234  0.0748  0.1079
24132DPPC   C4B30028   0.697   5.302  17.520  0.1868  0.0036 -0.1327
24133DPPC   NC330029   2.023   6.371  15.284 -0.0954  0.1986 -0.0358
24133DPPC   PO430030   1.726   6.144  15.438 -0.0110  0.2366 -0.0915
24133DPPC   GL130031   1.755   6.120  15.928  0.0317 -0.0235  0.0996
24133DPPC   GL230032   1.454   6.136  15.907 -0.1522  0.4811  0.1391
24133DPPC   C1A30033   1.841   6.018  16.235  0.2107 -0.1503 -0.0331
24133DPPC   C2A30034   1.945   5.955  16.642  0.0175  0.3704 -0.0748
24133DPPC   C3A30035   1.825   6.000  17.090 -0.0565  0.1477 -0.1922
24133DPPC   C4A30036   1.825   5.947  17.600 -0.1000  0.1830 -0.0643
24133DPPC   C1B30037   1.320   6.157  16.243  0.2966  0.2322 -0.3711
24133DPPC   C2B30038   1.350   6.090  16.637  0.1045  0.0447 -0.2111
24133DPPC   C3B30039   1.342   5.998  17.111  0.1944 -0.1317 -0.0234
24133DPPC   C4B30040   1.318   6.111  17.573 -0.1399 -0.1205 -0.1199
24134DPPC   NC330041   0.382   5.932  14.579 -0.1816  0.0104 -0.1714
24134DPPC   PO430042   0.320   5.799  14.965 -0.0042  0.1620  0.0794
24134DPPC   GL130043   0.153   5.845  15.348 -0.3393  0.1567 -0.1155
24134DPPC   GL230044   0.215   5.520  15.383  0.1512  0.2320  0.1413
24134DPPC   C1A30045   0.155   5.933  15.650  0.2339  0.1598 -0.0142
24134DPPC   C2A30046   0.078   6.016  16.061  0.4715 -0.1648 -0.0552
24134DPPC   C3A30047   0.049   5.996  16.519  0.3523  0.3912  0.0141
24134DPPC   C4A30048   0.052   5.970  16.984 -0.1458 -0.0232  0.1892
24134DPPC   C1B30049   0.007   5.420  15.697 -0.4387  0.3517  0.1362
24134DPPC   C2B30050  -0.102   5.214  16.024  0.0778 -0.1450 -0.2544
24134DPPC   C3B30051  -0.142   5.149  16.482 -0.0360 -0.0164 -0.0454
24134DPPC   C4B30052  -0.135   5.149  16.956  0.2415  0.1459 -0.0668
24135DPPC   NC330053   1.436   1.796  15.520  0.4812 -0.0200  0.1520
24135DPPC   PO430054   1.154   1.497  15.525  0.1476  0.0797 -0.1835
24135DPPC   GL130055   1.319   1.174  15.799  0.3013  0.0887 -0.1377
24135DPPC   GL230056   1.188   1.255  16.033  0.2563  0.2503  0.0024
24135DPPC   C1A30057   1.373   0.814  15.879  0.0890  0.0241 -0.4191
24135DPPC   C2A30058   1.394   0.800  16.263  0.4243 -0.0314 -0.3002
24135DPPC   C3A30059   1.375   0.741  16.774  0.2246  0.0982  0.1689
24135DPPC   C4A30060   1.319   0.743  17.276  0.3811  0.3003  0.0880
24135DPPC   C1B30061   1.192   1.333  16.334 -0.1437  0.1495  0.2213
24135DPPC   C2B30062   1.232   1.218  16.705 -0.0371  0.1292 -0.0688
24135DPPC   C3B30063   1.240   1.202  17.187  0.2450 -0.3560 -0.1437
24135DPPC   C4B30064   1.218   1.227  17.711 -0.0222  0.2409  0.2712
24136DPPC   NC330065   2.817   0.348  15.481  0.4179 -0.1913 -0.1088
24136DPPC   PO430066   2.901  -0.077  15.438 -0.0749  0.0273  0.0169
24136DPPC   GL130067   2.693  -0.059  15.810  0.4539  0.1466 -0.0777
24136DPPC   GL230068   2.586   0.241  15.849  0.1665 -0.0803  0.1526
24136DPPC   C1A30069   2.612  -0.253  16.159  0.4839  0.0003  0.0609
24136DPPC   C2A30070   2.618  -0.403  16.589 -0.0367 -0.0884 -0.0228
24136DPPC   C3A30071   2.596  -0.425  17.068  0.0819 -0.0786 -0.1834
24136DPPC   C4A30072   2.684  -0.431  17.540  0.0942  0.1720  0.0295
24136DPPC   C1B30073   2.526   0.197  16.222 -0.0556 -0.2961 -0.0332
24136DPPC   C2B30074   2.529   0.070  16.652  0.4161 -0.0770  0.1280
24136DPPC   C3B30075   2.510   0.045  17.163 -0.0146 -0.1528  0.4121
24136DPPC   C4B30076   2.509   0.033  17.664 -0.2936  0.2211 -0.1664
24137DPPC   NC330077   1.507   2.452  16.020  0.1054  0.0197  0.0141
24137DPPC   PO430078   1.146   2.205  15.971  0.1669  0.1118 -0.0797
24137DPPC   GL130079   0.857   2.083  16.259 -0.2770  0.1094 -0.1259
24137DPPC   GL230080   1.035   1.835  16.417 -0.0973 -0.0487  0.3509
24137DPPC   C1A30081   0.729   2.221  16.602 -0.0754  0.1297 -0.0347
24137DPPC   C2A30082   0.810   2.411  16.941  0.1044  0.0780  0.0400
24137DPPC   C3A30083   0.757   2.777  17.229 -0.0790  0.1442 -0.1109
24137DPPC   C4A30084   0.558   3.229  17.514  0.0174 -0.0506 -0.0889
24137DPPC   C1B30085   1.053   1.951  16.764  0.3181  0.2254 -0.0958
24137DPPC   C2B30086   1.171   1.961  17.152 -0.1299 -0.0696  0.0711
24137DPPC   C3B30087   1.220   2.016  17.622 -0.1562 -0.0199  0.3180
24137DPPC   C4B30088   1.306   2.156  17.969  0.3238 -0.0135 -0.0583
24138DPPC   NC330089   6.245   1.262  15.538 -0.2871  0.1399 -0.2249
24138DPPC   PO430090   6.467   1.033  15.798 -0.2712  0.2887  0.0547
24138DPPC   GL130091   6.384   1.020  16.141  0.0491 -0.0674  0.1941
24138DPPC   GL230092   6.420   0.745  16.240 -0.3680 -0.3649 -0.0830
24138DPPC   C1A30093   6.393   1.124  16.519 -0.2057  0.2260 -0.0438
24138DPPC   C2A30094   6.240   1.090  16.920  0.1563  0.0307  0.0812
24138DPPC   C3A30095   6.160   1.088  17.371  0.0423  0.1030 -0.0319
24138DPPC   C4A30096   6.290   1.154  17.855 -0.1522  0.0274  0.3286
24138DPPC   C1B30097   6.472   0.701  16.622 -0.5100  0.1810  0.0363
24138DPPC   C2B30098   6.481   0.715  17.038  0.0850 -0.1280 -0.0660
24138DPPC   C3B30099   6.367   0.678  17.582  0.1799 -0.4005 -0.1491
24138DPPC   C4B30100   6.477   0.608  18.031 -0.0766  0.0622 -0.2068
24139DPPC   NC330101   2.198   2.900  15.051  0.0512  0.0518  0.0036
24139DPPC   PO430102   2.270   2.747  15.378  0.1611 -0.1566  0.1633
24139DPPC   GL130103   2.371   2.862  15.693 -0.4221  0.1704  0.3065
24139DPPC   GL230104   2.266   3.030  15.867 -0.6715 -0.1140 -0.0109
24139DPPC   C1A30105   2.379   2.578  15.921 -0.2156 -0.1536 -0.2451
24139DPPC   C2A30106   2.303   2.425  16.330  0.1078 -0.0891  0.2426
24139DPPC   C3A30107   2.272   2.394  16.763  0.1700  0.2292  0.1800
24139DPPC   C4A30108   2.190   2.447  17.261 -0.1960  0.1230  0.2245
24139DPPC   C1B30109   2.350   2.924  16.217 -0.1485  0.0425 -0.3412
24139DPPC   C2B30110   2.519   2.780  16.567 -0.1182  0.0606 -0.1390
24139DPPC   C3B30111   2.582   2.747  17.019  0.0309 -0.1944 -0.1328
24139DPPC   C4B30112   2.517   2.761  17.486  0.1038 -0.1272  0.1430
24140DPPC   NC330113   7.086   6.208  15.703 -0.2975  0.0717  0.2491
24140DPPC   PO430114   7.155   5.797  15.760  0.0465 -0.3802 -0.3012
24140DPPC   GL130115   7.094   5.773  16.221  0.1186  0.2125 -0.3781
24140DPPC   GL230116   6.972   6.025  16.202  0.0228  0.3456  0.1546
24140DPPC   C1A30117   6.953   5.766  16.566 -0.2707  0.0132  0.2214
24140DPPC   C2A30118   6.957   5.835  16.973  0.0772  0.0606  0.0105
24140DPPC   C3A30119   6.965   5.815  17.424 -0.0688 -0.3170 -0.4445
24140DPPC   C4A30120   7.108   5.837  17.912  0.0340  0.0217  0.1974
24140DPPC   C1B30121   6.873   6.242  16.537  0.2363 -0.2282  0.3076
24140DPPC   C2B30122   6.749   6.298  16.930  0.1558 -0.2726  0.0558
24140DPPC   C3B30123   6.785   6.278  17.423 -0.0863 -0.0158 -0.0640
24140DPPC   C4B30124   6.842   6.274  17.866  0.0317  0.0582  0.0898
24141DPPC   NC330125   0.567   4.206  15.388 -0.3503  0.1383  0.2726
24141DPPC   PO430126   0.291   4.033  15.595 -0.1231  0.1723  0.0853
24141DPPC   GL130127   0.406   4.147  15.952  0.1115 -0.3923 -0.0700
24141DPPC   GL230128   0.362   4.467  15.905 -0.1141  0.1650 -0.2070
24141DPPC   C1A30129   0.636   4.062  16.177  0.2014 -0.1027  0.1567
24141DPPC   C2A30130   0.696   4.012  16.552 -0.0038 -0.3409 -0.0778
24141DPPC   C3A30131   0.623   3.998  17.059 -0.1868  0.2706  0.1860
24141DPPC   C4A30132   0.634   4.016  17.529  0.1837 -0.1505 -0.2135
24141DPPC   C1B30133   0.396   4.541  16.208 -0.2061  0.4095 -0.0533
24141DPPC   C2B30134   0.502   4.477  16.590 -0.1037  0.0856 -0.2817
24141DPPC   C3B30135   0.523   4.517  17.047  0.1586 -0.0816 -0.0274
24141DPPC   C4B30136   0.472   4.531  17.531  0.0614 -0.0536 -0.3467
24142DPPC   NC330137   5.006   4.932  16.076  0.2040  0.2158 -0.1652
24142DPPC   PO430138   5.013   4.600  15.832 -0.1318  0.0305 -0.3822
24142DPPC   GL130139   5.001   4.417  16.166  0.4164 -0.0267 -0.2122
24142DPPC   GL230140   5.133   4.208  16.274  0.3273  0.0824 -0.1300
24142DPPC   C1A30141   4.978   4.644  16.460 -0.2878 -0.0374 -0.0998
24142DPPC   C2A30142   5.003   4.869  16.797  0.2039  0.1783  0.1115
24142DPPC   C3A30143   5.046   4.961  17.314  0.0792  0.0747  0.1024
24142DPPC   C4A30144   5.084   4.948  17.802  0.1781 -0.0235 -0.0460
24142DPPC   C1B30145   5.229   4.293  16.560 -0.2863  0.0668 -0.4287
24142DPPC   C2B30146   5.158   4.400  16.975 -0.0847 -0.3450  0.2724
24142DPPC   C3B30147   5.125   4.472  17.454 -0.0227  0.1840  0.1439
24142DPPC   C4B30148   5.128   4.493  17.971  0.0613 -0.1279  0.0859
24143DPPC   NC330149   6.672   4.691  15.531  0.0049  0.2449 -0.1245
24143DPPC   PO430150   6.737   4.356  15.776  0.2697  0.0698  0.3607
24143DPPC   GL130151   6.728   4.536  16.168 -0.0216  0.2088 -0.0585
24143DPPC   GL230152   6.542   4.694  16.214 -0.1114  0.3113 -0.1076
24143DPPC   C1A30153   6.929   4.571  16.415 -0.1517  0.2154  0.2607
24143DPPC   C2A30154   7.091   4.509  16.816  0.1923 -0.0272  0.0837
24143DPPC   C3A30155   7.033   4.451  17.266  0.1882 -0.0517 -0.1404
24143DPPC   C4A30156   6.970   4.535  17.717  0.0236  0.1041 -0.1105
24143DPPC   C1B30157   6.438   4.587  16.494  0.1730 -0.1932 -0.3469
24143DPPC   C2B30158   6.475   4.557  16.934  0.0975 -0.1341  0.1395
24143DPPC   C3B30159   6.495   4.541  17.393 -0.2277 -0.1762 -0.2490
24143DPPC   C4B30160   6.459   4.601  17.863  0.4173  0.1189 -0.3171
24144DPPC   NC330161   2.737   2.558  15.479 -0.1081  0.1394 -0.0026
24144DPPC   PO430162   2.795   2.167  15.435 -0.0580  0.1217  0.2711
24144DPPC   GL130163   2.633   2.151  15.851 -0.0297  0.1940  0.4516
24144DPPC   GL230164   2.834   2.249  15.863  0.0335  0.1444  0.1873
24144DPPC   C1A30165   2.534   2.089  16.196  0.1399  0.1854  0.1803
24144DPPC   C2A30166   2.369   1.923  16.534  0.1138 -0.2655 -0.0177
24144DPPC   C3A30167   2.326   1.944  17.010  0.2697  0.1205  0.2166
24144DPPC   C4A30168   2.233   1.868  17.522  0.0340  0.1593 -0.1167
24144DPPC   C1B30169   3.069   2.200  16.139  0.0142  0.3245 -0.0991
24144DPPC   C2B30170   3.209   2.172  16.538 -0.0123 -0.1842  0.1261
24144DPPC   C3B30171   3.214   2.239  16.987 -0.1336  0.1334  0.2979
24144DPPC   C4B30172   3.181   2.148  17.447 -0.1561 -0.0530 -0.0615
24145DPPC   NC330173   4.308   3.514  15.034 -0.2488 -0.3686 -0.1110
24145DPPC   PO430174   4.531   3.551  15.324  0.3305  0.0540 -0.3390
24145DPPC   GL130175   4.483   3.581  15.895 -0.0502 -0.1304 -0.0965
24145DPPC   GL230176   4.324   3.311  15.778 -0.1013 -0.2840  0.2672
24145DPPC   C1A30177   4.517   3.598  16.274 -0.0272  0.4599  0.0254
24145DPPC   C2A30178   4.593   3.634  16.681 -0.0966 -0.0470 -0.0310
24145DPPC   C3A30179   4.557   3.638  17.190 -0.2499  0.1472 -0.1349
24145DPPC   C4A30180   4.538   3.649  17.686 -0.2347  0.1328 -0.1359
24145DPPC   C1B30181   4.263   3.221  16.137  0.0712 -0.3030 -0.1861
24145DPPC   C2B30182   4.239   3.270  16.487 -0.3807  0.3384 -0.3620
24145DPPC   C3B30183   4.259   3.340  16.947  0.1322  0.0504  0.2310
24145DPPC   C4B30184   4.241   3.290  17.456  0.2348  0.2884  0.0035
24146DPPC   NC330185   2.307   3.253  15.452 -0.1580  0.3189 -0.1467
24146DPPC   PO430186   2.558   3.376  15.792 -0.1317  0.2478  0.0256
24146DPPC   GL130187   2.629   3.407  16.117  0.0073 -0.0766  0.0157
24146DPPC   GL230188   2.796   3.516  16.249 -0.1238  0.0536  0.3075
24146DPPC   C1A30189   2.465   3.279  16.438  0.0304 -0.2177  0.0439
24146DPPC   C2A30190   2.386   3.198  16.797 -0.2375  0.1646 -0.0096
24146DPPC   C3A30191   2.310   3.239  17.288 -0.5943  0.0208 -0.1254
24146DPPC   C4A30192   2.334   3.221  17.768  0.0729 -0.0314 -0.1706
24146DPPC   C1B30193   2.761   3.550  16.563 -0.1355 -0.0756 -0.0654
24146DPPC   C2B30194   2.739   3.646  16.986 -0.0967  0.2079 -0.0083
24146DPPC   C3B30195   2.677   3.610  17.459  0.0355 -0.0673  0.0258
24146DPPC   C4B30196   2.699   3.582  17.919 -0.1088 -0.0165 -0.1936
24147DPPC   NC330197   1.830   3.881  15.390  0.1347  0.0272 -0.2788
24147DPPC   PO430198   2.188   3.738  15.319  0.1614  0.0365  0.2568
24147DPPC   GL130199   2.133   3.594  15.751  0.3182 -0.1453  0.2542
24147DPPC   GL230200   2.239   3.859  15.908  0.1642  0.1938  0.3583
24147DPPC   C1A30201   2.012   3.415  16.056 -0.1405  0.4026  0.0950
24147DPPC   C2A30202   2.002   3.323  16.420 -0.1096  0.5031  0.1262
24147DPPC   C3A30203   1.959   3.302  16.918  0.2971 -0.1219 -0.1180
24147DPPC   C4A30204   1.827   3.414  17.407 -0.0308 -0.0040  0.1336
24147DPPC   C1B30205   2.210   3.778  16.255 -0.0744 -0.0512  0.3096
24147DPPC   C2B30206   2.267   3.708  16.639  0.2748 -0.1108 -0.2679
24147DPPC   C3B30207   2.170   3.779  17.113 -0.2520  0.1937  0.1692
24147DPPC   C4B30208   2.128   3.742  17.642 -0.1438 -0.5032 -0.0034
24148DPPC   NC330209   4.122   1.651  15.188 -0.2275 -0.0450 -0.0219
24148DPPC   PO430210   4.462   1.599  15.456  0.1138 -0.1022  0.1747
24148DPPC   GL130211   4.514   1.392  15.800 -0.0584  0.2369  0.0615
24148DPPC   GL230212   4.378   1.171  15.875 -0.0382 -0.2480  0.1575
24148DPPC   C1A30213   4.717   1.406  16.143 -0.2397  0.3243  0.1663
24148DPPC   C2A30214   4.825   1.350  16.548 -0.0911  0.1103 -0.1872
24148DPPC   C3A30215   4.802   1.302  17.038 -0.2253 -0.0264  0.0085
24148DPPC   C4A30216   4.812   1.297  17.589  0.0198  0.1828 -0.0163
24148DPPC   C1B30217   4.281   1.274  16.231  0.2317  0.2690  0.0333
24148DPPC   C2B30218   4.253   1.361  16.634 -0.3077  0.3343  0.0009
24148DPPC   C3B30219   4.302   1.373  17.128  0.3410 -0.0818  0.2161
24148DPPC   C4B30220   4.215   1.464  17.606 -0.3140 -0.0215  0.2256
24149DPPC   NC330221   6.927   5.456  15.462  0.0471 -0.1652 -0.2074
24149DPPC   PO430222   6.590   5.315  15.606  0.1025 -0.1819  0.0557
24149DPPC   GL130223   6.450   5.344  16.010  0.2919 -0.1874  0.1023
24149DPPC   GL230224   6.695   5.461  16.196 -0.3037  0.1303  0.2332
24149DPPC   C1A30225   6.309   5.151  16.281 -0.3088  0.3480 -0.3394
24149DPPC   C2A30226   6.248   5.056  16.649 -0.1011  0.0686  0.4061
24149DPPC   C3A30227   6.291   4.992  17.127 -0.1685 -0.2917  0.0479
24149DPPC   C4A30228   6.333   5.037  17.625 -0.0811  0.1442 -0.1215
24149DPPC   C1B30229   6.695   5.454  16.574  0.1298 -0.1827 -0.3281
24149DPPC   C2B30230   6.687   5.427  17.025  0.0693  0.1693 -0.3654
24149DPPC   C3B30231   6.641   5.470  17.478 -0.0278  0.3664  0.0881
24149DPPC   C4B30232   6.664   5.437  18.015 -0.1022  0.2473  0.1648
24150DPPC   NC330233   5.964   2.320  15.153 -0.3297 -0.1987  0.2328
24150DPPC   PO430234   6.263   2.176  15.363  0.3779  0.0125  0.0881
24150DPPC   GL130235   6.216   2.134  15.716  0.1839 -0.2218 -0.4709
24150DPPC   GL230236   6.264   2.373  15.853  0.1814 -0.1221 -0.2527
24150DPPC   C1A30237   6.146   1.964  16.038  0.0489 -0.2563  0.1333
24150DPPC   C2A30238   5.983   2.047  16.388  0.0365 -0.0555 -0.1690
24150DPPC   C3A30239   5.952   1.997  16.880  0.0597  0.0801  0.2045
24150DPPC   C4A30240   6.008   2.038  17.343  0.3304 -0.0505  0.0047
24150DPPC   C1B30241   6.340   2.359  16.230  0.0775  0.2430  0.0969
24150DPPC   C2B30242   6.318   2.288  16.660 -0.0514 -0.2772  0.2842
24150DPPC   C3B30243   6.262   2.395  17.133  0.2275  0.1873  0.2355
24150DPPC   C4B30244   6.296   2.377  17.630 -0.0482 -0.0252  0.0082
24151DPPC   NC330245   0.744   1.432  15.344  0.0499  0.1944  0.6423
24151DPPC   PO430246   0.713   1.732  15.556 -0.0792 -0.4065  0.1697
24151DPPC   GL130247   0.588   1.775  15.990  0.3432  0.1690 -0.2299
24151DPPC   GL230248   0.363   1.871  15.914 -0.0258 -0.0758 -0.0815
24151DPPC   C1A30249   0.549   1.826  16.336  0.2052  0.4248  0.1950
24151DPPC   C2A30250   0.582   1.854  16.721 -0.3306  0.1301 -0.2255
24151DPPC   C3A30251   0.631   1.906  17.212  0.0513 -0.2773  0.3191
24151DPPC   C4A30252   0.578   1.827  17.721  0.2235 -0.0725 -0.0008
24151DPPC   C1B30253   0.107   1.907  16.216  0.1721  0.0449 -0.1054
24151DPPC   C2B30254   0.020   1.992  16.628 -0.2487  0.0129 -0.0603
24151DPPC   C3B30255  -0.002   2.060  17.064 -0.4811 -0.0034 -0.0818
24151DPPC   C4B30256   0.004   2.024  17.567  0.0042  0.0467 -0.0542
24152DPPC   NC330257   6.628   0.506  15.899 -0.0999 -0.1515 -0.1587
24152DPPC   PO430258   6.976   0.317  15.918 -0.2018 -0.4246  0.1858
24152DPPC   GL130259   6.977   0.396  16.265 -0.1282 -0.1569 -0.1626
24152DPPC   GL230260   7.113   0.173  16.395  0.0342  0.0658 -0.0316
24152DPPC   C1A30261   6.883   0.620  16.544  0.1596  0.1640 -0.2212
24152DPPC   C2A30262   6.900   0.502  16.942 -0.0049 -0.0271  0.2238
24152DPPC   C3A30263   6.922   0.433  17.423  0.1179 -0.0135 -0.1562
24152DPPC   C4A30264   6.999   0.528  17.907 -0.0607 -0.1093 -0.2109
24152DPPC   C1B30265   7.025   0.027  16.748 -0.0883  0.6379  0.0198
24152DPPC   C2B30266   7.103   0.035  17.127 -0.1290  0.0924 -0.0898
24152DPPC   C3B30267   7.098   0.062  17.627 -0.0245 -0.0991  0.1206
24152DPPC   C4B30268   7.145   0.026  18.096 -0.1442 -0.4369 -0.0129
24153DPPC   NC330269   6.054   3.515  15.651 -0.1319  0.1834 -0.1506
24153DPPC   PO430270   5.730   3.697  15.755  0.2314  0.0595 -0.3350
24153DPPC   GL130271   5.965   3.751  16.216 -0.2036  0.0359  0.3142
24153DPPC   GL230272   6.015   3.516  16.132 -0.1004  0.2681  0.1595
24153DPPC   C1A30273   5.859   3.728  16.564  0.1309 -0.0722 -0.0213
24153DPPC   C2A30274   5.836   3.770  16.952 -0.0373  0.0373 -0.0113
24153DPPC   C3A30275   5.871   3.856  17.462 -0.3658 -0.0039 -0.2113
24153DPPC   C4A30276   5.797   3.751  17.967  0.0827  0.0771 -0.1289
24153DPPC   C1B30277   5.696   3.416  16.336  0.1443 -0.0913 -0.2122
24153DPPC   C2B30278   5.532   3.352  16.778 -0.2332  0.3164 -0.0207
24153DPPC   C3B30279   5.512   3.462  17.263 -0.1130  0.0203 -0.0472
24153DPPC   C4B30280   5.502   3.456  17.741 -0.3507  0.4935 -0.0732
24154DPPC   NC330281   2.883   1.664  15.226 -0.3429 -0.1512  0.0096
24154DPPC   PO430282   2.716   1.352  15.334  0.1877 -0.0147  0.1564
24154DPPC   GL130283   2.563   1.306  15.682 -0.3394 -0.0365  0.1860
24154DPPC   GL230284   2.512   1.555  15.836 -0.2908 -0.1272 -0.1782
24154DPPC   C1A30285   2.291   1.231  15.902  0.0645 -0.0722 -0.0744
24154DPPC   C2A30286   2.245   1.129  16.301 -0.0643 -0.0709  0.0832
24154DPPC   C3A30287   2.202   1.118  16.842 -0.1968 -0.0019  0.3623
24154DPPC   C4A30288   2.178   1.022  17.309  0.2345  0.1914 -0.0541
24154DPPC   C1B30289   2.488   1.587  16.249  0.1930 -0.1257 -0.0065
24154DPPC   C2B30290   2.536   1.480  16.625 -0.1906 -0.0499  0.0485
24154DPPC   C3B30291   2.496   1.431  17.106  0.0624 -0.1454 -0.0897
24154DPPC   C4B30292   2.414   1.363  17.595 -0.3621  0.4818  0.2619
24155DPPC   NC330293   2.134   1.967  15.125  0.0404  0.0722 -0.1094
24155DPPC   PO430294   1.919   1.766  15.414  0.1543  0.0737  0.1091
24155DPPC   GL130295   1.966   1.468  15.689  0.3564 -0.0387  0.0832
24155DPPC   GL230296   1.658   1.421  15.690 -0.1064 -0.0240  0.2141
24155DPPC   C1A30297   1.980   1.461  16.073 -0.2712 -0.0535 -0.0015
24155DPPC   C2A30298   2.018   1.504  16.506 -0.0870 -0.2956  0.0195
24155DPPC   C3A30299   1.819   1.799  16.837 -0.0274 -0.1312  0.2424
24155DPPC   C4A30300   1.646   2.029  17.271 -0.2646 -0.3280  0.4067
24155DPPC   C1B30301   1.495   1.548  15.938  0.0900  0.1206 -0.3319
24155DPPC   C2B30302   1.568   1.621  16.325  0.0184  0.2344  0.0146
24155DPPC   C3B30303   1.453   1.990  16.597  0.0688  0.3392 -0.0702
24155DPPC   C4B30304   1.192   2.390  16.608  0.4934 -0.3412 -0.1027
24156DPPC   NC330305   5.351   3.395  15.903  0.2270  0.0966 -0.0941
24156DPPC   PO430306   5.284   3.088  15.653  0.1034  0.2055 -0.2957
24156DPPC   GL130307   5.207   2.919  15.946 -0.2445  0.3074  0.4239
24156DPPC   GL230308   5.001   2.725  15.832  0.0261  0.3666  0.3651
24156DPPC   C1A30309   5.220   3.020  16.308 -0.2198  0.0098  0.0045
24156DPPC   C2A30310   5.173   3.004  16.685  0.0163  0.0136  0.2763
24156DPPC   C3A30311   5.181   3.033  17.162 -0.0128 -0.2796  0.0296
24156DPPC   C4A30312   5.200   3.049  17.575 -0.2317 -0.2677 -0.1467
24156DPPC   C1B30313   4.812   2.684  16.157 -0.2458  0.0676 -0.1603
24156DPPC   C2B30314   4.788   2.703  16.572  0.2922 -0.0833 -0.3248
24156DPPC   C3B30315   4.802   2.684  17.042 -0.0100 -0.0206  0.1461
24156DPPC   C4B30316   4.825   2.690  17.569  0.0518  0.2101  0.0997
24157DPPC   NC330317   2.735   5.243  15.759  0.2915 -0.3955  0.1626
24157DPPC   PO430318   3.076   5.427  15.696 -0.1464 -0.0603 -0.0383
24157DPPC   GL130319   3.057   5.479  16.120  0.2229  0.2391 -0.2927
24157DPPC   GL230320   2.769   5.474  16.164  0.1256  0.2731  0.2313
24157DPPC   C1A30321   3.360   5.609  16.356  0.1051  0.0986 -0.1897
24157DPPC   C2A30322   3.313   5.622  16.767  0.2837 -0.1502  0.1271
24157DPPC   C3A30323   3.335   5.659  17.236  0.0950  0.0205  0.0309
24157DPPC   C4A30324   3.378   5.662  17.732 -0.3824 -0.1245  0.2011
24157DPPC   C1B30325   2.763   5.678  16.509  0.1428  0.0513  0.1732
24157DPPC   C2B30326   2.836   5.751  16.907 -0.0172  0.0315  0.2730
24157DPPC   C3B30327   2.800   5.746  17.330  0.1716  0.0171  0.1219
24157DPPC   C4B30328   2.868   5.746  17.795 -0.3007 -0.1474  0.0793
24158DPPC   NC330329   1.493   5.130  15.100 -0.1006  0.0129  0.0473
24158DPPC   PO430330   1.658   5.077  15.457 -0.2367 -0.3094 -0.1854
24158DPPC   GL130331   1.549   5.328  15.718 -0.0233 -0.0669 -0.1851
24158DPPC   GL230332   1.315   5.544  15.658 -0.0351 -0.2265  0.1726
24158DPPC   C1A30333   1.546   5.252  16.058 -0.0955  0.0557  0.0366
24158DPPC   C2A30334   1.668   5.050  16.367 -0.3805  0.2217 -0.2282
24158DPPC   C3A30335   1.681   5.070  16.845  0.2013  0.0421 -0.0662
24158DPPC   C4A30336   1.662   5.062  17.339  0.2202  0.0108  0.0849
24158DPPC   C1B30337   1.250   5.568  16.028  0.0251  0.1967  0.1853
24158DPPC   C2B30338   1.089   5.692  16.367 -0.2951  0.1035  0.1842
24158DPPC   C3B30339   1.007   5.644  16.868 -0.0492 -0.0554  0.0360
24158DPPC   C4B30340   1.040   5.658  17.335 -0.1742  0.1106  0.1354
24159DPPC   NC330341   2.479   5.743  15.768  0.1341 -0.1506  0.0973
24159DPPC   PO430342   2.844   5.859  15.899 -0.1270  0.1121  0.2077
24159DPPC   GL130343   3.073   6.114  16.093 -0.2819 -0.3676  0.3060
24159DPPC   GL230344   2.985   6.009  16.368 -0.3358  0.1028 -0.0512
24159DPPC   C1A30345   3.338   6.306  16.352  0.1373  0.3260  0.1365
24159DPPC   C2A30346   3.486   6.435  16.710  0.0748  0.1479 -0.1738
24159DPPC   C3A30347   3.511   6.423  17.254  0.0230  0.1069  0.1047
24159DPPC   C4A30348   3.477   6.541  17.749  0.1912 -0.0221  0.0194
24159DPPC   C1B30349   3.066   6.130  16.714 -0.4685 -0.1970  0.0503
24159DPPC   C2B30350   3.128   6.103  17.123 -0.1483  0.1825  0.0920
24159DPPC   C3B30351   3.210   6.181  17.579  0.1254 -0.3071  0.0241
24159DPPC   C4B30352   3.169   6.171  18.070  0.0229 -0.1216  0.0317
24160DPPC   NC330353   3.178   4.440  15.642  0.0889  0.3809 -0.0987
24160DPPC   PO430354   3.309   4.060  15.621 -0.0720 -0.2987  0.2189
24160DPPC   GL130355   3.639   4.303  15.900  0.2248  0.1351  0.0228
24160DPPC   GL230356   3.356   4.327  16.048 -0.1881  0.0108  0.0552
24160DPPC   C1A30357   3.777   4.295  16.190  0.1615 -0.1348  0.1085
24160DPPC   C2A30358   3.910   4.221  16.555 -0.1182  0.0204 -0.0214
24160DPPC   C3A30359   3.937   4.224  17.022 -0.0969  0.2864  0.1189
24160DPPC   C4A30360   3.945   4.160  17.530 -0.0119  0.1170 -0.4051
24160DPPC   C1B30361   3.362   4.289  16.420  0.0593 -0.0526  0.1292
24160DPPC   C2B30362   3.505   4.312  16.797  0.2588 -0.0899  0.1488
24160DPPC   C3B30363   3.422   4.359  17.272 -0.2070  0.0935 -0.0777
24160DPPC   C4B30364   3.434   4.331  17.706  0.0132 -0.1464  0.2985
24161DPPC   NC330365   5.135   0.637  15.670 -0.5595  0.0649 -0.0074
24161DPPC   PO430366   5.468   0.816  15.795 -0.3514  0.0681 -0.3138
24161DPPC   GL130367   5.522   0.920  16.074  0.2033 -0.4386  0.3405
24161DPPC   GL230368   5.618   0.693  16.240 -0.0104 -0.4688 -0.0991
24161DPPC   C1A30369   5.441   1.190  16.317  0.4190  0.0502 -0.1367
24161DPPC   C2A30370   5.345   1.236  16.757 -0.0304  0.0343 -0.2715
24161DPPC   C3A30371   5.278   1.182  17.160  0.0743  0.1909 -0.4314
24161DPPC   C4A30372   5.298   1.359  17.672 -0.0775 -0.0407 -0.1138
24161DPPC   C1B30373   5.526   0.672  16.575 -0.0073  0.1961  0.0247
24161DPPC   C2B30374   5.462   0.737  16.969 -0.1937  0.2429 -0.1760
24161DPPC   C3B30375   5.456   0.802  17.410 -0.1655 -0.1095  0.0859
24161DPPC   C4B30376   5.377   0.817  17.893  0.0281 -0.0240 -0.1395
24162DPPC   NC330377   2.689   4.480  15.479 -0.0969  0.2240  0.0399
24162DPPC   PO430378   2.536   4.839  15.445 -0.1702  0.0773 -0.0111
24162DPPC   GL130379   2.313   4.918  15.729 -0.3140 -0.1434 -0.0069
24162DPPC   GL230380   2.061   5.026  15.783 -0.2057  0.0286  0.0148
24162DPPC   C1A30381   2.522   4.865  16.079 -0.0498 -0.1143  0.1288
24162DPPC   C2A30382   2.686   4.862  16.496  0.3415  0.0893  0.0287
24162DPPC   C3A30383   2.745   4.892  16.975 -0.2026  0.0302 -0.0468
24162DPPC   C4A30384   2.760   4.949  17.465 -0.1682  0.3280  0.0312
24162DPPC   C1B30385   2.044   4.977  16.129  0.0167  0.2750 -0.0038
24162DPPC   C2B30386   2.150   4.971  16.511  0.0675  0.1554  0.1378
24162DPPC   C3B30387   2.154   5.000  16.950 -0.0769 -0.1908  0.2686
24162DPPC   C4B30388   2.202   5.012  17.438  0.1666  0.1703  0.1833
24163DPPC   NC330389   3.924   4.652  15.914 -0.0039  0.1708  0.1449
24163DPPC   PO430390   3.617   4.732  15.658 -0.0016 -0.0695 -0.1187
24163DPPC   GL130391   3.414   5.046  15.819 -0.1205  0.0056  0.2214
24163DPPC   GL230392   3.402   4.751  15.999 -0.0835 -0.0209  0.0872
24163DPPC   C1A30393   3.375   5.186  16.141 -0.1444 -0.1373 -0.0325
24163DPPC   C2A30394   3.597   5.184  16.511  0.0600 -0.3103  0.0860
24163DPPC   C3A30395   3.530   5.209  17.001  0.4043  0.0093  0.0970
24163DPPC   C4A30396   3.584   5.154  17.432 -0.2109 -0.1760 -0.4750
24163DPPC   C1B30397   3.243   4.759  16.342  0.1034  0.2735  0.2151
24163DPPC   C2B30398   3.269   4.818  16.756 -0.3722 -0.1986  0.0097
24163DPPC   C3B30399   3.210   4.772  17.238 -0.1592  0.0973  0.2518
24163DPPC   C4B30400   3.179   4.860  17.716 -0.1330  0.0193  0.0170
24164DPPC   NC330401   6.808   3.490  15.210 -0.2325 -0.2058  0.0709
24164DPPC   PO430402   7.030   3.327  15.480 -0.0676  0.3729  0.2054
24164DPPC   GL130403   6.972   3.358  15.907  0.2295  0.2268 -0.3177
24164DPPC   GL230404   6.751   3.149  15.959  0.0747  0.2708  0.0979
24164DPPC   C1A30405   6.995   3.558  16.254  0.0522 -0.3621  0.0274
24164DPPC   C2A30406   6.803   3.698  16.589 -0.0628  0.0271  0.2099
24164DPPC   C3A30407   6.812   3.605  17.064  0.1700 -0.2435  0.1185
24164DPPC   C4A30408   6.779   3.632  17.537  0.0445  0.0226 -0.0883
24164DPPC   C1B30409   6.654   3.252  16.283  0.0111  0.1964  0.2305
24164DPPC   C2B30410   6.560   3.248  16.657  0.3988 -0.1223 -0.1650
24164DPPC   C3B30411   6.444   3.133  17.095  0.1407  0.0786 -0.1047
24164DPPC   C4B30412   6.438   3.159  17.563 -0.0274 -0.2903 -0.0358
24165DPPC   NC330413   5.059   4.061  15.843 -0.0853 -0.1628  0.2313
24165DPPC   PO430414   4.608   4.059  15.875 -0.0353  0.0379  0.3796
24165DPPC   GL130415   4.330   4.139  16.170  0.0762  0.0294 -0.1027
24165DPPC   GL230416   4.075   4.044  16.079 -0.2956 -0.0216 -0.2060
24165DPPC   C1A30417   4.456   4.087  16.561  0.1918  0.0568  0.0629
24165DPPC   C2A30418   4.483   4.095  17.001 -0.0831  0.3823 -0.1354
24165DPPC   C3A30419   4.405   4.118  17.435 -0.2880  0.2740 -0.1609
24165DPPC   C4A30420   4.388   4.187  17.893  0.0579 -0.3008 -0.0927
24165DPPC   C1B30421   4.081   3.808  16.457  0.1224 -0.2752  0.3758
24165DPPC   C2B30422   4.123   3.760  16.865  0.1757  0.4419  0.0912
24165DPPC   C3B30423   4.105   3.744  17.354 -0.2769 -0.0962 -0.0927
24165DPPC   C4B30424   4.042   3.809  17.809  0.1215 -0.0934  0.0311
24166DPPC   NC330425   1.182   0.462  14.864  0.2818  0.1983  0.0518
24166DPPC   PO430426   1.359   0.454  15.248 -0.0331  0.0866  0.3338
24166DPPC   GL130427   1.298   0.369  15.690  0.2416 -0.2391  0.1719
24166DPPC   GL230428   1.084   0.625  15.704  0.0691  0.4894 -0.0436
24166DPPC   C1A30429   1.471   0.408  16.068  0.1563 -0.1609  0.2932
24166DPPC   C2A30430   1.585   0.299  16.457 -0.2461  0.2592 -0.0853
24166DPPC   C3A30431   1.530   0.271  16.965  0.5187  0.2581  0.0363
24166DPPC   C4A30432   1.561   0.310  17.417 -0.0430 -0.1898  0.1437
24166DPPC   C1B30433   1.054   0.496  16.044 -0.0141  0.1680 -0.0237
24166DPPC   C2B30434   1.052   0.400  16.407  0.1842 -0.0155  0.0294
24166DPPC   C3B30435   1.028   0.368  16.871  0.2347 -0.0950  0.1333
24166DPPC   C4B30436   1.033   0.393  17.341 -0.0756  0.0452  0.1859
24167DPPC   NC330437   1.349   2.633  15.427 -0.2045  0.2353 -0.0147
24167DPPC   PO430438   1.360   2.847  15.717 -0.3115  0.0354 -0.1151
24167DPPC   GL130439   1.631   3.003  15.886  0.0293 -0.0282 -0.2233
24167DPPC   GL230440   1.475   3.240  16.097  0.0518  0.1130  0.0165
24167DPPC   C1A30441   1.879   2.959  16.118  0.0702  0.1079 -0.3101
24167DPPC   C2A30442   2.000   2.859  16.514  0.0957  0.1265  0.1575
24167DPPC   C3A30443   2.072   2.846  16.999 -0.0992 -0.0548  0.0592
24167DPPC   C4A30444   2.084   2.899  17.505 -0.0625 -0.0452 -0.2194
24167DPPC   C1B30445   1.570   3.144  16.460  0.4222  0.1127 -0.2972
24167DPPC   C2B30446   1.519   2.990  16.814 -0.1845 -0.2557 -0.0548
24167DPPC   C3B30447   1.592   2.932  17.266  0.1537  0.1314 -0.0729
24167DPPC   C4B30448   1.802   2.541  17.503  0.1391 -0.1117  0.0317
24168DPPC   NC330449   4.800   3.246  15.630 -0.0296 -0.1978  0.0356
24168DPPC   PO430450   4.961   3.605  15.754  0.3256 -0.0251 -0.1913
24168DPPC   GL130451   4.904   3.713  16.122 -0.1531  0.0541 -0.1225
24168DPPC   GL230452   4.971   3.505  16.236  0.1817 -0.0983 -0.0321
24168DPPC   C1A30453   4.880   3.897  16.434 -0.1153  0.0190  0.1554
24168DPPC   C2A30454   4.910   4.003  16.798  0.0328  0.0055  0.1420
24168DPPC   C3A30455   4.890   3.998  17.263  0.1152 -0.1517 -0.0251
24168DPPC   C4A30456   4.925   4.050  17.760 -0.0301 -0.1787 -0.0610
24168DPPC   C1B30457   5.009   3.503  16.601  0.1216 -0.1248  0.0991
24168DPPC   C2B30458   4.992   3.531  16.996 -0.2104  0.3116  0.1334
24168DPPC   C3B30459   5.035   3.529  17.513  0.0068  0.0175 -0.0362
24168DPPC   C4B30460   4.983   3.581  17.970  0.0390  0.1947 -0.3657
24169DPPC   NC330461   7.118   4.323  16.090 -0.3160  0.1625  0.1318
24169DPPC   PO430462   7.448   4.123  16.010 -0.3262  0.0845  0.0568
24169DPPC   GL130463   7.307   3.869  16.155  0.0432  0.0379  0.0077
24169DPPC   GL230464   7.391   3.574  16.114 -0.0478  0.1061 -0.0889
24169DPPC   C1A30465   7.171   3.923  16.478 -0.0083  0.0148  0.1990
24169DPPC   C2A30466   7.170   4.020  16.845 -0.0674 -0.0984  0.1336
24169DPPC   C3A30467   7.117   3.926  17.299 -0.1056  0.3146 -0.1093
24169DPPC   C4A30468   7.143   3.920  17.798  0.2390 -0.0332 -0.3475
24169DPPC   C1B30469   7.386   3.429  16.432 -0.1433 -0.3708  0.0299
24169DPPC   C2B30470   7.312   3.449  16.862  0.1660 -0.0031  0.4287
24169DPPC   C3B30471   7.274   3.460  17.344  0.2787  0.1719  0.2985
24169DPPC   C4B30472   7.222   3.424  17.862  0.1204 -0.0670 -0.0106
24170DPPC   NC330473   6.635   5.770  15.904  0.2733 -0.2372  0.2173
24170DPPC   PO430474   6.652   6.130  15.867  0.2756  0.2354 -0.2554
24170DPPC   GL130475   6.435   6.168  16.237 -0.0869  0.0515  0.0945
24170DPPC   GL230476   6.605   5.951  16.391  0.2412 -0.1154 -0.3029
24170DPPC   C1A30477   6.330   6.348  16.538  0.1873 -0.0334 -0.2421
24170DPPC   C2A30478   6.283   6.368  16.967  0.4387  0.1660  0.1642
24170DPPC   C3A30479   6.296   6.394  17.451 -0.0003 -0.0130  0.4057
24170DPPC   C4A30480   6.331   6.373  17.936 -0.0022 -0.0118 -0.1450
24170DPPC   C1B30481   6.486   5.898  16.745 -0.0159 -0.1153 -0.0456
24170DPPC   C2B30482   6.469   5.920  17.147 -0.2876 -0.1991 -0.0352
24170DPPC   C3B30483   6.457   5.941  17.666 -0.2080  0.4161  0.0127
24170DPPC   C4B30484   6.522   5.905  18.139  0.3057 -0.3293 -0.1313
24171DPPC   NC330485   1.581   4.690  15.821  0.2207 -0.1449 -0.0068
24171DPPC   PO430486   1.565   4.336  15.651 -0.3501  0.2484 -0.2133
24171DPPC   GL130487   1.303   4.242  15.922 -0.1354  0.3114 -0.2621
24171DPPC   GL230488   1.469   4.146  16.100  0.0881  0.1367  0.1597
24171DPPC   C1A30489   1.078   4.034  16.143  0.2638 -0.0389 -0.1345
24171DPPC   C2A30490   1.178   3.956  16.537  0.4348  0.1651 -0.0552
24171DPPC   C3A30491   1.229   3.939  17.023  0.0891 -0.2783 -0.2111
24171DPPC   C4A30492   1.235   3.940  17.509 -0.0389 -0.0833 -0.2549
24171DPPC   C1B30493   1.510   4.266  16.450  0.0961 -0.1218  0.0121
24171DPPC   C2B30494   1.571   4.291  16.839 -0.1423  0.1163  0.0083
24171DPPC   C3B30495   1.542   4.299  17.326  0.1517 -0.1980  0.1457
24171DPPC   C4B30496   1.553   4.261  17.791  0.0208  0.2308 -0.2948
24172DPPC   NC330497   5.155   2.773  15.291 -0.1282  0.0632  0.3148
24172DPPC   PO430498   5.287   2.469  15.436 -0.1541  0.0666  0.2633
24172DPPC   GL130499   5.242   2.371  15.782 -0.1119  0.6245 -0.0553
24172DPPC   GL230500   4.976   2.239  15.814 -0.1704 -0.2902 -0.2433
24172DPPC   C1A30501   5.273   2.489  16.104  0.2496  0.1990 -0.0348
24172DPPC   C2A30502   5.309   2.598  16.527  0.1741  0.1366  0.2770
24172DPPC   C3A30503   5.289   2.540  16.987  0.1703  0.1501  0.0003
24172DPPC   C4A30504   5.291   2.592  17.453  0.2474  0.3527 -0.0534
24172DPPC   C1B30505   4.926   2.110  16.166  0.2547 -0.4382  0.1089
24172DPPC   C2B30506   4.988   2.124  16.586  0.1378 -0.0738 -0.2029
24172DPPC   C3B30507   4.809   2.172  17.042  0.0067  0.2954 -0.4012
24172DPPC   C4B30508   4.852   2.185  17.558  0.3399 -0.1487  0.4497
24173DPPC   NC330509   7.459   0.963  15.940 -0.0413 -0.0917 -0.0433
24173DPPC   PO430510   7.828   0.817  15.850 -0.1830  0.0372 -0.0153
24173DPPC   GL130511   8.065   0.767  16.204 -0.0745 -0.0799  0.0641
24173DPPC   GL230512   8.161   0.973  16.254 -0.1969  0.0510 -0.4334
24173DPPC   C1A30513   8.017   0.453  16.421 -0.1030 -0.1478  0.2171
24173DPPC   C2A30514   7.938   0.345  16.808 -0.0713 -0.0085 -0.0268
24173DPPC   C3A30515   7.981   0.274  17.264 -0.1584  0.2535 -0.1406
24173DPPC   C4A30516   7.995   0.349  17.748 -0.1184  0.2564  0.0285
24173DPPC   C1B30517   8.169   0.984  16.632  0.0043 -0.1865 -0.1813
24173DPPC   C2B30518   8.207   1.159  17.004  0.0269 -0.0701  0.2138
24173DPPC   C3B30519   8.198   1.198  17.488 -0.0478 -0.0742 -0.2035
24173DPPC   C4B30520   8.086   1.209  17.961  0.1497  0.1856 -0.0309
24174DPPC   NC330521   5.963   0.921  15.930 -0.0846  0.1630  0.0732
24174DPPC   PO430522   6.171   0.581  15.918 -0.0059 -0.0591  0.0915
24174DPPC   GL130523   5.949   0.448  16.268 -0.1514 -0.2192 -0.1614
24174DPPC   GL230524   6.023   0.694  16.380  0.1052  0.1625 -0.3552
24174DPPC   C1A30525   5.783   0.298  16.561 -0.1218 -0.3633  0.0388
24174DPPC   C2A30526   5.642   0.227  16.961  0.0527 -0.1514  0.1443
24174DPPC   C3A30527   5.621   0.289  17.455  0.0309 -0.2988  0.2643
24174DPPC   C4A30528   5.572   0.376  17.951 -0.0857 -0.1053 -0.0902
24174DPPC   C1B30529   5.975   0.706  16.774 -0.0874  0.1088 -0.1002
24174DPPC   C2B30530   5.938   0.668  17.180 -0.2042  0.0525 -0.3751
24174DPPC   C3B30531   5.851   0.707  17.707 -0.1428 -0.1480  0.2102
24174DPPC   C4B30532   5.910   0.604  18.193  0.1740 -0.1823  0.3033
24175DPPC   NC330533   3.725   2.571  15.656  0.3117 -0.1632  0.2010
24175DPPC   PO430534   3.726   2.180  15.573  0.2436 -0.1745  0.0495
24175DPPC   GL130535   3.799   1.975  15.931  0.2680 -0.0649 -0.2181
24175DPPC   GL230536   3.504   1.984  16.050 -0.0300 -0.1735  0.0448
24175DPPC   C1A30537   4.004   2.174  16.201 -0.0694 -0.0081 -0.1519
24175DPPC   C2A30538   4.027   2.395  16.557 -0.2227  0.1432  0.0618
24175DPPC   C3A30539   3.957   2.393  17.029 -0.2136 -0.1036  0.1478
24175DPPC   C4A30540   4.010   2.509  17.482  0.0566  0.2201 -0.1098
24175DPPC   C1B30541   3.623   1.981  16.366 -0.1432 -0.2228 -0.2806
24175DPPC   C2B30542   3.679   2.028  16.829 -0.0691 -0.3232  0.1906
24175DPPC   C3B30543   3.694   2.083  17.331 -0.0454 -0.0233  0.1448
24175DPPC   C4B30544   3.626   2.112  17.753 -0.1195 -0.1581 -0.1719
24176DPPC   NC330545   3.239   1.966  15.668 -0.0694  0.3014 -0.1937
24176DPPC   PO430546   2.902   1.736  15.712 -0.3068  0.1348 -0.0591
24176DPPC   GL130547   2.891   1.639  16.062 -0.0566  0.1195 -0.4973
24176DPPC   GL230548   2.821   1.331  16.089  0.0326  0.0842  0.1822
24176DPPC   C1A30549   2.877   1.861  16.374 -0.0074  0.1237  0.0808
24176DPPC   C2A30550   2.869   1.859  16.825 -0.0602  0.1351  0.3115
24176DPPC   C3A30551   2.743   1.834  17.303  0.0002 -0.1591 -0.1058
24176DPPC   C4A30552   2.716   1.819  17.744 -0.2279  0.2580  0.1286
24176DPPC   C1B30553   2.952   1.314  16.433  0.3003 -0.0000  0.1901
24176DPPC   C2B30554   2.954   1.344  16.883 -0.0518  0.0027 -0.2173
24176DPPC   C3B30555   2.866   1.379  17.362 -0.1745  0.2062 -0.0889
24176DPPC   C4B30556   2.868   1.291  17.813 -0.0439 -0.0301 -0.0320
24177DPPC   NC330557   6.574   2.598  15.585  0.3293 -0.0463  0.0116
24177DPPC   PO430558   6.755   2.303  15.366 -0.2367  0.1097 -0.1578
24177DPPC   GL130559   6.705   2.046  15.627  0.4074 -0.2920  0.0306
24177DPPC   GL230560   6.934   1.875  15.635  0.1484 -0.0605 -0.0637
24177DPPC   C1A30561   6.543   2.005  15.965 -0.2737 -0.2817  0.0750
24177DPPC   C2A30562   6.558   1.947  16.385 -0.0604 -0.1782  0.0865
24177DPPC   C3A30563   6.518   1.914  16.892 -0.1231 -0.1302 -0.0965
24177DPPC   C4A30564   6.529   1.945  17.381  0.0196  0.2540  0.4052
24177DPPC   C1B30565   6.959   1.711  15.932  0.4159 -0.0796 -0.1943
24177DPPC   C2B30566   7.057   1.734  16.323 -0.0361  0.1359 -0.3866
24177DPPC   C3B30567   7.048   1.748  16.756 -0.3073 -0.0787  0.0889
24177DPPC   C4B30568   6.972   1.785  17.265 -0.1018 -0.1968  0.3929
24178DPPC   NC330569   5.119   0.221  14.910  0.1138 -0.1767  0.3337
24178DPPC   PO430570   4.899   0.330  15.266 -0.0441  0.0002 -0.0913
24178DPPC   GL130571   4.898   0.231  15.766 -0.1629  0.0445 -0.0430
24178DPPC   GL230572   4.625   0.248  15.789 -0.1644  0.0802 -0.0036
24178DPPC   C1A30573   4.977   0.225  16.122  0.0289 -0.0805  0.1648
24178DPPC   C2A30574   4.956   0.024  16.496  0.0348 -0.2644 -0.0221
24178DPPC   C3A30575   4.768  -0.001  16.952  0.1179  0.4272  0.1199
24178DPPC   C4A30576   4.759   0.042  17.425  0.1808 -0.1607  0.0547
24178DPPC   C1B30577   4.503   0.202  16.106  0.2154 -0.1270 -0.1840
24178DPPC   C2B30578   4.424   0.107  16.525  0.0431  0.1265  0.0628
24178DPPC   C3B30579   4.275   0.133  16.936 -0.4942  0.1191 -0.1327
24178DPPC   C4B30580   4.280   0.203  17.421 -0.2270  0.0728  0.2371
24179DPPC   NC330581   5.074   5.505  15.607  0.2291 -0.0160  0.0656
24179DPPC   PO430582   4.773   5.354  15.809  0.0447 -0.1699  0.2503
24179DPPC   GL130583   4.820   5.529  16.101 -0.0169 -0.0651 -0.3769
24179DPPC   GL230584   4.703   5.261  16.300  0.2320  0.3518  0.0902
24179DPPC   C1A30585   4.694   5.711  16.447 -0.1024  0.2364  0.0103
24179DPPC   C2A30586   4.699   5.793  16.822  0.0358 -0.0012 -0.0310
24179DPPC   C3A30587   4.623   5.833  17.290 -0.0903 -0.0304 -0.2253
24179DPPC   C4A30588   4.543   5.857  17.720  0.2969  0.0967  0.0155
24179DPPC   C1B30589   4.825   5.301  16.667  0.0850 -0.0556  0.2642
24179DPPC   C2B30590   4.817   5.332  17.098 -0.0641  0.1631  0.0905
24179DPPC   C3B30591   4.894   5.390  17.562 -0.1396  0.2439 -0.1763
24179DPPC   C4B30592   4.867   5.500  18.015 -0.1813 -0.1055 -0.1568
24180DPPC   NC330593  26.369   1.235  15.300 -0.1693  0.1277 -0.0896
24180DPPC   PO430594  26.739   1.228  15.401 -0.1217  0.0458 -0.2311
24180DPPC   GL130595  26.861   1.346  15.731  0.0851 -0.3571 -0.2873
24180DPPC   GL230596  27.120   1.340  15.791  0.3110  0.1489  0.3033
24180DPPC   C1A30597  26.751   1.465  16.091 -0.0957 -0.0693 -0.2323
24180DPPC   C2A30598  26.666   1.518  16.488 -0.0940  0.1106  0.0608
24180DPPC   C3A30599  26.631   1.624  16.981  0.0124 -0.0453 -0.0407
24180DPPC   C4A30600  26.731   1.509  17.451 -0.2541  0.3122 -0.0628
24180DPPC   C1B30601  27.208   1.323  16.143  0.3202 -0.2666  0.0524
24180DPPC   C2B30602  27.204   1.461  16.486  0.1092  0.0970  0.0999
24180DPPC   C3B30603  27.343   1.578  16.954  0.2937 -0.0742  0.0912
24180DPPC   C4B30604  27.415   1.644  17.469  0.1139  0.2784  0.0783
24181DPPC   NC330605   4.775   2.467  15.526 -0.2574 -0.2659 -0.3707
24181DPPC   PO430606   4.585   2.762  15.652 -0.1647 -0.0644 -0.0330
24181DPPC   GL130607   4.520   2.927  15.966  0.0867  0.1650 -0.3067
24181DPPC   GL230608   4.772   3.094  16.046 -0.0352 -0.2379  0.0745
24181DPPC   C1A30609   4.429   2.826  16.300 -0.4175 -0.6169 -0.1399
24181DPPC   C2A30610   4.347   2.821  16.704 -0.0886  0.0501 -0.1128
24181DPPC   C3A30611   4.342   2.861  17.177 -0.2385 -0.2098 -0.1553
24181DPPC   C4A30612   4.367   2.863  17.663  0.1852 -0.0687 -0.0855
24181DPPC   C1B30613   4.679   3.174  16.410 -0.2770 -0.1376 -0.2101
24181DPPC   C2B30614   4.721   3.129  16.842  0.1796  0.0290 -0.1740
24181DPPC   C3B30615   4.722   3.144  17.342  0.0917 -0.3361  0.0141
24181DPPC   C4B30616   4.751   3.142  17.778 -0.1071  0.3150 -0.1307
24182DPPC   NC330617   3.174   3.231  16.022  0.1300 -0.0613  0.3155
24182DPPC   PO430618   3.223   2.924  15.738  0.2102  0.0364  0.1376
24182DPPC   GL130619   3.192   2.554  15.992  0.0960  0.2651  0.3650
24182DPPC   GL230620   3.487   2.496  16.070 -0.3831 -0.2391  0.1978
24182DPPC   C1A30621   3.200   2.641  16.375  0.6304 -0.1983  0.3092
24182DPPC   C2A30622   3.085   2.638  16.789 -0.2794 -0.1599  0.1002
24182DPPC   C3A30623   3.009   2.630  17.292 -0.1023  0.0278 -0.0663
24182DPPC   C4A30624   2.961   2.587  17.763 -0.3481  0.0776  0.1119
24182DPPC   C1B30625   3.587   2.478  16.434  0.0112 -0.4352  0.1550
24182DPPC   C2B30626   3.552   2.546  16.822 -0.4039 -0.0748 -0.0461
24182DPPC   C3B30627   3.561   2.637  17.252  0.1036 -0.0416  0.0420
24182DPPC   C4B30628   3.472   2.603  17.742  0.1827 -0.2107  0.0248
24183DPPC   NC330629   2.367   5.629  15.026  0.2652  0.0833  0.3280
24183DPPC   PO430630   2.279   5.856  15.312 -0.0606  0.1206 -0.1042
24183DPPC   GL130631   2.049   5.909  15.630  0.1067  0.0323 -0.1680
24183DPPC   GL230632   1.778   5.777  15.671 -0.1449  0.3252 -0.1208
24183DPPC   C1A30633   2.188   5.998  15.963 -0.3007 -0.0433 -0.0388
24183DPPC   C2A30634   2.350   5.784  16.285 -0.1711 -0.2174  0.0296
24183DPPC   C3A30635   2.386   5.799  16.805  0.1976  0.1481 -0.3225
24183DPPC   C4A30636   2.284   5.741  17.302 -0.0275  0.0411 -0.0626
24183DPPC   C1B30637   1.650   5.696  16.042 -0.1652 -0.8380 -0.1570
24183DPPC   C2B30638   1.586   5.592  16.432  0.0739  0.3495  0.0802
24183DPPC   C3B30639   1.509   5.541  16.851 -0.3914  0.0188 -0.3152
24183DPPC   C4B30640   1.505   5.559  17.359 -0.0816  0.1851 -0.1203
24184DPPC   NC330641   6.089   6.596  16.184  0.2957 -0.1151  0.0768
24184DPPC   PO430642   6.375   6.673  15.960 -0.1138 -0.3481  0.0905
24184DPPC   GL130643   6.373   6.921  16.299  0.0731 -0.1619 -0.0218
24184DPPC   GL230644   6.645   6.829  16.414  0.3892 -0.2693 -0.2202
24184DPPC   C1A30645   6.196   6.929  16.622 -0.1824  0.2502  0.0574
24184DPPC   C2A30646   6.151   6.829  16.989  0.2547  0.1285  0.3637
24184DPPC   C3A30647   6.106   6.836  17.533  0.2072  0.2046  0.1042
24184DPPC   C4A30648   6.106   6.802  17.992  0.0902 -0.2247  0.0273
24184DPPC   C1B30649   6.604   6.707  16.762 -0.0777 -0.0595  0.0282
24184DPPC   C2B30650   6.605   6.716  17.151 -0.1691  0.1307 -0.2131
24184DPPC   C3B30651   6.590   6.712  17.669  0.1168 -0.1038 -0.1198
24184DPPC   C4B30652   6.581   6.727  18.189 -0.1256  0.1099  0.0765
24185DPPC   NC330653   5.328   3.857  15.442 -0.2187 -0.0887  0.3854
24185DPPC   PO430654   5.490   4.130  15.627  0.3006 -0.1128  0.1273
24185DPPC   GL130655   5.525   4.010  16.045  0.0421  0.1027 -0.0676
24185DPPC   GL230656   5.342   3.835  16.179  0.4333  0.0019  0.0540
24185DPPC   C1A30657   5.676   4.184  16.361 -0.0290 -0.2324 -0.0874
24185DPPC   C2A30658   5.608   4.275  16.773  0.1934 -0.0419  0.1169
24185DPPC   C3A30659   5.664   4.254  17.292 -0.0130  0.2871  0.2460
24185DPPC   C4A30660   5.700   4.246  17.760 -0.3015 -0.0077  0.1541
24185DPPC   C1B30661   5.268   3.846  16.605 -0.3105 -0.2457 -0.2794
24185DPPC   C2B30662   5.352   3.868  17.037  0.0512  0.2078  0.2123
24185DPPC   C3B30663   5.380   3.898  17.539  0.0338  0.2138  0.0913
24185DPPC   C4B30664   5.286   3.992  18.055 -0.0382 -0.1564  0.0868
24186DPPC   NC330665   5.780   5.084  15.431  0.2776 -0.1754  0.2453
24186DPPC   PO430666   5.863   4.772  15.691  0.2115 -0.0232  0.2215
24186DPPC   GL130667   5.626   4.831  15.970 -0.1985 -0.0818 -0.1987
24186DPPC   GL230668   5.873   4.980  16.130  0.3177  0.0289 -0.1724
24186DPPC   C1A30669   5.545   4.743  16.350  0.0174 -0.0152 -0.3081
24186DPPC   C2A30670   5.494   4.779  16.765 -0.1001  0.0493  0.0076
24186DPPC   C3A30671   5.497   4.792  17.210 -0.1868 -0.0512 -0.2694
24186DPPC   C4A30672   5.557   4.752  17.694  0.0359  0.1615 -0.0528
24186DPPC   C1B30673   5.863   5.193  16.460  0.1414 -0.1922  0.0241
24186DPPC   C2B30674   5.858   5.195  16.900  0.1477 -0.1737  0.1163
24186DPPC   C3B30675   5.831   5.168  17.379 -0.2826  0.0377  0.3151
24186DPPC   C4B30676   5.914   5.179  17.866  0.1988  0.1690 -0.0846
24187DPPC   NC330677   4.021   2.704  15.210  0.4713 -0.0235 -0.0563
24187DPPC   PO430678   4.197   2.482  15.477 -0.2738 -0.1289 -0.3421
24187DPPC   GL130679   4.163   2.480  15.872 -0.1892  0.1341  0.1867
24187DPPC   GL230680   4.430   2.377  15.997 -0.0975  0.1284  0.2699
24187DPPC   C1A30681   4.011   2.649  16.198  0.0017  0.1936  0.3114
24187DPPC   C2A30682   3.857   2.863  16.484 -0.1031  0.2714 -0.2774
24187DPPC   C3A30683   3.883   2.932  16.918  0.0018  0.4488 -0.2935
24187DPPC   C4A30684   3.875   2.976  17.423  0.2967  0.3696 -0.0154
24187DPPC   C1B30685   4.481   2.380  16.356 -0.2474 -0.0075 -0.1387
24187DPPC   C2B30686   4.446   2.325  16.778 -0.0727 -0.0787  0.0761
24187DPPC   C3B30687   4.396   2.307  17.304  0.0093 -0.1110 -0.0899
24187DPPC   C4B30688   4.404   2.356  17.792 -0.1805  0.1248  0.2374
24188DPPC   NC330689   6.237   6.407  15.550 -0.1290 -0.0444 -0.0511
24188DPPC   PO430690   6.126   6.234  15.856 -0.2365 -0.0114  0.0123
24188DPPC   GL130691   6.081   5.909  16.112 -0.2744 -0.0957 -0.2524
24188DPPC   GL230692   6.200   5.700  15.990  0.0030 -0.0334  0.2040
24188DPPC   C1A30693   6.064   5.939  16.506  0.2068  0.4616 -0.2500
24188DPPC   C2A30694   6.016   5.982  16.912 -0.0486 -0.1044 -0.1220
24188DPPC   C3A30695   5.997   5.948  17.442 -0.0788  0.1025 -0.0356
24188DPPC   C4A30696   6.018   5.998  17.936  0.0360 -0.1024  0.1302
24188DPPC   C1B30697   6.214   5.574  16.337 -0.1599 -0.0893  0.0992
24188DPPC   C2B30698   6.222   5.538  16.770 -0.1342  0.1092  0.0003
24188DPPC   C3B30699   6.193   5.513  17.229 -0.2133  0.0639 -0.2104
24188DPPC   C4B30700   6.226   5.523  17.710  0.0485  0.0453 -0.2766
24189DPPC   NC330701   4.444   1.073  15.447 -0.1993  0.1063 -0.0058
24189DPPC   PO430702   4.143   0.828  15.465 -0.1911  0.1228  0.1016
24189DPPC   GL130703   4.100   0.752  15.851 -0.3974 -0.1001 -0.1060
24189DPPC   GL230704   4.244   0.472  15.853  0.2196  0.1038  0.1830
24189DPPC   C1A30705   4.061   0.899  16.139  0.0259 -0.1314 -0.0777
24189DPPC   C2A30706   3.998   0.971  16.561 -0.2101 -0.0226  0.3021
24189DPPC   C3A30707   3.960   1.080  16.975  0.3218 -0.1807  0.0839
24189DPPC   C4A30708   3.845   1.085  17.410  0.1718  0.0528 -0.0622
24189DPPC   C1B30709   4.070   0.302  16.079  0.2569 -0.0337 -0.1942
24189DPPC   C2B30710   3.902   0.171  16.449  0.2871 -0.0783 -0.0775
24189DPPC   C3B30711   3.820   0.220  16.982  0.2234  0.1886  0.1263
24189DPPC   C4B30712   3.703   0.313  17.479  0.0414  0.0281  0.3121
24190DPPC   NC330713   5.962   3.390  14.959  0.1397  0.2510  0.2609
24190DPPC   PO430714   6.031   3.150  15.296  0.0312  0.0546 -0.3444
24190DPPC   GL130715   6.005   3.041  15.764 -0.1514  0.2459 -0.1798
24190DPPC   GL230716   5.758   3.147  15.757 -0.0728 -0.3085 -0.0736
24190DPPC   C1A30717   6.023   2.750  15.986  0.3630 -0.2666  0.0730
24190DPPC   C2A30718   6.137   2.749  16.353 -0.0858 -0.1564  0.1267
24190DPPC   C3A30719   6.158   2.813  16.853  0.1800 -0.0289  0.1017
24190DPPC   C4A30720   6.135   2.837  17.355  0.1569  0.1725 -0.1496
24190DPPC   C1B30721   5.638   3.083  16.118 -0.0831  0.2327 -0.3383
24190DPPC   C2B30722   5.731   2.966  16.527 -0.0330 -0.2255  0.4444
24190DPPC   C3B30723   5.655   2.904  16.963 -0.0773  0.1787  0.2026
24190DPPC   C4B30724   5.657   3.018  17.447 -0.3439  0.2380 -0.0886
24191DPPC   NC330725   4.031   6.179  15.431 -0.1619  0.0905  0.1862
24191DPPC   PO430726   3.853   6.458  15.609  0.2479  0.1119 -0.1688
24191DPPC   GL130727   3.707   6.451  15.989  0.1382  0.1208 -0.2499
24191DPPC   GL230728   3.606   6.724  16.020 -0.2951  0.0372 -0.4370
24191DPPC   C1A30729   3.777   6.317  16.322  0.4312  0.0399 -0.0674
24191DPPC   C2A30730   3.965   6.374  16.712 -0.0610 -0.1401 -0.0900
24191DPPC   C3A30731   3.987   6.403  17.198 -0.0169 -0.1799  0.0409
24191DPPC   C4A30732   3.936   6.429  17.703  0.1931 -0.0542 -0.0526
24191DPPC   C1B30733   3.376   6.733  16.311  0.2644  0.1294 -0.0901
24191DPPC   C2B30734   3.237   6.933  16.662  0.0250 -0.3416 -0.0849
24191DPPC   C3B30735   3.224   6.967  17.173  0.3347  0.0248  0.2833
24191DPPC   C4B30736   3.239   6.950  17.626  0.2059 -0.2099  0.1572
24192DPPC   NC330737   4.866   6.050  15.676  0.3651  0.1174  0.2266
24192DPPC   PO430738   5.078   5.870  15.971 -0.1015 -0.0337  0.2027
24192DPPC   GL130739   5.294   6.165  16.266 -0.3325  0.0928 -0.2122
24192DPPC   GL230740   5.050   6.199  16.292  0.2491  0.2072 -0.1849
24192DPPC   C1A30741   5.469   6.071  16.590  0.1891 -0.0507  0.0937
24192DPPC   C2A30742   5.544   6.060  16.967 -0.0245  0.1956 -0.2534
24192DPPC   C3A30743   5.502   6.078  17.443 -0.1633 -0.2029  0.2176
24192DPPC   C4A30744   5.458   6.083  17.973 -0.0116 -0.3272 -0.3011
24192DPPC   C1B30745   4.935   6.161  16.659  0.0870 -0.1084 -0.1045
24192DPPC   C2B30746   4.937   6.156  17.035  0.5081 -0.3122 -0.2097
24192DPPC   C3B30747   4.984   6.184  17.496 -0.0025  0.1139  0.4177
24192DPPC   C4B30748   4.969   6.191  17.984  0.0056  0.2612  0.0991
24193DPPC   NC330749   7.364   0.491  15.710 -0.0485 -0.1869 -0.0662
24193DPPC   PO430750   7.555   0.332  15.965 -0.1516  0.0733 -0.1914
24193DPPC   GL130751   7.395   0.532  16.229  0.2603  0.0970 -0.5296
24193DPPC   GL230752   7.634   0.695  16.301  0.2288  0.2936  0.1822
24193DPPC   C1A30753   7.413   0.391  16.529  0.2920  0.1111 -0.0284
24193DPPC   C2A30754   7.402   0.344  16.892 -0.2214 -0.5705 -0.3547
24193DPPC   C3A30755   7.512   0.355  17.345  0.0406 -0.3820  0.0673
24193DPPC   C4A30756   7.508   0.346  17.863  0.1165 -0.1509 -0.0126
24193DPPC   C1B30757   7.715   0.710  16.669 -0.3402 -0.2479  0.2012
24193DPPC   C2B30758   7.844   0.765  17.093  0.2149 -0.1933 -0.0989
24193DPPC   C3B30759   7.765   0.777  17.590 -0.3294 -0.3706  0.1243
24193DPPC   C4B30760   7.797   0.666  18.103 -0.0454 -0.2939  0.1559
24194DPPC   NC330761   5.940   4.339  15.468 -0.0125 -0.0463  0.0938
24194DPPC   PO430762   6.326   4.355  15.429 -0.1083 -0.0174  0.0142
24194DPPC   GL130763   6.311   4.556  15.834  0.0224  0.1113 -0.0013
24194DPPC   GL230764   6.380   4.331  15.987  0.0772 -0.0750 -0.0697
24194DPPC   C1A30765   6.117   4.590  16.180  0.2487 -0.0386  0.1777
24194DPPC   C2A30766   5.954   4.639  16.549 -0.1720  0.1172  0.0066
24194DPPC   C3A30767   5.926   4.661  17.024 -0.0363  0.2620 -0.3358
24194DPPC   C4A30768   6.020   4.671  17.496 -0.0431 -0.2916  0.0587
24194DPPC   C1B30769   6.193   4.194  16.318  0.0076  0.1023 -0.0178
24194DPPC   C2B30770   6.123   4.160  16.687  0.2690  0.1581 -0.0506
24194DPPC   C3B30771   6.193   4.166  17.180 -0.3727  0.3630  0.3100
24194DPPC   C4B30772   6.239   4.170  17.663  0.0984 -0.1556 -0.1114
24195DPPC   NC330773   6.604   3.494  15.702 -0.0557  0.1991  0.1436
24195DPPC   PO430774   6.415   3.159  15.572  0.1635 -0.1182  0.0685
24195DPPC   GL130775   6.388   2.944  15.861 -0.2490 -0.4149  0.1047
24195DPPC   GL230776   6.344   3.235  16.032  0.2958 -0.2966 -0.2914
24195DPPC   C1A30777   6.512   2.703  16.088 -0.4443  0.2015  0.1258
24195DPPC   C2A30778   6.630   2.670  16.431  0.1762 -0.1774  0.0114
24195DPPC   C3A30779   6.633   2.699  16.933  0.0330 -0.1966  0.1223
24195DPPC   C4A30780   6.620   2.675  17.412 -0.2217  0.2055 -0.0100
24195DPPC   C1B30781   6.172   3.228  16.391 -0.0116  0.2825  0.3886
24195DPPC   C2B30782   6.051   3.283  16.746  0.1797 -0.0938 -0.3379
24195DPPC   C3B30783   5.996   3.343  17.219  0.0950  0.0457  0.0005
24195DPPC   C4B30784   5.966   3.298  17.709  0.3566  0.0610  0.0044
24196DPPC   NC330785   4.195   6.434  16.020 -0.0982  0.0085  0.0697
24196DPPC   PO430786   4.406   6.208  15.754 -0.2404  0.0573 -0.0616
24196DPPC   GL130787   4.528   5.911  15.968  0.0668 -0.3501 -0.1285
24196DPPC   GL230788   4.351   5.743  15.861 -0.4209 -0.2490  0.0965
24196DPPC   C1A30789   4.582   6.109  16.301  0.0015 -0.1064 -0.1140
24196DPPC   C2A30790   4.478   6.247  16.713  0.1408 -0.0058  0.0624
24196DPPC   C3A30791   4.477   6.337  17.225  0.0937  0.1603  0.0011
24196DPPC   C4A30792   4.429   6.370  17.711  0.2156  0.1078  0.1027
24196DPPC   C1B30793   4.328   5.489  16.134 -0.1260  0.1893  0.5306
24196DPPC   C2B30794   4.291   5.417  16.506 -0.3184  0.0315 -0.0394
24196DPPC   C3B30795   4.354   5.481  17.049 -0.0514  0.2670  0.1467
24196DPPC   C4B30796   4.399   5.416  17.515  0.0737  0.1428  0.0267
24197W        W30797   4.505   3.862   3.873  0.3550 -0.1325  0.0931
24198W        W30798  10.710   0.031  32.312 -0.1300 -0.0926  0.0294
24199W        W30799  22.795   2.925  33.709 -0.0810 -0.3934  0.0906
24200W        W30800  20.056   1.019  11.469  0.0759  0.0897 -0.0743
24201W        W30801  19.671   4.315   0.162 -0.0067 -0.0796 -0.1680
24202W        W30802  10.152   4.382  28.166 -0.2269 -0.1126  0.0276
24203W        W30803   6.136   4.002   8.952  0.0373 -0.0273  0.0331
24204W        W30804  24.092   2.050  14.200 -0.2211 -0.0707  0.0748
24205W        W30805   5.893   2.010  24.345  0.0951  0.0139 -0.2779
24206W        W30806  24.852   4.322  10.153 -0.0298  0.1948 -0.1669
24207W        W30807  14.894   4.575  30.845  0.0553  0.2031 -0.2617
24208W        W30808  13.265   0.754  31.511 -0.1009 -0.2122 -0.2692
24209W        W30809  13.339   2.348  13.847  0.1696 -0.0636  0.0835
24210W        W30810  12.383   5.265   9.004  0.0220 -0.3245 -0.0899
24211W        W30811  20.084   5.253  28.615 -0.1744 -0.0706 -0.1739
24212W        W30812   0.094   1.477   0.028  0.0204  0.1655  0.3208
24213W        W30813  10.802   5.395  13.733 -0.2569  0.2974  0.0247
24214W        W30814  21.953   4.126  27.816  0.0010 -0.0695  0.0622
24215W        W30815   7.821   2.232  13.277 -0.0123 -0.1557 -0.0385
24216W        W30816  15.478   4.236  10.019 -0.0458 -0.1392  0.0238
24217W        W30817  11.434   0.258  29.346 -0.0203  0.1534  0.0684
24218W        W30818   4.303   3.989  23.385  0.1989 -0.3018 -0.1117
24219W        W30819  21.028   2.810  26.582  0.0424 -0.0686 -0.0778
24220W        W30820  25.222   2.098   1.367 -0.1459  0.0797  0.0740
24221W        W30821  12.317   5.421  10.902  0.1472  0.0873 -0.1814
24222W        W30822  20.679   1.107  28.882  0.1206 -0.0748 -0.4055
24223W        W30823   2.639   1.846  24.022 -0.0960 -0.0775  0.2588
24224W        W30824   1.829   1.103  21.810 -0.1566  0.0999  0.1801
24225W        W30825   9.832   2.194   2.069  0.1524  0.0147 -0.2092
24226W        W30826  17.549   4.698  36.021  0.2365  0.1145 -0.2472
24227W        W30827  25.431   5.866  10.051 -0.0929  0.0851 -0.0082
24228W        W30828  21.271   5.466  23.436 -0.1222  0.1132 -0.1661
24229W        W30829   0.234   6.516   6.612  0.0841 -0.1497 -0.2564
24230W        W30830   6.589   5.757   5.167 -0.1285  0.0102  0.0632
24231W        W30831   1.487   0.795  23.652 -0.1019 -0.1537 -0.1198
24232W        W30832  15.283   3.327  13.854 -0.0357 -0.1892 -0.0903
24233W        W30833   1.636   3.272  30.820 -0.2153 -0.1177  0.3053
24234W        W30834   7.323   0.418   4.235  0.2282 -0.2885  0.0010
24235W        W30835  24.926   4.364   8.148  0.0155 -0.2629  0.2237
24236W        W30836  15.296   6.519   3.724 -0.0755  0.0302  0.0046
24237W        W30837   3.752   1.042  25.356  0.0612 -0.1522 -0.1101
24238W        W30838   4.562   1.066  25.433  0.1594  0.2698 -0.1997
24239W        W30839   7.782   4.479  14.151 -0.1181 -0.0776 -0.1139
24240W        W30840  16.424   4.202  16.054  0.0844 -0.0977  0.1010
24241W        W30841  20.889   4.279   3.790 -0.1946  0.0173  0.2448
24242W        W30842   5.595   5.355   6.816 -0.1381 -0.0493  0.1696
24243W        W30843  23.427   3.773  28.360  0.1025  0.1285  0.0713
24244W        W30844  20.360   5.401  22.317  0.0409  0.1553 -0.2325
24245W        W30845  18.263   4.066  23.671  0.2279 -0.0776 -0.0676
24246W        W30846  14.344   3.270  12.195 -0.0993 -0.0143 -0.0905
24247W        W30847   8.439   0.109  23.098  0.5088  0.1037 -0.0005
24248W        W30848   1.338   2.624  14.286 -0.0876 -0.2259 -0.3368
24249W        W30849   0.071   1.132  21.708 -0.2599 -0.1281  0.1000
24250W        W30850  23.994   2.193  12.040 -0.1969 -0.3508 -0.5002
24251W        W30851  24.115   5.781  20.600  0.1634 -0.3340 -0.0713
24252W        W30852   0.704   6.475   5.027  0.1916  0.1845 -0.0593
24253W        W30853  15.016   0.830  13.954 -0.1066  0.0572 -0.0026
24254W        W30854   0.537   4.716  21.582  0.2931  0.0121  0.0381
24255W        W30855  25.012   5.287   8.319 -0.4030 -0.0668  0.1973
24256W        W30856  11.904   4.768   2.870  0.1374 -0.4061 -0.2420
24257W        W30857  15.471   3.929  21.942  0.2070 -0.1657 -0.1336
24258W        W30858  10.028   1.434  25.691  0.0897  0.1742  0.0183
24259W        W30859  24.267   5.709  12.406  0.0289  0.0308  0.1126
24260W        W30860   4.416   6.048  27.828  0.3017  0.1687  0.1993
24261W        W30861   0.191   4.063   9.424  0.0428  0.0453  0.2273
24262W        W30862  10.834   0.731   3.282  0.0847 -0.2366  0.0990
24263W        W30863  23.487   4.961   0.692  0.2255  0.2929 -0.0178
24264W        W30864   0.227   0.376  10.363 -0.1451 -0.3303  0.0625
24265W        W30865   9.752   1.638  21.136 -0.1975  0.1029  0.0764
24266W        W30866  15.416   4.119   8.168  0.2303 -0.2224 -0.4618
24267W        W30867  24.628   6.260   1.983  0.1711 -0.1580  0.0494
24268W        W30868   4.463   6.260  33.521  0.1090  0.6056  0.1468
24269W        W30869  12.645   5.998   8.981  0.1704 -0.1623 -0.0584
24270W        W30870   4.311   2.719   6.845  0.0263  0.0101 -0.1794
24271W        W30871  24.181   2.245  31.886  0.0353 -0.0387  0.0991
24272W        W30872  18.776   1.724  35.865  0.3883  0.0396  0.1829
24273W        W30873  21.297   2.516  29.111 -0.2749  0.0093  0.0734
24274W        W30874  21.892   4.777   8.969  0.2810 -0.1569  0.0358
24275W        W30875  23.951   4.776  20.473  0.0261 -0.0058  0.2668
24276W        W30876   4.479   6.095   7.112 -0.0022 -0.2496 -0.0764
24277W        W30877   3.211   2.862  24.813 -0.0134  0.2106 -0.0220
24278W        W30878  19.240   4.683  11.500 -0.0699  0.1442 -0.2444
24279W        W30879  13.066   1.256   1.508  0.0824 -0.1803 -0.1287
24280W        W30880  17.597   4.195  33.953 -0.2608  0.2419  0.0553
24281W        W30881   9.857   3.958   1.298 -0.0542 -0.2375 -0.2704
24282W        W30882   7.237   4.268  14.979  0.1426  0.1026 -0.2469
24283W        W30883   4.824   4.343   8.621 -0.2555 -0.1683  0.0684
24284W        W30884  21.581   3.692  15.336 -0.0304 -0.1096  0.1715
24285W        W30885  26.273   4.278   1.765  0.1635 -0.0190 -0.1153
24286W        W30886  20.543   3.103  21.094  0.1687  0.1941 -0.0071
24287W        W30887  22.259   3.954  29.686 -0.0938 -0.0071  0.3021
24288W        W30888   6.316   2.995  21.230 -0.0425  0.2816  0.0993
24289W        W30889  20.776   5.054   0.209  0.4754 -0.0536  0.4405
24290W        W30890  24.914   0.335  14.667 -0.1163 -0.2402  0.0879
24291W        W30891   2.509   0.421   5.196  0.1596  0.0068 -0.3411
24292W        W30892   0.683   0.470  34.828 -0.1424 -0.0719  0.2241
24293W        W30893  13.689   1.328  24.948  0.0041  0.1487 -0.2150
24294W        W30894   2.926   0.970  30.940 -0.3649  0.1389 -0.0285
24295W        W30895  17.502   2.494  10.908  0.1406 -0.0030  0.2808
24296W        W30896   5.770   2.673  23.344 -0.0324  0.1453 -0.3770
24297W        W30897   3.528   1.617   9.961 -0.1031  0.3063  0.1800
24298W        W30898  22.287   5.521  28.978  0.0097  0.0212 -0.1011
24299W        W30899  24.170   1.931  35.602 -0.1928  0.2300 -0.1292
24300W        W30900  13.226   0.644  12.926  0.0673 -0.3310 -0.1805
24301W        W30901  22.806   5.295  35.054 -0.1932  0.2095 -0.0292
24302W        W30902   5.779   1.033  15.483  0.0391 -0.0372 -0.2034
24303W        W30903  15.343   1.418  22.392 -0.1018 -0.1235  0.0243
24304W        W30904  14.646   3.551  34.099 -0.0163 -0.1585  0.0876
24305W        W30905   1.639   3.279  11.233 -0.4554  0.1483 -0.0626
24306W        W30906  16.091   3.186   7.971 -0.0550 -0.1556  0.1288
24307W        W30907  24.387   2.343  23.861 -0.0144 -0.0841  0.0427
24308W        W30908   7.825   1.674  14.109  0.0606  0.0793 -0.1376
24309W        W30909   2.100   0.282  25.305 -0.2019  0.2868 -0.0669
24310W        W30910  16.846   4.997  12.217  0.2570  0.1024  0.3142
24311W        W30911   9.190   0.638  24.110  0.0384 -0.0881 -0.0560
24312W        W30912   5.278   1.884  11.854 -0.0614  0.2351  0.0341
24313W        W30913   8.945   2.465  10.116  0.0602  0.3382 -0.1018
24314W        W30914  17.435   0.995   7.824 -0.0645 -0.2829  0.2678
24315W        W30915  23.264   1.867  30.237  0.4112 -0.2547 -0.0809
24316W        W30916  16.112   5.996   4.009  0.1779  0.0633 -0.1868
24317W        W30917  10.703   2.989  31.342 -0.0015 -0.2078 -0.0533
24318W        W30918   7.437   0.400  27.919  0.0896  0.0376  0.0526
24319W        W30919  19.294   4.701  29.016  0.2987  0.0027 -0.0352
24320W        W30920   4.260   5.087  22.559  0.1941 -0.0036 -0.1159
24321W        W30921  17.236   2.178   1.992  0.1978 -0.0579 -0.1288
24322W        W30922  17.151   5.249   6.590  0.0679  0.1502 -0.0690
24323W        W30923  12.532   6.071  24.479 -0.1488 -0.2496 -0.2086
24324W        W30924   5.085   3.280  13.747 -0.2197 -0.0485  0.0977
24325W        W30925  21.137   6.283   4.260  0.0284  0.0121 -0.0569
24326W        W30926  10.629   1.910   8.719  0.1710  0.2337 -0.1489
24327W        W30927   0.735   4.192  28.497 -0.1522  0.1290 -0.0988
24328W        W30928   3.350   2.849  25.343  0.3396 -0.1729 -0.2659
24329W        W30929  19.683   2.090  28.814 -0.0988 -0.3396  0.0720
24330W        W30930   2.464   4.777  10.662  0.2291 -0.1788 -0.3854
24331W        W30931   7.965   1.452  32.446  0.2709  0.0721  0.1567
24332W        W30932  21.480   0.818   6.361  0.1956  0.2033 -0.2676
24333W        W30933   7.071   2.516  34.142  0.0451  0.0223 -0.2160
24334W        W30934   6.683   2.578  35.633  0.1844 -0.0516 -0.0696
24335W        W30935   4.021   3.663  30.945  0.0212  0.1493 -0.0825
24336W        W30936  17.019   6.191   8.655  0.2142 -0.0074  0.2201
24337W        W30937  21.098   4.496  30.411  0.1120  0.2200 -0.3910
24338W        W30938  19.354   2.603  21.869  0.0099 -0.1789  0.1508
24339W        W30939   3.218   0.814  31.730  0.1185  0.1649 -0.2799
24340W        W30940  23.026   0.029  20.830  0.2361  0.1624 -0.0492
24341W        W30941  23.921   1.753   1.148 -0.1734 -0.2184 -0.0019
24342W        W30942  25.063   2.894  33.928 -0.0430  0.2332  0.0718
24343W        W30943   0.420   5.149  25.229  0.1671 -0.0926  0.1651
24344W        W30944  20.976   3.868  27.140 -0.1351  0.1588  0.0533
24345W        W30945  26.238   3.419  28.678  0.1502  0.0703 -0.4293
24346W        W30946  26.364   3.938  23.841 -0.2708 -0.3579 -0.1114
24347W        W30947  12.450   6.502   3.212  0.3694 -0.2640 -0.0051
24348W        W30948   2.154   0.344  25.855  0.1364  0.1736 -0.0030
24349W        W30949   1.904   1.171   3.640 -0.0559 -0.1663 -0.2326
24350W        W30950   4.294   5.274  33.214  0.2234  0.0163 -0.1983
24351W        W30951  16.461   3.458  11.402 -0.0614 -0.1732 -0.1127
24352W        W30952  17.350   5.737   7.787  0.0054  0.4290  0.3398
24353W        W30953   0.141   3.563   6.845 -0.1487  0.0393 -0.2497
24354W        W30954  22.119   3.042   9.402  0.0815  0.0949  0.0195
24355W        W30955  22.169   1.989   6.548 -0.2485  0.0399 -0.1277
24356W        W30956   5.367   2.043  28.370 -0.0949  0.0029  0.1472
24357W        W30957   5.553   2.196   0.584 -0.1110  0.2190 -0.0509
24358W        W30958   9.855   4.189  21.338  0.0675  0.1363  0.2358
24359W        W30959  23.122   1.518   5.774  0.2129 -0.3150 -0.1877
24360W        W30960  18.879   4.112  35.256  0.1223 -0.0584  0.4773
24361W        W30961  18.740   2.786   5.676  0.0898  0.0442  0.2087
24362W        W30962  22.926   4.926   4.716  0.1340  0.0378 -0.0747
24363W        W30963  11.459   6.246   0.948 -0.0565 -0.0805  0.0112
24364W        W30964  23.413   3.711  30.589 -0.2073  0.0579 -0.1820
24365W        W30965  15.833   3.408  29.354  0.1193  0.1374 -0.1646
24366W        W30966  18.749   4.065  30.685  0.0388  0.1183  0.2077
24367W        W30967  24.266   1.836  32.528  0.1985 -0.0563  0.0614
24368W        W30968   5.197   1.028  31.103  0.1855  0.1171 -0.3459
24369W        W30969   1.449   2.527  30.345  0.1176  0.0536 -0.1322
24370W        W30970  18.141   1.161  32.931 -0.0316  0.5754 -0.1061
24371W        W30971  13.964   0.083  12.456 -0.0487 -0.0851 -0.3462
24372W        W30972  15.218   3.865   6.306 -0.1718 -0.4024  0.1508
24373W        W30973  25.069   6.026  35.382 -0.1677  0.1840 -0.1255
24374W        W30974  15.887   4.787  20.996 -0.0142  0.1598 -0.1684
24375W        W30975  22.307   0.957   0.952  0.1526 -0.2475  0.0364
24376W        W30976  10.190   4.201   7.536  0.1846  0.1405 -0.2274
24377W        W30977  24.245   3.909   3.046 -0.0476  0.0846 -0.1310
24378W        W30978  16.706   4.226  22.656 -0.3122 -0.1183 -0.0979
24379W        W30979  24.799   1.677  32.872 -0.1722  0.1036 -0.0886
24380W        W30980  15.199   2.913   4.215  0.0385 -0.2763  0.2021
24381W        W30981  24.712   2.791  14.489 -0.2779  0.3486 -0.0919
24382W        W30982  18.287   2.972  21.782  0.0661  0.1535 -0.3708
24383W        W30983   1.772   0.219  20.808 -0.0890 -0.0227 -0.0934
24384W        W30984  16.107   3.349  24.036  0.1836 -0.1749  0.0168
24385W        W30985  12.397   0.621  13.607  0.3602  0.0197  0.1406
24386W        W30986  25.014   1.330   1.671 -0.1783  0.0307  0.2179
24387W        W30987   6.341   1.343  22.624  0.0507 -0.2450  0.0287
24388W        W30988  22.226   1.368   5.269 -0.2010 -0.1568 -0.1064
24389W        W30989  13.302   1.194   9.042 -0.1887 -0.0436 -0.3173
24390W        W30990  12.876   4.854  22.055  0.0851  0.3653 -0.1389
24391W        W30991   2.705   6.095  24.499  0.0843  0.1290  0.1190
24392W        W30992  19.315   2.658  15.167 -0.0027  0.4242 -0.2339
24393W        W30993  14.682   5.304  10.112 -0.0531 -0.1493 -0.0138
24394W        W30994  12.527   4.362  11.921 -0.0990 -0.1021 -0.0686
24395W        W30995   1.608   0.409  25.358 -0.0521  0.0818  0.0815
24396W        W30996   1.002   6.451  10.408  0.0004  0.1045 -0.1153
24397W        W30997   4.759   6.471  16.042 -0.1345  0.2610 -0.0172
24398W        W30998   3.840   2.373  13.273 -0.1321 -0.3209  0.0187
24399W        W30999  14.935   0.177  21.416 -0.2043  0.0240  0.1729
24400W        W31000   8.486   4.393  34.517 -0.2469  0.3220 -0.2569
24401W        W31001  17.259   3.991  27.093 -0.0945  0.0836 -0.0588
24402W        W31002   4.595   2.018   0.254  0.0669  0.1104 -0.1003
24403W        W31003  21.673   4.594  21.475 -0.0534 -0.1594  0.0583
24404W        W31004   2.284   0.669  12.719 -0.0890 -0.2255  0.0569
24405W        W31005  11.018   3.670  35.080  0.0903 -0.0192  0.0087
24406W        W31006  18.047   0.566  32.344  0.1193  0.4110  0.0567
24407W        W31007   2.012   4.230  15.089  0.0674  0.2668 -0.0118
24408W        W31008  16.044   4.388   9.293  0.0751 -0.1739 -0.3195
24409W        W31009  18.868   1.376  12.748 -0.1550 -0.0928 -0.0681
24410W        W31010   7.763   6.056   1.834  0.0372 -0.0194  0.1699
24411W        W31011  15.285   0.189  30.588  0.3017 -0.0663  0.0803
24412W        W31012   4.671   4.467  25.460 -0.0573 -0.2623  0.0330
24413W        W31013  12.337   5.996   1.994 -0.2242  0.0434  0.0368
24414W        W31014  20.611   0.379   6.208 -0.0135  0.1055  0.2644
24415W        W31015  23.658   1.041   4.345  0.2121 -0.0264  0.1745
24416W        W31016  12.463   1.682  25.578 -0.0415  0.2271  0.2227
24417W        W31017   6.965   6.285   2.085  0.0820 -0.1980 -0.1520
24418W        W31018   6.673   0.101  13.441 -0.0245  0.1133 -0.1091
24419W        W31019   9.890   4.819  24.540  0.2981  0.1924 -0.1272
24420W        W31020   5.355   3.417  21.228  0.1421 -0.0875 -0.1216
24421W        W31021   1.151   1.411   2.468  0.1494  0.0896 -0.1377
24422W        W31022  16.363   3.233  28.705 -0.0050 -0.1365 -0.2616
24423W        W31023  21.476   6.094  33.231  0.0110  0.0059  0.1483
24424W        W31024  11.913   4.188   3.017 -0.0584 -0.0646  0.3099
24425W        W31025  21.643   1.504   0.695  0.2733 -0.2961 -0.4693
24426W        W31026   9.655   1.951  30.178  0.1628  0.0522 -0.0398
24427W        W31027  16.056   2.952   8.430 -0.0956  0.0934  0.2166
24428W        W31028   9.738   2.317   3.651  0.0267  0.2323  0.0337
24429W        W31029   7.222   0.170   2.924  0.3846 -0.1466  0.0173
24430W        W31030  11.669   4.992   5.989  0.0343 -0.1602  0.2093
24431W        W31031  18.775   0.755  23.996 -0.0925 -0.4388 -0.4962
24432W        W31032  26.407   0.768   8.574  0.1447 -0.1273  0.2061
24433W        W31033  15.273   6.405   4.204  0.1718 -0.0103  0.0386
24434W        W31034   5.667   0.997  24.230  0.1800  0.1226  0.0928
24435W        W31035   8.531   4.938  31.042 -0.1825  0.0202  0.0394
24436W        W31036  18.143   1.305  34.914 -0.0347  0.1290  0.0691
24437W        W31037  16.955   3.729  14.329 -0.0196  0.1838 -0.0782
24438W        W31038   1.116   4.259  24.369 -0.1255  0.0112  0.0437
24439W        W31039   2.214   4.979  11.640 -0.3328  0.1785 -0.1005
24440W        W31040  22.829   0.841   9.654 -0.1426  0.1794  0.1945
24441W        W31041  17.742   3.058   8.416  0.1045 -0.0439  0.4899
24442W        W31042   2.947   1.182  11.993  0.1769  0.2849  0.1355
24443W        W31043  11.350   3.223   1.596 -0.0307 -0.3113 -0.0231
24444W        W31044  20.094   1.375  22.205  0.1156  0.2933 -0.2081
24445W        W31045   7.295   4.676   7.072 -0.2340 -0.2319  0.1285
24446W        W31046  21.451   5.792  14.513  0.0220  0.1457  0.2639
24447W        W31047  17.507   3.315   7.527  0.0400 -0.2940  0.1435
24448W        W31048   2.228   2.873   8.576  0.2348 -0.0035 -0.1140
24449W        W31049  19.401   3.357   9.116  0.2075  0.0126  0.1094
24450W        W31050   4.311   6.144  30.893 -0.1558 -0.1438  0.2546
24451W        W31051   1.260   2.552  23.542 -0.1731 -0.0436 -0.0165
24452W        W31052  16.227   1.741  31.988 -0.0838 -0.2287  0.2435
24453W        W31053  19.714   6.022  35.024  0.0686  0.1130  0.0685
24454W        W31054   6.345   2.845  33.041  0.1877 -0.0271 -0.1991
24455W        W31055   2.476   2.989   0.136  0.1548 -0.1657 -0.0613
24456W        W31056   2.125   1.042   0.615  0.0553  0.0899  0.2115
24457W        W31057  14.954   2.468   4.567 -0.1033  0.0857  0.1585
24458W        W31058   2.613   3.713  27.766 -0.0661  0.0461  0.0225
24459W        W31059  19.274   2.759  33.812  0.3166 -0.2482  0.0462
24460W        W31060  26.430   6.076  29.453 -0.0697 -0.4914  0.1682
24461W        W31061  11.903   2.156  13.080  0.2324 -0.2371 -0.3033
24462W        W31062   7.597   2.710  21.651  0.2456 -0.0187  0.0227
24463W        W31063   9.392   4.487  35.066  0.1264 -0.0172 -0.0140
24464W        W31064   7.766   0.839   0.659  0.0528  0.0712  0.0523
24465W        W31065   2.475   5.156   8.506  0.1007 -0.0822 -0.1180
24466W        W31066  16.883   4.011   1.875 -0.0876  0.2291  0.1583
24467W        W31067   4.651   2.956  29.186 -0.2461 -0.1855 -0.2073
24468W        W31068   3.149   1.445  22.969  0.1497 -0.1567 -0.4493
24469W        W31069  14.017   2.033  21.649  0.0724 -0.0207 -0.0331
24470W        W31070   4.771   2.400   6.329  0.0533  0.1022 -0.1360
24471W        W31071  13.191   5.864  35.372  0.0239  0.0092 -0.1257
24472W        W31072  21.681   3.805   2.411  0.0023 -0.2417 -0.0746
24473W        W31073  21.599   0.399  33.375  0.3017 -0.1243 -0.0161
24474W        W31074  17.863   4.678  26.008  0.1551  0.0205  0.1347
24475W        W31075  18.851   2.010   2.275  0.1322  0.3598  0.0001
24476W        W31076  10.508   5.182   4.298 -0.0428 -0.2250  0.2116
24477W        W31077  20.148   5.873  10.839  0.1255 -0.4541  0.2429
24478W        W31078  22.931   3.030  27.475  0.1195  0.0308 -0.3177
24479W        W31079   0.069   5.724  31.060 -0.0575 -0.0366 -0.4038
24480W        W31080   6.282   1.149  15.054  0.0916 -0.0159  0.0003
24481W        W31081   1.810   2.896   5.716  0.2016  0.0333  0.0097
24482W        W31082   5.363   4.894  25.623  0.0239  0.0863 -0.0843
24483W        W31083  16.124   5.652  11.277  0.0317  0.1140 -0.0918
24484W        W31084  19.583   4.554  26.159 -0.0635 -0.0156  0.1241
24485W        W31085  13.263   6.240  25.307  0.0268  0.1572  0.2080
24486W        W31086  21.120   4.799   1.852  0.0074  0.0489 -0.1739
24487W        W31087   9.494   2.218  29.714  0.1720  0.3301  0.2415
24488W        W31088  21.122   1.212  27.352  0.3467 -0.1994 -0.1708
24489W        W31089   9.725   2.792  35.414 -0.0565 -0.1644 -0.1912
24490W        W31090  13.361   6.574  27.318 -0.0654 -0.2086 -0.0484
24491W        W31091  12.180   1.977  14.013  0.0890 -0.1555 -0.0369
24492W        W31092   2.431   5.408   1.798  0.2087  0.1610 -0.3107
24493W        W31093  18.883   6.332  34.655  0.2870 -0.1766 -0.4049
24494W        W31094  16.161   3.292  24.502 -0.2069  0.2342 -0.0708
24495W        W31095  25.808   1.921   0.660  0.0022  0.1725  0.1367
24496W        W31096   4.978   5.600  10.066 -0.0200 -0.0615 -0.1755
24497W        W31097  15.579   6.525  23.968  0.1425 -0.0798 -0.1724
24498W        W31098  11.077   0.403  15.401 -0.3480  0.3294  0.0655
24499W        W31099  17.962   3.282  24.965 -0.1059  0.1579 -0.1463
24500W        W31100  23.426   5.050  24.987  0.0265  0.1242  0.0074
24501W        W31101  21.261   0.697   5.780  0.0624 -0.0273  0.0980
24502W        W31102  23.562   4.416   1.881 -0.2147  0.2623  0.1750
24503W        W31103  25.012   3.917  14.605 -0.0539  0.0133  0.1287
24504W        W31104  26.047   2.048  32.795  0.2144 -0.2666  0.0428
24505W        W31105  20.797   0.229  23.918  0.0416  0.0307 -0.1311
24506W        W31106  21.804   4.265   8.739 -0.0238  0.1219  0.0003
24507W        W31107   7.992   0.194  31.255 -0.0344  0.1493  0.0997
24508W        W31108  14.626   5.716   0.052  0.3058 -0.0360  0.0347
24509W        W31109   2.600   3.997  34.060  0.0435 -0.2504  0.0497
24510W        W31110  22.374   1.556  13.879  0.1753 -0.1594  0.0587
24511W        W31111   7.312   1.356   1.569  0.0512  0.1242 -0.0053
24512W        W31112  21.744   3.231  25.879  0.0772  0.1086 -0.0219
24513W        W31113  18.926   2.512  33.438  0.0185 -0.0724  0.1563
24514W        W31114  20.468   2.417  23.844  0.0804 -0.1896 -0.1563
24515W        W31115   8.457   0.645  26.882  0.2496  0.2481 -0.1482
24516W        W31116   7.359   5.948   5.807  0.1322 -0.2096  0.2143
24517W        W31117   2.180   2.570   7.159  0.1262 -0.2603  0.4439
24518W        W31118  17.491   0.508  35.529 -0.2037 -0.1449  0.1801
24519W        W31119  22.426   6.414  14.532 -0.0291 -0.0616 -0.1886
24520W        W31120  24.311   4.402  20.414  0.0539 -0.0652 -0.0268
24521W        W31121  23.979   5.385  32.544  0.1807 -0.0449 -0.0881
24522W        W31122   7.484   3.839  21.270  0.4879  0.1044  0.0704
24523W        W31123   7.868   0.161  34.504  0.0173 -0.1411 -0.0215
24524W        W31124  10.031   1.414  23.674  0.3449  0.0853 -0.0835
24525W        W31125  21.665   3.293  13.322 -0.1388 -0.0370  0.1438
24526W        W31126  10.464   1.375  30.470  0.1164 -0.2477  0.2854
24527W        W31127  11.835   3.008   2.877  0.2947  0.3518  0.0124
24528W        W31128   0.038   6.444   8.123 -0.1289 -0.1454 -0.0759
24529W        W31129  25.994   1.277  11.509  0.1247  0.1529  0.2220
24530W        W31130  15.268   0.773  23.586  0.2053 -0.2222 -0.0115
24531W        W31131  14.108   4.323   3.658  0.1077 -0.3168  0.0440
24532W        W31132  17.632   1.000  31.543  0.3083  0.1362  0.0536
24533W        W31133  17.469   5.952  30.587 -0.0101 -0.2904 -0.1301
24534W        W31134  23.792   2.734   0.231 -0.0039 -0.0850 -0.2151
24535W        W31135  20.494   3.009  31.878 -0.2538 -0.0449  0.1180
24536W        W31136  25.092   4.127  31.058 -0.0989 -0.2105  0.2170
24537W        W31137  25.013   3.542  11.844 -0.0615 -0.0754  0.0500
24538W        W31138  25.737   3.783  29.418  0.4370  0.0595 -0.0948
24539W        W31139  10.914   0.107  22.514  0.1312  0.1905  0.3761
24540W        W31140  25.685   2.206  11.695  0.0416 -0.2993 -0.1657
24541W        W31141  16.983   5.887   1.734  0.1561  0.0064 -0.0196
24542W        W31142  19.887   0.173   3.113 -0.1140  0.0212 -0.2043
24543W        W31143  20.852   5.809  25.572  0.0006  0.1256 -0.0157
24544W        W31144   0.213   5.974   8.384 -0.0480 -0.3809 -0.2241
24545W        W31145   0.251   5.816  27.176 -0.3584  0.0645  0.0227
24546W        W31146  10.438   1.757  26.331  0.0186 -0.1602  0.1968
24547W        W31147  21.676   5.673  35.471 -0.2584 -0.1242  0.1847
24548W        W31148  15.127   0.879   9.347  0.1784 -0.0229  0.0396
24549W        W31149  21.932   2.169  11.481 -0.1773  0.1937  0.0539
24550W        W31150   9.294   4.497  29.555  0.2936  0.0686  0.2001
24551W        W31151  25.591   5.234  22.393  0.2534  0.0473  0.1925
24552W        W31152  22.175   0.599  26.426 -0.0391 -0.1475  0.0435
24553W        W31153   9.970   2.689  29.264  0.1860  0.1047  0.1195
24554W        W31154  17.258   2.252  30.342  0.0859 -0.1781 -0.0100
24555W        W31155  23.858   5.644   1.122  0.0935  0.2542  0.3089
24556W        W31156  25.025   4.973  35.202  0.0702  0.0142  0.5894
24557W        W31157   3.145   2.222  11.860  0.0585 -0.0440  0.2424
24558W        W31158  22.619   2.532  34.379 -0.0162 -0.0208  0.1210
24559W        W31159   3.929   5.688   5.502 -0.1395 -0.0491 -0.1967
24560W        W31160  17.395   0.837   5.501 -0.1857  0.1814 -0.1752
24561W        W31161  24.826   0.616  30.838  0.2782  0.0148  0.0360
24562W        W31162  19.876   2.203  28.292 -0.1712 -0.0759  0.2628
24563W        W31163  12.666   5.122  25.683 -0.2609 -0.2013 -0.2677
24564W        W31164   0.042   1.745   9.035 -0.3202  0.2478 -0.0370
24565W        W31165  21.677   6.380  12.052 -0.2346 -0.0320 -0.0044
24566W        W31166  13.148   0.341  28.766 -0.0085  0.2819  0.1825
24567W        W31167   9.477   4.570   8.400 -0.1846 -0.1422 -0.0502
24568W        W31168  16.408   4.889  28.880  0.1506  0.0765 -0.0500
24569W        W31169  21.102   2.479   1.071 -0.3251  0.0149  0.4327
24570W        W31170   1.386   1.391   1.908 -0.0357 -0.0389 -0.3307
24571W        W31171  21.092   5.154   9.992  0.0442 -0.1161 -0.0524
24572W        W31172   4.391   1.250  21.136  0.0076  0.0743 -0.0977
24573W        W31173  10.714   3.151  22.356 -0.1094  0.1921 -0.0792
24574W        W31174  13.512   5.939  33.510  0.1446  0.1856  0.3591
24575W        W31175   6.386   0.453  29.022 -0.2814 -0.1786 -0.3144
24576W        W31176  23.111   1.061  32.822 -0.1929 -0.0079  0.1072
24577W        W31177  10.810   1.533  31.187 -0.1788 -0.0277  0.0405
24578W        W31178   1.576   1.593   0.813  0.1798  0.0437 -0.0582
24579W        W31179   2.973   1.450  30.804  0.1658  0.2060  0.0127
24580W        W31180  23.041   4.353   2.996  0.0439  0.0150 -0.3698
24581W        W31181   3.571   4.075   1.166  0.2456  0.0826 -0.6406
24582W        W31182  23.678   4.857  26.220 -0.1864 -0.0352  0.1870
24583W        W31183   4.652   5.948  27.365  0.0784 -0.1626 -0.1325
24584W        W31184  13.705   0.342  25.728 -0.0699 -0.2127 -0.0188
24585W        W31185  11.951   0.638  32.582  0.2146  0.0914 -0.0222
24586W        W31186   5.670   5.709   8.173 -0.0288  0.3642  0.1838
24587W        W31187  18.942   1.713  31.610 -0.0661 -0.0895 -0.0779
24588W        W31188  16.017   1.295  22.698 -0.0709  0.1554  0.1397
24589W        W31189   5.507   2.513  22.816 -0.1729 -0.3095 -0.3386
24590W        W31190  21.363   1.922  21.327  0.0832 -0.1015  0.2418
24591W        W31191   8.743   2.017  26.131 -0.1159 -0.1706 -0.1863
24592W        W31192  22.841   5.276  14.656  0.2082  0.0209 -0.0955
24593W        W31193  18.425   5.807  23.389 -0.2192 -0.0697  0.2964
24594W        W31194  11.663   3.554  21.381 -0.0213 -0.0891  0.2457
24595W        W31195  19.575   5.303  26.560 -0.0006  0.0184 -0.2454
24596W        W31196   9.188   4.564  26.668  0.4224 -0.2731  0.3059
24597W        W31197  19.195   0.879  14.734  0.0207 -0.2261 -0.2005
24598W        W31198   6.958   2.538   4.581  0.2992  0.0464 -0.1101
24599W        W31199   0.204   2.182  24.290 -0.2883  0.0437  0.1602
24600W        W31200  13.418   0.585   9.855 -0.2493 -0.2800 -0.0633
24601W        W31201   2.784   3.608   2.354 -0.1001  0.1761 -0.3642
24602W        W31202   9.893   6.117  26.885  0.0162 -0.0031  0.0199
24603W        W31203  21.989   0.056   1.230 -0.2249 -0.0371  0.3218
24604W        W31204   6.767   3.372   9.261 -0.2642  0.1923  0.0172
24605W        W31205   2.259   4.999  21.925 -0.0530  0.1595  0.1093
24606W        W31206  24.146   4.644  11.377  0.1822 -0.0154 -0.2266
24607W        W31207  17.892   3.811  29.193  0.1483  0.1441  0.5041
24608W        W31208   5.042   0.203   4.665 -0.0420  0.0138  0.5236
24609W        W31209  18.294   2.705   6.540  0.2211  0.0502  0.2159
24610W        W31210   2.221   0.553   4.078 -0.0429  0.0443 -0.2111
24611W        W31211  17.397   2.611  29.324  0.0164  0.0629  0.1914
24612W        W31212   1.116   3.731  33.917 -0.2310 -0.0672 -0.1168
24613W        W31213   3.493   3.635  22.990  0.2287  0.4517 -0.1757
24614W        W31214   5.447   0.070  27.792 -0.1439  0.0991 -0.0222
24615W        W31215  24.012   5.479  14.637  0.2670 -0.1869 -0.2793
24616W        W31216   0.320   1.206   4.975 -0.0300 -0.1976 -0.1655
24617W        W31217  25.255   4.380  23.276 -0.0347 -0.0925  0.0772
24618W        W31218  11.919   5.399   0.767 -0.3128  0.2271  0.1255
24619W        W31219  21.304   1.268  33.372  0.0697 -0.1231 -0.0725
24620W        W31220  10.054   1.373   4.623 -0.1546  0.2310  0.1800
24621W        W31221   4.563   5.409   9.958  0.0840  0.0463 -0.1916
24622W        W31222   1.350   5.593   8.504  0.3290 -0.0595  0.1859
24623W        W31223  26.339   2.325  20.758 -0.0617 -0.0048 -0.0793
24624W        W31224  21.819   5.278  26.569 -0.0971 -0.2440 -0.2221
24625W        W31225  17.597   0.873  29.191  0.3187 -0.0398  0.1115
24626W        W31226   1.432   5.255  27.648  0.3388 -0.0195  0.1771
24627W        W31227   0.591   5.643  21.685  0.1268  0.2481  0.2573
24628W        W31228  21.236   3.260  23.906  0.3403  0.0629  0.0409
24629W        W31229   6.307   3.886  28.367 -0.1267 -0.0458 -0.2796
24630W        W31230  12.992   2.537  35.470  0.1600  0.0446  0.2783
24631W        W31231  24.686   5.807   4.671  0.3169  0.0215 -0.1688
24632W        W31232  22.441   5.628  25.826 -0.0599 -0.1944  0.1092
24633W        W31233  22.612   3.863  35.718  0.3498 -0.0311 -0.3409
24634W        W31234   1.495   0.405  35.235 -0.2095 -0.0091  0.0944
24635W        W31235   9.963   1.755   2.352 -0.1726 -0.1582 -0.0111
24636W        W31236  13.576   5.941   4.732  0.0669  0.0140  0.0445
24637W        W31237   5.095   3.926  12.649 -0.1248  0.2066  0.2695
24638W        W31238  19.624   2.132   7.560 -0.1625 -0.0592  0.1851
24639W        W31239   0.139   1.874  20.446 -0.1894  0.0965  0.1229
24640W        W31240   6.992   0.342   6.595 -0.2422  0.1295 -0.2569
24641W        W31241  21.514   5.586  32.805  0.0248  0.1221 -0.2989
24642W        W31242  26.358   6.339  12.067 -0.2615  0.0550  0.1147
24643W        W31243  20.453   5.087  23.888 -0.0954  0.2103 -0.1002
24644W        W31244   4.595   5.310   7.680 -0.2363  0.0153 -0.1575
24645W        W31245   9.987   4.552  20.942  0.0051  0.1485 -0.1196
24646W        W31246   9.890   0.260  10.084 -0.0555  0.0664 -0.0816
24647W        W31247   4.613   1.010  12.412 -0.0867 -0.0918  0.3504
24648W        W31248  21.158   3.184   9.476  0.0655 -0.0222  0.2293
24649W        W31249  14.078   5.362  27.569  0.0469 -0.3207  0.2639
24650W        W31250  19.602   6.451  12.029  0.1133  0.1389  0.1166
24651W        W31251  10.426   0.006  10.790  0.1746  0.0997 -0.0425
24652W        W31252  15.420   5.390   2.329 -0.0834  0.0057  0.1243
24653W        W31253   6.846   4.550  25.791 -0.0902 -0.1218  0.2159
24654W        W31254  20.532   3.586  21.033  0.0379  0.2997 -0.1976
24655W        W31255   1.099   5.296  24.010 -0.1103 -0.1834  0.3831
24656W        W31256   5.546   2.210  33.800  0.2524  0.1766  0.0424
24657W        W31257  16.981   3.531  30.126  0.1875 -0.0221 -0.0964
24658W        W31258   9.429   3.029  24.003 -0.1594 -0.3514  0.1218
24659W        W31259   2.230   0.992  23.767  0.0602 -0.0530  0.1864
24660W        W31260  16.393   4.564  22.218  0.1824 -0.1786 -0.2046
24661W        W31261   1.665   6.376  10.824 -0.0765  0.1290  0.0030
24662W        W31262  22.200   5.778  22.919 -0.3132  0.0133  0.2330
24663W        W31263  18.199   3.934  34.866  0.0422  0.1460  0.1659
24664W        W31264  19.377   0.268  30.987 -0.2578 -0.0699 -0.4499
24665W        W31265   8.569   4.603  10.672 -0.0019 -0.3923  0.0701
24666W        W31266  13.421   4.130  30.072  0.2803  0.2646 -0.1617
24667W        W31267  20.069   4.896  13.798 -0.0043  0.0227 -0.3665
24668W        W31268  12.305   6.114  35.338 -0.0295 -0.1241 -0.1396
24669W        W31269   8.148   6.351  36.107  0.1537  0.0271  0.0369
24670W        W31270  11.350   5.191  36.028 -0.0662 -0.1789  0.2555
24671W        W31271   1.842   1.980   0.408  0.2134  0.0923 -0.0831
24672W        W31272  24.808   3.019   5.052 -0.2425  0.2281 -0.1855
24673W        W31273  21.585   2.078  23.313  0.1445  0.0929  0.0108
24674W        W31274   7.374   6.275  35.542 -0.2830 -0.0024 -0.2138
24675W        W31275   2.141   5.528  24.426  0.0617  0.2157  0.2649
24676W        W31276  17.569   5.355  35.866 -0.0932 -0.1591  0.0019
24677W        W31277  13.978   3.019  10.588 -0.0131 -0.0127  0.1425
24678W        W31278  18.458   1.276  10.110 -0.3611  0.1161 -0.0058
24679W        W31279  12.465   6.300   6.806  0.1035 -0.0397 -0.0877
24680W        W31280  10.802   0.835   8.813 -0.2979 -0.3533 -0.1531
24681W        W31281   5.920   6.246  26.940  0.2090 -0.2505  0.1215
24682W        W31282   8.138   6.132  24.125 -0.2726 -0.0813 -0.3766
24683W        W31283   4.245   4.604   0.823 -0.1751  0.1455 -0.2705
24684W        W31284  25.509   2.440  31.537 -0.3762 -0.2932  0.1516
24685W        W31285  18.028   5.866  34.645 -0.1364 -0.2712 -0.1419
24686W        W31286  19.633   6.352   6.765 -0.0794  0.0232  0.1274
24687W        W31287  13.217   6.307  10.690  0.4276 -0.3005 -0.1628
24688W        W31288   3.320   2.350  22.951 -0.0013 -0.1544  0.0507
24689W        W31289  14.706   3.410  22.525 -0.0404  0.3043  0.0781
24690W        W31290   0.315   5.003   7.955 -0.1879  0.0594  0.0160
24691W        W31291   5.214   3.340   1.597  0.0316 -0.0919 -0.0319
24692W        W31292   9.287   6.542   4.754 -0.0884  0.1891 -0.1059
24693W        W31293  18.580   2.967   4.070 -0.0471 -0.3813  0.0069
24694W        W31294  11.305   2.184  12.303  0.1536  0.0725  0.1907
24695W        W31295  16.712   5.321  28.985 -0.1236  0.0878  0.0840
24696W        W31296   4.961   5.136  11.541 -0.0894 -0.0718  0.2308
24697W        W31297   6.414   3.855  21.609  0.1252 -0.0785 -0.2423
24698W        W31298  19.626   1.268  22.494 -0.0125  0.0407 -0.1004
24699W        W31299  22.262   2.908  25.274 -0.4491 -0.2447 -0.0403
24700W        W31300  19.169   6.273  32.459  0.1997 -0.2811 -0.2438
24701W        W31301  24.837   1.113  25.438  0.0236  0.1407  0.0275
24702W        W31302   5.279   5.438  35.958  0.3318 -0.0510  0.3292
24703W        W31303  13.204   4.015  28.219 -0.0364 -0.2662  0.2728
24704W        W31304  13.691   2.853   1.248 -0.0500 -0.2740  0.0563
24705W        W31305   7.320   1.520  33.678  0.0675  0.1601  0.0354
24706W        W31306  16.692   0.308   5.932  0.1097  0.1405  0.1959
24707W        W31307  24.226   6.105  35.341 -0.2274 -0.0765 -0.1162
24708W        W31308  14.289   1.633  27.086 -0.3426  0.0080 -0.0923
24709W        W31309   5.954   3.279   6.540  0.1504 -0.0416  0.0836
24710W        W31310  17.829   4.924   1.167  0.0160  0.2213  0.3796
24711W        W31311  11.171   5.861   9.646 -0.4094  0.1641  0.0714
24712W        W31312   4.606   0.775  31.832  0.2698 -0.0209  0.1851
24713W        W31313  10.658   0.575  21.729  0.2637  0.0020 -0.2270
24714W        W31314   4.128   1.912   2.282  0.1341 -0.0030  0.1474
24715W        W31315  23.573   0.486  31.668  0.1191  0.2019  0.1274
24716W        W31316  24.248   1.009   8.025  0.1230  0.2011 -0.1710
24717W        W31317  11.034   1.052  13.939  0.3675 -0.1055 -0.0981
24718W        W31318   9.060   2.387  25.903  0.2801  0.1911  0.0414
24719W        W31319   0.318   1.868  35.505 -0.1011  0.1793  0.3330
24720W        W31320  20.910   3.483  14.205 -0.0568 -0.1317  0.1415
24721W        W31321  20.725   2.950  21.509 -0.4733 -0.0517  0.2486
24722W        W31322   5.106   2.750  12.123 -0.0734  0.4304  0.3855
24723W        W31323  19.432   4.325  11.989 -0.0137  0.0654  0.2041
24724W        W31324  24.125   1.413  11.342 -0.1288  0.3462 -0.0961
24725W        W31325  10.375   4.146  28.557 -0.1893 -0.1219 -0.1979
24726W        W31326  25.962   6.470   6.932 -0.2265  0.1641 -0.1465
24727W        W31327   6.160   6.238  34.675 -0.2507 -0.1980  0.0812
24728W        W31328  19.725   3.710  35.657 -0.2325 -0.0220  0.0731
24729W        W31329  23.089   5.109   7.248 -0.3445 -0.0013  0.0847
24730W        W31330  16.649   6.083   6.741 -0.0849 -0.1062 -0.2769
24731W        W31331  15.103   2.595   0.480  0.1524  0.1269 -0.0427
24732W        W31332  11.726   3.349   3.779  0.0086 -0.0415  0.1398
24733W        W31333   6.658   5.048  30.603  0.2504  0.0808  0.1400
24734W        W31334  12.864   4.990   6.059  0.0445 -0.1606  0.2895
24735W        W31335   3.997   2.990   1.083 -0.0691 -0.0973  0.2039
24736W        W31336  11.784   5.692  24.297  0.0731  0.0851  0.1451
24737W        W31337   3.185   1.440  13.967 -0.0461  0.2233 -0.4476
24738W        W31338  13.114   6.146  34.456 -0.0562 -0.3225 -0.0244
24739W        W31339  14.121   1.417   7.481 -0.1649  0.2466 -0.0754
24740W        W31340  25.985   3.144  24.816 -0.1046 -0.2478 -0.1522
24741W        W31341  12.304   3.849   5.852 -0.1021  0.3735 -0.0408
24742W        W31342  23.184   5.567  28.049 -0.0069  0.1440 -0.0923
24743W        W31343   4.305   0.918  13.858  0.0639 -0.0109  0.0916
24744W        W31344  22.160   5.170   2.983  0.1118 -0.5069 -0.0563
24745W        W31345  25.868   5.780  22.384 -0.1399  0.0948 -0.2540
24746W        W31346  18.260   4.670  32.221 -0.2126  0.1753  0.1201
24747W        W31347  21.637   5.287  34.301 -0.2132  0.0636 -0.0831
24748W        W31348   9.873   5.240  30.997 -0.2415 -0.1926  0.0359
24749W        W31349   5.230   3.639  24.270  0.2508  0.1729  0.1099
24750W        W31350  19.727   2.847  24.118  0.1341  0.2742  0.0714
24751W        W31351  14.631   2.351  33.368  0.0421  0.0131  0.2044
24752W        W31352   4.489   5.693  14.482 -0.3418  0.0720  0.1987
24753W        W31353   2.897   4.924   7.173 -0.1345  0.4064 -0.0511
24754W        W31354  20.171   5.041  29.458 -0.1748 -0.0203 -0.1123
24755W        W31355   4.284   2.362  14.714  0.0779  0.0154  0.1070
24756W        W31356   2.323   2.281   3.026 -0.3781  0.0793 -0.0635
24757W        W31357  16.968   5.300   7.946 -0.1221  0.0911 -0.1268
24758W        W31358   1.193   1.329  21.180  0.2239  0.1997 -0.1406
24759W        W31359  10.370   3.383   5.380 -0.1276 -0.3589  0.0375
24760W        W31360  20.406   6.293  11.006  0.0456 -0.1184  0.0864
24761W        W31361   3.503   3.053  13.476 -0.1183  0.1000  0.3240
24762W        W31362   2.828   0.651  29.133  0.1321 -0.1629 -0.0369
24763W        W31363  25.722   0.591  10.268  0.3621 -0.1636  0.0078
24764W        W31364  25.151   1.386   9.422 -0.1302  0.0338 -0.0090
24765W        W31365  17.994   2.234  34.960 -0.1460  0.3882  0.0676
24766W        W31366  20.698   5.496  29.383 -0.4187  0.2076  0.2861
24767W        W31367  14.741   0.092   9.749  0.2393 -0.0318  0.1880
24768W        W31368  24.289   6.021  24.089  0.1743  0.2652  0.2557
24769W        W31369  26.251   3.474   7.453  0.0122  0.0456  0.1754
24770W        W31370  19.562   0.678  26.373 -0.2137  0.0159  0.0903
24771W        W31371  18.921   0.194  28.200 -0.0171 -0.0521 -0.0352
24772W        W31372  13.056   3.404   6.103 -0.0893  0.2788 -0.3052
24773W        W31373   3.691   3.051  32.594 -0.2498  0.0413  0.0318
24774W        W31374   1.345   0.261  31.718 -0.2360 -0.0278 -0.1872
24775W        W31375  15.710   6.275   9.835  0.0373  0.1035 -0.0113
24776W        W31376   6.588   3.229  19.767  0.0675 -0.2449 -0.0356
24777W        W31377  14.233   2.302  30.458  0.2525 -0.1455  0.0147
24778W        W31378  10.866   6.302  23.420 -0.3426  0.1847 -0.0370
24779W        W31379  11.431   3.296   8.330 -0.0735  0.1304 -0.0878
24780W        W31380   2.257   0.843   9.575 -0.0054  0.0435  0.2295
24781W        W31381  14.928   1.932  31.992  0.1533  0.1454 -0.0570
24782W        W31382  15.791   4.785  29.888 -0.1399  0.0155  0.3862
24783W        W31383   2.118   5.222  26.061  0.2772  0.0209 -0.2474
24784W        W31384  21.659   5.104  11.594 -0.1294  0.0426 -0.0119
24785W        W31385  10.200   5.714  12.686 -0.1506  0.1915  0.0264
24786W        W31386   0.736   4.348   6.014 -0.2332 -0.0647  0.0290
24787W        W31387  21.981   5.539  21.107 -0.0733 -0.0586 -0.0538
24788W        W31388   8.642   6.281  25.437  0.2265  0.0779  0.1462
24789W        W31389   7.659   1.697  29.926 -0.0103  0.1599 -0.0745
24790W        W31390   0.546   0.712   2.130  0.2007 -0.2133 -0.0762
24791W        W31391  18.185   1.067  22.391 -0.0624  0.3599  0.2413
24792W        W31392  24.287   1.599  34.322 -0.0086  0.0306  0.0414
24793W        W31393   5.059   1.777   6.965 -0.0094  0.0568  0.1950
24794W        W31394   5.334   0.140  28.455 -0.1346  0.2604 -0.2840
24795W        W31395  13.753   6.101  11.200  0.3738  0.1138  0.1556
24796W        W31396  22.133   5.447  33.689  0.1474  0.1220  0.0447
24797W        W31397  11.493   5.070  31.693  0.1084  0.0682 -0.1962
24798W        W31398   3.586   3.466   0.480  0.1621 -0.2257  0.1404
24799W        W31399   9.290   1.436  13.376  0.1737  0.0797  0.0983
24800W        W31400   4.861   6.232  30.662 -0.2180 -0.1076  0.2454
24801W        W31401  19.322   0.798   4.858  0.1529  0.1786 -0.0229
24802W        W31402  14.218   3.828   2.584  0.3135 -0.0608  0.1712
24803W        W31403   6.124   2.934  27.346  0.1365  0.2319 -0.1446
24804W        W31404   4.593   3.793  32.842 -0.0699  0.1810 -0.0120
24805W        W31405  20.928   1.555  28.704  0.3452  0.3122  0.0896
24806W        W31406   5.125   3.715   5.791 -0.0278  0.3395 -0.0277
24807W        W31407  13.820   4.774  31.915  0.2577 -0.1037 -0.3228
24808W        W31408   7.758   2.134  12.404 -0.0424 -0.1971 -0.2194
24809W        W31409  11.265   4.629  15.053 -0.0611  0.3681 -0.3409
24810W        W31410  17.019   0.903  23.988 -0.0876 -0.0095  0.1848
24811W        W31411   8.066   5.132  22.320  0.0411  0.1104  0.3174
24812W        W31412   5.177   5.929   2.996 -0.0711  0.1581 -0.0447
24813W        W31413   1.056   2.681  16.063  0.0564  0.2100 -0.3566
24814W        W31414  25.953   2.420  14.677  0.2271 -0.0941  0.0454
24815W        W31415  14.437   3.014   3.513 -0.2985 -0.1969 -0.1083
24816W        W31416   5.625   3.144  12.009  0.0437 -0.3323 -0.1587
24817W        W31417   4.354   2.192  23.473 -0.1338 -0.2896  0.0116
24818W        W31418  14.091   0.269  21.456  0.2914 -0.2087 -0.0491
24819W        W31419   3.845   2.505  22.512 -0.0368  0.2673  0.0565
24820W        W31420  26.020   1.278  26.522 -0.2690 -0.3034 -0.1419
24821W        W31421  13.087   5.564   1.085  0.0604  0.1484  0.1562
24822W        W31422  19.093   5.743   4.208  0.2006 -0.0650  0.0856
24823W        W31423   5.819   5.087   9.713  0.2574  0.1349 -0.0523
24824W        W31424  22.009   1.861  22.689 -0.0196  0.0383 -0.2647
24825W        W31425   1.523   5.239  29.105 -0.1528  0.2822 -0.2560
24826W        W31426   0.394   4.125  10.233 -0.0231  0.0747 -0.0261
24827W        W31427   9.501   2.419  33.296  0.0194 -0.0389 -0.2070
24828W        W31428  14.222   6.146  26.331 -0.1181  0.0360 -0.1350
24829W        W31429  14.285   1.070  25.836 -0.2630 -0.1546  0.3198
24830W        W31430   4.179   2.593  28.457  0.0283  0.2905  0.2526
24831W        W31431   3.886   1.877   6.846 -0.2196 -0.3115  0.1133
24832W        W31432  15.796   5.817  13.937 -0.2163  0.0054 -0.1292
24833W        W31433   9.823   0.040  25.742  0.1180 -0.3026  0.0199
24834W        W31434  12.038   2.579   3.091 -0.0274  0.1530 -0.2568
24835W        W31435   9.258   1.297   9.445  0.3889 -0.1781  0.0744
24836W        W31436   4.573   5.871  10.104  0.2793 -0.0669  0.0704
24837W        W31437  12.815   0.974   7.095  0.2701 -0.1175  0.0522
24838W        W31438  11.781   4.075   5.311  0.2373  0.2091  0.0478
24839W        W31439  21.718   2.732  23.703  0.0254  0.6080  0.3332
24840W        W31440  21.026   3.303  25.297  0.0433  0.0667  0.1335
24841W        W31441  24.312   5.995  24.598  0.3878  0.0250 -0.0853
24842W        W31442   2.213   5.102   9.543  0.0015  0.1449  0.0367
24843W        W31443   5.905   3.963  23.658  0.0489 -0.0543  0.0976
24844W        W31444  11.193   2.593  28.889 -0.1776 -0.0902 -0.1024
24845W        W31445   7.057   4.577  10.588  0.1556  0.2121  0.0777
24846W        W31446  12.655   2.690  33.182  0.0161  0.3474  0.0271
24847W        W31447  24.566   5.647  26.043  0.0504  0.0616  0.0133
24848W        W31448  21.953   1.886  10.520 -0.0453  0.0501  0.1283
24849W        W31449  14.209   0.480  24.655  0.5588 -0.0121 -0.1176
24850W        W31450   5.139   5.102   5.706  0.0420 -0.1843 -0.2372
24851W        W31451  19.095   4.240  26.058  0.3643 -0.1588 -0.2947
24852W        W31452  22.771   2.397   3.910 -0.1683 -0.2058 -0.1408
24853W        W31453  14.384   5.927   1.844  0.0712 -0.2315  0.2396
24854W        W31454  16.977   4.714  24.764 -0.2413 -0.0513 -0.1781
24855W        W31455  21.890   2.580   2.727  0.1626  0.1288 -0.0240
24856W        W31456  18.922   3.201  34.780 -0.0820  0.2647 -0.2451
24857W        W31457  26.107   3.572  36.170 -0.0469  0.1480  0.0064
24858W        W31458  25.721   2.546   8.570  0.0347  0.1074  0.2173
24859W        W31459  22.261   4.660  13.632  0.3582  0.0169 -0.1638
24860W        W31460  24.966   4.442  25.941  0.1287  0.2523  0.2439
24861W        W31461  25.243   6.045  24.403  0.0857 -0.3862  0.2991
24862W        W31462  12.531   0.247   9.710  0.1570  0.1058  0.2804
24863W        W31463  25.021   3.994  35.379 -0.0413  0.1273  0.2557
24864W        W31464   9.362   5.315  30.959 -0.1830  0.1139 -0.1617
24865W        W31465  12.265   5.385   5.348  0.0502 -0.0277 -0.1650
24866W        W31466  21.183   1.052  36.035 -0.0911 -0.0072  0.2036
24867W        W31467  11.179   4.598  32.631  0.0479 -0.1325 -0.1381
24868W        W31468  25.846   1.816   4.538  0.2487 -0.2119  0.1452
24869W        W31469   1.240   0.336  34.338  0.1404 -0.2513 -0.0033
24870W        W31470  26.321   1.077  22.670 -0.2447 -0.1366 -0.1354
24871W        W31471  11.982   6.182  24.516 -0.0009  0.0063  0.1724
24872W        W31472  18.533   6.290   5.208  0.0532  0.0817 -0.0259
24873W        W31473   7.832   1.592  11.549 -0.1076 -0.0245  0.0877
24874W        W31474   3.346   0.865  12.099  0.1040  0.1279 -0.0808
24875W        W31475   7.091   2.150  22.970  0.0937  0.2125  0.0290
24876W        W31476   4.708   6.144   9.159 -0.1430 -0.1066 -0.0949
24877W        W31477  20.628   3.300  31.532  0.0751 -0.1737  0.1305
24878W        W31478   6.169   1.165  10.536 -0.2607  0.2330  0.3109
24879W        W31479   5.669   2.837  25.705 -0.2726 -0.2737 -0.1807
24880W        W31480   8.156   4.745  10.936 -0.3546  0.0219 -0.0017
24881W        W31481  18.815   0.088  26.793  0.0681  0.0558  0.0809
24882W        W31482  16.264   1.724  12.853 -0.1541 -0.2248  0.4151
24883W        W31483   0.248   4.362  20.337  0.1300 -0.2173 -0.1147
24884W        W31484  23.732   4.820  25.274  0.1185 -0.3120  0.3494
24885W        W31485  20.457   2.003   9.593 -0.3450 -0.2590 -0.2726
24886W        W31486  13.567   0.323  24.139 -0.1849 -0.2450  0.1107
24887W        W31487  20.404   1.027  22.131  0.1252 -0.0524  0.0273
24888W        W31488   0.813   5.222  22.360  0.3363 -0.0869  0.1830
24889W        W31489   7.310   1.244  10.857  0.1182  0.3947 -0.4016
24890W        W31490  23.803   6.059  25.433  0.0334 -0.2672  0.3344
24891W        W31491  17.321   5.133   2.478  0.3538  0.3344  0.0424
24892W        W31492   2.579   4.157   7.530  0.1960 -0.0066  0.4162
24893W        W31493   1.773   1.774   7.779 -0.2221 -0.0607 -0.1708
24894W        W31494  19.193   2.647   9.678 -0.0245 -0.3223 -0.2065
24895W        W31495  17.655   1.154  23.189 -0.3713 -0.0729 -0.0929
24896W        W31496  14.113   0.380  14.054 -0.0465 -0.0259  0.1485
24897W        W31497   1.272   5.785  32.512  0.3471 -0.0673 -0.2183
24898W        W31498  24.520   4.791  14.626  0.1170  0.1262  0.4338
24899W        W31499   0.713   0.023   0.936  0.0413  0.0777 -0.0201
24900W        W31500   6.858   1.347  29.849  0.2080 -0.0022 -0.0906
24901W        W31501  24.653   3.333  23.863 -0.5668  0.0207  0.0843
24902W        W31502   4.845   3.063  35.948  0.0086 -0.0134 -0.0912
24903W        W31503   7.484   3.389  11.825 -0.1684  0.1534 -0.1944
24904W        W31504   5.989   5.453  23.767 -0.0292 -0.1171 -0.0392
24905W        W31505  14.747   3.618   7.663  0.0603 -0.2071 -0.2956
24906W        W31506   0.039   1.554  22.624 -0.1952  0.1152  0.2300
24907W        W31507  13.397   6.178  30.885  0.3748 -0.0409 -0.3743
24908W        W31508   0.435   2.933  14.080 -0.1262 -0.1693 -0.0903
24909W        W31509  18.759   3.962   1.532  0.0930 -0.1930  0.2879
24910W        W31510   6.936   3.338  26.133 -0.0954  0.2123 -0.1954
24911W        W31511  10.259   0.163  15.082 -0.0006 -0.1704  0.1404
24912W        W31512  14.845   4.844  13.006  0.0857 -0.2787 -0.1623
24913W        W31513   4.806   3.970  22.012  0.4357 -0.1604 -0.1562
24914W        W31514  15.168   4.853  27.586  0.4019  0.4189 -0.1314
24915W        W31515  25.913   0.492  33.118  0.2691 -0.0528  0.3974
24916W        W31516  17.502   4.637  31.554  0.1702 -0.2253 -0.0453
24917W        W31517   3.436   6.438  25.946 -0.3425 -0.2918 -0.1276
24918W        W31518  23.481   4.272   4.297  0.0576  0.2639 -0.3249
24919W        W31519  12.855   6.233   3.024  0.4097 -0.1017 -0.2015
24920W        W31520  19.139   5.806   8.326 -0.1576  0.1650 -0.1552
24921W        W31521   6.063   0.117  27.018  0.2821  0.4386  0.0795
24922W        W31522  10.077   1.892  28.835  0.0089 -0.0250 -0.0491
24923W        W31523  18.736   1.680  22.474 -0.4935 -0.0554 -0.0506
24924W        W31524  16.675   6.391   7.774 -0.1886 -0.2989  0.2919
24925W        W31525  13.062   5.137  34.415 -0.1936 -0.1630  0.0001
24926W        W31526  10.409   1.500   9.843  0.0494 -0.1087  0.0117
24927W        W31527   6.833   1.951   9.622  0.1554 -0.0343  0.2308
24928W        W31528  11.375   3.013  21.454  0.2151  0.1413  0.1144
24929W        W31529  20.412   0.745  25.544 -0.1999  0.3025 -0.2500
24930W        W31530  18.944   1.146  21.793  0.0863 -0.0365  0.1490
24931W        W31531  22.098   5.915  24.325  0.1715 -0.0003 -0.0053
24932W        W31532  24.414   5.229   8.101  0.3460 -0.0891 -0.0132
24933W        W31533  19.487   5.979  14.231 -0.1535  0.1800 -0.1773
24934W        W31534   7.743   6.091  28.227 -0.0688 -0.0484  0.0720
24935W        W31535   6.433   6.294  24.743  0.1671  0.1251 -0.1292
24936W        W31536  20.332   0.244  34.404 -0.0688 -0.0824 -0.0089
24937W        W31537  18.490   2.633  29.066  0.1502  0.1181  0.1831
24938W        W31538   2.411   5.690  30.365  0.2724  0.2087  0.1582
24939W        W31539  20.848   2.110  21.020  0.0216 -0.4642 -0.1081
24940W        W31540  25.506   3.948  32.716  0.0295  0.1323 -0.0950
24941W        W31541  23.692   0.419   3.384  0.1029  0.0506 -0.3660
24942W        W31542   6.944   5.219  34.382  0.0394 -0.1144  0.1500
24943W        W31543  16.353   1.344  23.145 -0.0386 -0.1645  0.2128
24944W        W31544  22.946   3.982  24.314  0.1806  0.0155  0.1242
24945W        W31545  20.583   2.973  29.246  0.1301 -0.0677 -0.1148
24946W        W31546  24.776   0.304  33.106 -0.1795 -0.1183  0.2800
24947W        W31547  10.220   4.958  32.789  0.2377  0.0062 -0.1193
24948W        W31548  17.688   5.787  29.705 -0.0095  0.1258 -0.0092
24949W        W31549   7.159   6.571  24.642 -0.1616  0.2913  0.0454
24950W        W31550   1.424   2.577  12.676  0.3683  0.2400 -0.1212
24951W        W31551   3.202   5.171  36.001 -0.1593 -0.2134  0.0191
24952W        W31552   2.078   1.518   4.507  0.1481  0.0036 -0.1709
24953W        W31553  22.476   3.210   1.382  0.0138 -0.0822 -0.1500
24954W        W31554  10.711   3.956   8.143  0.0085  0.0374  0.2017
24955W        W31555   3.411   0.896   5.818 -0.2946 -0.0171  0.2600
24956W        W31556  14.328   6.485   0.615 -0.1019  0.2133 -0.0208
24957W        W31557  21.670   2.261  31.314  0.0238  0.0179 -0.1823
24958W        W31558  10.010   4.636   0.645  0.0490 -0.1865 -0.0905
24959W        W31559  21.033   2.899  32.174 -0.0076  0.0988  0.2689
24960W        W31560  17.137   0.094   8.530 -0.2249  0.2498 -0.0169
24961W        W31561  10.267   3.358  14.521 -0.3457 -0.1316 -0.1229
24962W        W31562  23.034   1.281  35.063 -0.1982 -0.0101  0.2068
24963W        W31563  19.584   2.750  26.884 -0.1240  0.0055  0.3037
24964W        W31564  16.937   2.972  35.629 -0.2731  0.2270  0.0346
24965W        W31565   3.388   4.607  15.191 -0.1382 -0.2453  0.3730
24966W        W31566  14.383   0.929  11.351 -0.1794  0.2721  0.0747
24967W        W31567  20.654   5.870  32.859  0.3241 -0.1239  0.0558
24968W        W31568  22.466   0.498  25.510 -0.3405  0.0684  0.1670
24969W        W31569   5.186   4.024  33.592 -0.5454  0.2694 -0.1734
24970W        W31570   7.845   2.235  28.422 -0.0227  0.1284  0.0810
24971W        W31571  18.047   2.529  21.742 -0.2736 -0.0095 -0.1264
24972W        W31572  25.705   5.421  32.492  0.2565 -0.0277  0.0289
24973W        W31573   5.209   6.108   9.349 -0.2372  0.2468 -0.0938
24974W        W31574  13.207   4.056  29.111  0.0900 -0.2381  0.0238
24975W        W31575  21.561   3.907   9.444  0.0874  0.1450 -0.1626
24976W        W31576  19.702   6.344  34.093  0.0076  0.0767 -0.0850
24977W        W31577  19.338   5.076   4.543 -0.3265  0.1243  0.0827
24978W        W31578   6.718   5.358   7.304 -0.1939  0.0589 -0.1592
24979W        W31579   8.558   5.928   8.943 -0.1236  0.1122  0.2268
24980W        W31580   4.866   5.201  25.894  0.4007  0.2194  0.1502
24981W        W31581   8.199   1.912  25.875 -0.4159 -0.0396  0.1501
24982W        W31582   5.351   0.172  15.568 -0.5557 -0.1055  0.0642
24983W        W31583  20.477   3.945  23.729  0.4099  0.2593 -0.2069
24984W        W31584  24.690   3.609  34.520 -0.2062  0.0346  0.3724
24985W        W31585  24.922   4.596  31.172 -0.1479 -0.2169 -0.1228
24986W        W31586   6.530   2.212  30.523 -0.0400  0.1589 -0.2295
24987W        W31587   9.453   1.033   8.940 -0.0003  0.1108  0.2583
24988W        W31588  11.498   3.922   4.597  0.1332  0.1792 -0.2428
24989W        W31589  25.675   4.691  32.881 -0.2666 -0.0251 -0.1612
24990W        W31590   5.443   4.416  25.957 -0.0726 -0.3001 -0.0703
24991W        W31591  21.587   1.444  28.073 -0.3659  0.2392 -0.2533
24992W        W31592  15.333   4.173  22.358 -0.0319 -0.1080 -0.0710
24993W        W31593  14.592   5.035   4.154 -0.0897 -0.0215  0.1210
24994W        W31594  19.850   0.661  21.587 -0.0238  0.1046 -0.0124
24995W        W31595  12.023   3.585   9.570 -0.0005  0.0286 -0.3443
24996W        W31596   5.859   3.806  10.707 -0.0424  0.2100  0.2521
24997W        W31597  18.644   5.461   9.042 -0.0570  0.3380  0.0439
24998W        W31598   9.158   5.190   2.506  0.1398 -0.0357  0.0898
24999W        W31599  22.284   1.252  33.256  0.4327  0.0190 -0.0310
25000W        W31600  18.655   5.369  27.518 -0.2041 -0.2333 -0.2262
25001W        W31601  15.687   4.575  31.898 -0.1702  0.2507  0.1372
25002W        W31602   0.073   6.314   2.827  0.0270 -0.2313  0.1471
25003W        W31603   0.823   5.121  33.763  0.2778 -0.2422 -0.0570
25004W        W31604  15.512   1.138  25.215  0.0983  0.0923 -0.0648
25005W        W31605   7.919   3.096  21.339  0.2475  0.0356 -0.2683
25006W        W31606  26.317   2.771  26.312 -0.0471 -0.0383  0.1430
25007W        W31607   6.248   3.753  23.973 -0.0889 -0.0618 -0.0079
25008W        W31608   3.374   6.315   1.814 -0.0001 -0.2398 -0.0696
25009W        W31609   6.820   5.114  23.218 -0.0607 -0.1006  0.0732
25010W        W31610  25.023   4.976  30.240 -0.0037  0.0537  0.1596
25011W        W31611   1.759   3.379   0.751  0.4303  0.1708 -0.0054
25012W        W31612  17.318   3.612  12.406 -0.1898 -0.0655  0.0450
25013W        W31613   1.874   6.103   0.651 -0.2819  0.1201 -0.1041
25014W        W31614  18.126   5.599  12.428  0.1103 -0.0304 -0.0185
25015W        W31615   7.239   1.334   4.127 -0.2709 -0.2265 -0.1325
25016W        W31616  25.056   4.551  30.634  0.2160  0.2670 -0.0142
25017W        W31617  10.953   2.198   9.027 -0.0847  0.0362  0.0135
25018W        W31618   8.499   4.728   8.341  0.0861  0.1092 -0.0648
25019W        W31619   0.850   3.171  32.118 -0.1958 -0.1225  0.0046
25020W        W31620   7.247   1.200  27.169  0.0737  0.0550 -0.0599
25021W        W31621   9.806   3.802   3.526  0.0386 -0.0108 -0.0310
25022W        W31622  24.687   3.599  26.509  0.3118 -0.1346  0.1020
25023W        W31623  11.267   3.138   7.021  0.1192 -0.1606 -0.0163
25024W        W31624   7.909   4.306  30.502 -0.0613  0.0777 -0.1497
25025W        W31625  25.208   2.931  27.760  0.0551 -0.0831 -0.0451
25026W        W31626   5.542   3.601   3.793  0.0809 -0.0542  0.0345
25027W        W31627  19.562   5.296  28.650 -0.1565 -0.1090  0.1343
25028W        W31628  11.009   5.697  13.316  0.1757  0.1195 -0.3061
25029W        W31629   2.543   3.977   3.055 -0.1674  0.0496 -0.2244
25030W        W31630  22.084   5.198   0.908  0.1825 -0.1085  0.1751
25031W        W31631  26.161   3.002   7.586  0.1016 -0.2407  0.1989
25032W        W31632  24.512   4.744  10.264 -0.1623  0.1886 -0.1748
25033W        W31633   4.886   5.818   1.211 -0.0921 -0.2525  0.0595
25034W        W31634   4.006   0.472   6.043 -0.0335  0.0567 -0.2588
25035W        W31635  12.298   2.847  23.765  0.3511 -0.0514 -0.2350
25036W        W31636  21.111   2.324  31.230 -0.0498  0.0397 -0.1265
25037W        W31637  24.661   1.811  27.245  0.0374  0.2772  0.1951
25038W        W31638  22.381   4.963  10.407 -0.0448 -0.0095 -0.0057
25039W        W31639   9.903   2.905  12.499 -0.0490  0.0971 -0.1411
25040W        W31640  22.957   0.565   3.363  0.1734  0.3435 -0.3076
25041W        W31641  21.074   5.561  27.533 -0.0673  0.0926 -0.0932
25042W        W31642   4.881   3.634  30.580  0.1443  0.1974 -0.0207
25043W        W31643  23.165   1.760   7.286 -0.0554  0.3030  0.0804
25044W        W31644   1.825   3.863  20.560 -0.0199 -0.2021  0.1298
25045W        W31645  17.160   1.629  24.479 -0.2168 -0.1850 -0.2178
25046W        W31646   0.993   6.106   5.974  0.1320  0.3232 -0.0849
25047W        W31647  14.589   5.884  10.866  0.1951  0.2381 -0.2598
25048W        W31648   7.560   2.889  14.168  0.1850 -0.1508  0.1383
25049W        W31649  24.436   4.540  29.181 -0.0921 -0.0199  0.1813
25050W        W31650  13.102   1.031   8.132  0.0328  0.0283  0.3026
25051W        W31651  26.156   6.316  24.728 -0.1566  0.0752 -0.0238
25052W        W31652  16.410   0.602  10.450 -0.0488  0.1066 -0.0700
25053W        W31653  23.325   5.116  10.412 -0.0260 -0.0422  0.1286
25054W        W31654  13.095   5.559  10.071 -0.1188 -0.0089  0.1387
25055W        W31655   9.816   4.586  34.677 -0.1639  0.1307  0.0145
25056W        W31656  22.699   2.995  13.005 -0.0324 -0.1185 -0.1766
25057W        W31657  14.128   0.030  36.069  0.2427  0.2174  0.0791
25058W        W31658   8.259   0.567  22.960  0.0037  0.4043  0.1995
25059W        W31659  26.169   2.671  22.002  0.1201 -0.0085  0.0150
25060W        W31660   4.098   1.600  35.966  0.0997  0.0075 -0.2287
25061W        W31661  19.316   1.070  29.826 -0.2887 -0.0052  0.0955
25062W        W31662  18.644   1.013  36.144 -0.0853  0.0735 -0.1225
25063W        W31663  16.463   1.450  31.616  0.3435  0.0818 -0.0679
25064W        W31664   5.249   3.637  33.966 -0.1396 -0.0187 -0.0911
25065W        W31665  24.285   1.631  28.982  0.1676 -0.1544 -0.4434
25066W        W31666  25.572   5.472  13.286  0.0702  0.1328 -0.1256
25067W        W31667  25.801   5.131  10.356  0.1574 -0.0108  0.1431
25068W        W31668  25.548   1.969  14.679 -0.0269  0.0528 -0.1007
25069W        W31669   0.796   4.282  23.991 -0.0244  0.1419 -0.0995
25070W        W31670   4.270   6.099  31.828 -0.0319  0.0548  0.0559
25071W        W31671  23.478   6.445   4.299  0.0209  0.0042 -0.2229
25072W        W31672  15.264   6.571   7.206  0.0816  0.0622  0.1156
25073W        W31673   2.562   4.092  24.576 -0.1165  0.2829 -0.0766
25074W        W31674  16.748   6.506  29.466 -0.2079  0.0605 -0.0562
25075W        W31675  21.776   3.235  23.823 -0.1997  0.0641 -0.2268
25076W        W31676  16.963   1.696   7.108  0.1791 -0.1760  0.2059
25077W        W31677  13.409   3.391   3.468  0.0275  0.0175 -0.1846
25078W        W31678  11.649   4.964  13.773  0.2268 -0.0462 -0.2224
25079W        W31679  16.565   5.533   1.242  0.0752  0.0071  0.0362
25080W        W31680  13.276   2.387   7.240  0.2170 -0.0429  0.1128
25081W        W31681  15.880   5.921   7.049  0.0569 -0.2254  0.3266
25082W        W31682  24.303   6.087  33.250  0.0753 -0.0274  0.0251
25083W        W31683   0.191   6.046   1.887  0.0768 -0.2195 -0.0415
25084W        W31684  16.200   0.923  23.401  0.1060  0.0550 -0.1937
25085W        W31685  21.465   3.443   9.211  0.1330  0.1202 -0.1004
25086W        W31686   4.774   4.222   9.124 -0.0184  0.2583  0.0076
25087W        W31687   6.034   2.747   3.460 -0.0506 -0.1101 -0.1151
25088W        W31688   7.628   0.849  22.611 -0.0427 -0.0775 -0.0806
25089W        W31689  19.611   1.793  21.558 -0.0150  0.5125 -0.1213
25090W        W31690  21.332   6.546  29.264 -0.0306 -0.2033  0.1687
25091W        W31691  10.544   5.685  11.909  0.1802  0.0848 -0.2619
25092W        W31692   9.965   1.718  15.717  0.0015 -0.2197  0.0868
25093W        W31693   5.476   4.408  30.398 -0.1363  0.0989  0.1350
25094W        W31694   2.026   0.359  24.006 -0.1852  0.1176  0.0167
25095W        W31695  22.166   1.419  25.634  0.0636 -0.2353  0.2503
25096W        W31696   8.140   2.370  35.433 -0.0205  0.1867 -0.2379
25097W        W31697  18.016   4.414   6.484  0.1191 -0.0005 -0.0713
25098W        W31698   6.954   0.962  24.259 -0.2288  0.1699  0.0258
25099W        W31699  11.582   3.582  33.736  0.0395  0.3379 -0.1734
25100W        W31700  18.951   0.507  12.549 -0.0333  0.0686  0.0105
25101W        W31701   4.787   1.381  10.421  0.1417  0.1197  0.1379
25102W        W31702  11.617   0.179  22.995 -0.0984  0.0319 -0.1643
25103W        W31703  14.672   5.650  11.623 -0.0922 -0.1180  0.0380
25104W        W31704  14.555   0.177  31.164 -0.0382  0.0409 -0.1330
25105W        W31705  23.774   2.692  31.509 -0.0965  0.0916 -0.1480
25106W        W31706  13.804   1.389   3.169  0.0167  0.1666 -0.0590
25107W        W31707   7.884   3.308  30.780 -0.0509  0.2064 -0.0097
25108W        W31708  11.917   1.118   2.787  0.0788 -0.1843  0.1487
25109W        W31709  18.316   0.100   8.805 -0.1183 -0.0330 -0.1684
25110W        W31710   3.884   6.164   8.914 -0.1003 -0.0890  0.1703
25111W        W31711   5.637   6.504   7.413  0.1098  0.0613  0.0877
25112W        W31712  24.646   1.709  35.640 -0.2071 -0.0355 -0.3285
25113W        W31713   0.921   4.447  25.019 -0.1664  0.0964  0.1661
25114W        W31714  11.159   0.822  26.950 -0.2430 -0.0044  0.0907
25115W        W31715  17.252   3.794  31.486 -0.2130 -0.0886 -0.0533
25116W        W31716  10.294   1.013  10.739 -0.1957  0.1776  0.1337
25117W        W31717  16.674   5.324  23.453  0.1095  0.0255  0.2282
25118W        W31718  23.308   2.677  31.742 -0.0216  0.1395 -0.0018
25119W        W31719   7.088   5.051  13.561  0.1781  0.1769  0.1480
25120W        W31720   5.989   3.142   0.597 -0.2652 -0.0542  0.0720
25121W        W31721  14.281   5.356  10.834  0.0292 -0.0857  0.2335
25122W        W31722  16.696   2.305  12.527 -0.1874 -0.4229  0.0972
25123W        W31723   9.375   6.017  27.710 -0.2420 -0.0874 -0.2711
25124W        W31724  24.629   2.621  33.935  0.0606  0.0172  0.0096
25125W        W31725  21.035   1.899  32.973 -0.1656 -0.0691  0.1188
25126W        W31726  25.941   5.397   4.374 -0.1211  0.1885 -0.0327
25127W        W31727  17.574   4.229  10.481 -0.1543 -0.3336 -0.1795
25128W        W31728  10.893   2.278   6.138 -0.2920  0.0086  0.1874
25129W        W31729   9.969   1.514  26.898  0.3255 -0.0144 -0.0879
25130W        W31730   1.925   6.217  29.124  0.1919  0.2284  0.1566
25131W        W31731   4.612   4.043   5.664 -0.2010 -0.0265  0.0597
25132W        W31732   7.144   6.446  36.095 -0.0120  0.0697  0.1381
25133W        W31733  10.332   5.479   6.575  0.2917 -0.3357 -0.0663
25134W        W31734  12.353   4.021   2.782 -0.0176 -0.1801 -0.0787
25135W        W31735   4.435   3.976  15.080 -0.0764 -0.4119  0.1350
25136W        W31736  16.270   5.374  13.163 -0.0291  0.3654  0.2036
25137W        W31737   1.048   2.582  27.270 -0.2556 -0.2070 -0.0997
25138W        W31738  14.463   6.607  14.845  0.0208  0.0851  0.3597
25139W        W31739  16.906   5.440  27.771  0.2565 -0.1870 -0.2495
25140W        W31740   8.602   4.976  12.511  0.0395 -0.0632 -0.1908
25141W        W31741  25.619   0.797  26.992  0.1310  0.0864 -0.2378
25142W        W31742   5.445   2.584  14.964  0.1697 -0.1741  0.0710
25143W        W31743   1.296   5.889  33.593  0.1481  0.0218 -0.0629
25144W        W31744   5.452   5.633  10.368  0.0850  0.0012 -0.0047
25145W        W31745  10.487   4.760  22.560 -0.3482  0.2027  0.1021
25146W        W31746  11.986   5.404  32.719 -0.1128  0.1562  0.0236
25147W        W31747  20.959   2.053   5.600  0.3629  0.0387  0.3196
25148W        W31748  17.584   5.351   4.913  0.0529 -0.0824  0.2350
25149W        W31749  11.598   1.656  10.276 -0.1404 -0.0685  0.0703
25150W        W31750   7.807   3.668  11.539  0.1228 -0.0411 -0.0740
25151W        W31751  10.444   0.675  25.154  0.0539  0.1180  0.1709
25152W        W31752   1.044   5.771  23.752 -0.0932 -0.0792  0.0563
25153W        W31753  13.039   0.356   6.107 -0.0998 -0.1108  0.0486
25154W        W31754  17.078   3.350  34.450  0.0180  0.2724  0.0101
25155W        W31755  10.799   5.011  28.916 -0.0035  0.1035  0.0640
25156W        W31756  10.457   1.700  10.415  0.3097 -0.0089  0.2783
25157W        W31757  14.597   3.000   1.677 -0.1629  0.0057 -0.1031
25158W        W31758  18.945   5.306  32.256 -0.1732 -0.1549  0.1865
25159W        W31759  24.720   5.099  29.875 -0.0557  0.1111  0.0584
25160W        W31760  11.971   2.521  24.498 -0.0922 -0.1353 -0.1293
25161W        W31761  16.216   5.029  13.522  0.3956  0.1953  0.1459
25162W        W31762  24.525   5.399   3.236 -0.1453  0.3862 -0.0075
25163W        W31763   7.542   5.906  12.053 -0.2095 -0.3368 -0.1263
25164W        W31764   4.214   0.158   2.459  0.2450 -0.0766  0.3534
25165W        W31765  12.624   4.840   2.711  0.2933 -0.0107 -0.0392
25166W        W31766   1.849   5.650  33.556  0.1804 -0.0596 -0.0202
25167W        W31767   2.966   3.417  34.457 -0.0190 -0.0321 -0.1427
25168W        W31768   0.614   1.159  36.108 -0.0166  0.1028 -0.5876
25169W        W31769  18.828   4.588  28.908 -0.1179  0.1050 -0.2199
25170W        W31770   9.444   3.359   8.569  0.1563  0.1869 -0.0677
25171W        W31771   3.889   2.034  33.448  0.1124  0.2666 -0.0811
25172W        W31772  10.785   4.585  30.460 -0.3045  0.0926  0.1199
25173W        W31773  22.230   1.806  14.745 -0.1091 -0.0820 -0.1200
25174W        W31774   0.410   1.312  24.216 -0.2420 -0.2979 -0.2376
25175W        W31775   7.890   2.695  22.877  0.1999 -0.0079  0.0897
25176W        W31776   6.367   6.254  31.332  0.2396  0.1050  0.1421
25177W        W31777  14.824   1.446   0.271 -0.0035  0.1932 -0.2606
25178W        W31778   3.787   1.989  13.546  0.1756  0.1597  0.0047
25179W        W31779  18.226   3.563   0.901 -0.1748  0.1961  0.0989
25180W        W31780  11.264   1.195  28.446  0.0010 -0.1177 -0.1891
25181W        W31781  15.194   0.907  23.087  0.4038 -0.1992 -0.0130
25182W        W31782  10.179   4.779  31.036 -0.0786  0.2213 -0.1088
25183W        W31783  21.108   5.784   2.387  0.0008 -0.3002  0.0249
25184W        W31784  16.006   2.795  10.347  0.1312  0.2020 -0.0590
25185W        W31785  26.286   1.907   8.000 -0.0886 -0.1229  0.0217
25186W        W31786   6.210   6.390   8.906  0.0215 -0.1678 -0.4749
25187W        W31787   3.549   2.033  20.938 -0.1595 -0.0163  0.0267
25188W        W31788  26.076   4.564  25.074  0.1538 -0.1839 -0.0987
25189W        W31789  25.785   1.443  30.584  0.1961  0.3874  0.0355
25190W        W31790   7.507   2.614  29.580 -0.0338  0.0694  0.0461
25191W        W31791  11.052   5.790   7.395  0.1628 -0.1141  0.0574
25192W        W31792  13.033   3.953  14.085 -0.0852  0.1037  0.0815
25193W        W31793  24.488   5.543  32.435 -0.0260 -0.0017  0.0702
25194W        W31794  12.746   5.147   2.192  0.1634  0.0083  0.0443
25195W        W31795  10.049   0.954  26.909 -0.0461  0.1948 -0.0960
25196W        W31796  25.365   4.944   0.486 -0.0996  0.0354 -0.0744
25197W        W31797  20.322   4.676  24.689  0.2754 -0.1480  0.0282
25198W        W31798  11.243   1.898  22.166 -0.0043  0.0997 -0.1676
25199W        W31799  25.407   1.208  32.809  0.0353 -0.0689 -0.0970
25200W        W31800  18.710   3.124   0.324 -0.3498  0.1233  0.3345
25201W        W31801  19.516   2.620  20.983 -0.0777  0.0671 -0.0582
25202W        W31802  21.660   6.590   1.630 -0.0693  0.2035  0.1480
25203W        W31803  23.679   1.055  23.501 -0.0267  0.2207 -0.0331
25204W        W31804  19.901   1.762  13.693 -0.1378 -0.3194  0.2934
25205W        W31805   2.318   4.774   3.633 -0.1529 -0.5199 -0.3200
25206W        W31806   6.945   3.518  11.819 -0.0437 -0.0556 -0.0212
25207W        W31807  23.152   0.052   0.629 -0.0922  0.0391  0.2398
25208W        W31808  22.639   4.915   0.959 -0.1127 -0.0720 -0.1847
25209W        W31809   2.149   5.334  30.079  0.0823  0.1610 -0.0698
25210W        W31810  14.989   5.779   7.373 -0.2086  0.0848  0.0680
25211W        W31811   3.062   0.567  30.105  0.2585 -0.2686 -0.1974
25212W        W31812  20.096   2.844  27.028 -0.0167 -0.1168  0.1797
25213W        W31813  14.244   5.935   9.879  0.0026 -0.0188 -0.1645
25214W        W31814  12.300   5.503  36.103  0.0679 -0.0986  0.0968
25215W        W31815  12.464   1.945  11.686 -0.3424 -0.0314  0.0520
25216W        W31816  20.603   1.053   9.296  0.2419  0.0404 -0.3932
25217W        W31817  19.667   6.259  27.396 -0.4420  0.0538 -0.1044
25218W        W31818   7.474   0.962   3.911 -0.0510 -0.3918 -0.1521
25219W        W31819  24.211   2.648  36.104 -0.1073 -0.0083  0.0766
25220W        W31820  19.046   3.380  26.080  0.0057  0.0397 -0.0345
25221W        W31821  22.355   4.236  28.157  0.0582  0.1205  0.0788
25222W        W31822   1.710   2.238  24.551  0.1329  0.1406  0.1392
25223W        W31823  19.290   1.337   9.910 -0.2899 -0.1413  0.1544
25224W        W31824   0.827   5.613  13.706  0.0478 -0.0134 -0.0643
25225W        W31825   4.877   2.137  13.993 -0.2605  0.3413 -0.1412
25226W        W31826  24.731   0.170  23.740  0.1128  0.1511  0.0301
25227W        W31827  18.763   5.310  26.860  0.1251 -0.1209  0.1196
25228W        W31828   6.310   2.369  32.875 -0.0410 -0.3271  0.0737
25229W        W31829  20.563   4.949  34.259 -0.0469  0.0588 -0.0409
25230W        W31830  16.059   2.843  26.442 -0.4304 -0.2349 -0.0343
25231W        W31831  14.128   1.974   7.425 -0.1265  0.0819  0.0171
25232W        W31832  19.522   2.206  27.618  0.0004  0.0693 -0.0343
25233W        W31833   5.171   4.939  22.298  0.2341 -0.1092 -0.0412
25234W        W31834  25.933   3.119  10.450  0.1614 -0.1341 -0.3976
25235W        W31835  14.277   3.332  26.089  0.0360 -0.1938 -0.0166
25236W        W31836   9.777   6.097   7.813  0.2128  0.1151 -0.1001
25237W        W31837  12.555   0.296  27.304  0.1563 -0.0757  0.0519
25238W        W31838  25.496   6.130  24.846  0.0717 -0.2120 -0.1753
25239W        W31839   5.079   1.202  27.357  0.1417 -0.0059 -0.1940
25240W        W31840  23.966   2.269  11.572  0.0180 -0.0265  0.1641
25241W        W31841  22.138   5.128  23.278  0.2528 -0.0929 -0.1095
25242W        W31842   6.323   5.557  22.871  0.1309  0.0384  0.3176
25243W        W31843   9.305   3.002   2.560 -0.4478  0.1507 -0.1934
25244W        W31844   4.056   4.773   5.462  0.1268 -0.0060  0.0498
25245W        W31845   4.879   4.390   0.152  0.0314 -0.1688 -0.0227
25246W        W31846  13.651   2.279   0.361 -0.0421  0.1898 -0.0967
25247W        W31847   9.389   5.830  10.485 -0.0557 -0.3972  0.5052
25248W        W31848  13.032   5.226  21.726 -0.0146 -0.0626  0.3504
25249W        W31849   1.710   1.820   3.801 -0.0861  0.1260  0.1212
25250W        W31850  19.805   2.352   3.851  0.0536  0.2558 -0.2289
25251W        W31851  16.194   5.637   9.987  0.1583 -0.0935  0.0975
25252W        W31852   7.734   4.587   3.222 -0.1279  0.1740 -0.0342
25253W        W31853  14.900   6.271  30.512  0.2437  0.0413 -0.0052
25254W        W31854   9.664   0.300  14.078  0.0733 -0.0634 -0.0568
25255W        W31855  19.420   3.805  12.430 -0.0786  0.3581 -0.1813
25256W        W31856   3.266   0.325  27.511 -0.3331  0.1933 -0.0911
25257W        W31857   1.985   0.592  10.100  0.0195  0.2145  0.1953
25258W        W31858   6.356   1.467   7.074 -0.0819  0.1704  0.1140
25259W        W31859   9.431   6.054  14.506  0.1509  0.0102 -0.0481
25260W        W31860   7.745   1.688  10.027 -0.1140  0.0269  0.2366
25261W        W31861   2.935   1.913  32.695  0.2321  0.3158 -0.2133
25262W        W31862   9.348   4.774  28.020 -0.3331  0.1643 -0.0139
25263W        W31863   4.606   3.951  30.325  0.1246  0.0123  0.0429
25264W        W31864   1.642   2.371   8.494 -0.2456  0.2789  0.2502
25265W        W31865  24.482   5.209  22.714 -0.1088  0.1126  0.2995
25266W        W31866  22.109   6.202  13.210 -0.3988  0.0910 -0.0796
25267W        W31867  13.442   1.884  28.096 -0.0914  0.0543  0.1537
25268W        W31868  11.399   6.132   3.515 -0.0438 -0.1120 -0.2652
25269W        W31869  20.106   1.957  14.876 -0.0587 -0.3675  0.2836
25270W        W31870  20.786   2.667  21.038 -0.0828  0.0658  0.0791
25271W        W31871  25.886   2.914   1.344  0.0411  0.0660  0.1144
25272W        W31872  25.812   5.887   9.595  0.0073 -0.0218 -0.0242
25273W        W31873   2.624   5.439  10.805  0.0806 -0.1344 -0.1891
25274W        W31874  22.829   1.449  13.464 -0.0292  0.0955  0.0529
25275W        W31875  11.029   1.558   5.602 -0.2103 -0.1846 -0.1494
25276W        W31876  20.895   0.658  33.895 -0.0828  0.3458 -0.1801
25277W        W31877  19.161   0.051   2.069 -0.0441  0.1605  0.1347
25278W        W31878  21.764   4.667  31.313  0.2821 -0.0770  0.1806
25279W        W31879  25.042   2.056  11.018  0.1933  0.1471 -0.0428
25280W        W31880  14.643   2.145  13.504  0.1266  0.1837 -0.0794
25281W        W31881  12.227   4.386  22.162 -0.1366 -0.1558  0.2699
25282W        W31882   6.899   6.152   3.826 -0.1917  0.2436  0.0069
25283W        W31883  13.122   4.001  13.615  0.1401 -0.0977  0.0019
25284W        W31884   9.008   4.664  26.163 -0.1949  0.2148  0.2421
25285W        W31885   6.300   5.898  15.530 -0.1546 -0.0313 -0.0362
25286W        W31886   8.895   2.657  29.372  0.0360 -0.0356  0.1719
25287W        W31887   9.647   2.100  31.087 -0.2248 -0.3464 -0.2639
25288W        W31888   1.599   4.126  27.767  0.1677 -0.1100 -0.3569
25289W        W31889   2.069   0.867  31.676 -0.1853 -0.2475  0.1697
25290W        W31890  11.342   0.706  15.031 -0.0629 -0.1064 -0.2940
25291W        W31891  20.422   0.424  33.842 -0.1433  0.1151 -0.0699
25292W        W31892   9.388   3.350  27.386  0.1499 -0.0082  0.2423
25293W        W31893  12.999   2.220  21.862 -0.1512 -0.3843  0.0735
25294W        W31894   9.637   1.549  13.066 -0.3921  0.0915  0.1005
25295W        W31895  12.736   6.490  22.520  0.1767  0.1342  0.0443
25296W        W31896  18.458   0.306  35.727 -0.1227  0.1262 -0.2063
25297W        W31897  21.349   1.891  35.287 -0.1069  0.0015 -0.3488
25298W        W31898   1.997   1.600  23.583  0.2804  0.1277 -0.1729
25299W        W31899  12.537   0.116  24.956  0.4525  0.2907 -0.1561
25300W        W31900  21.459   6.554   6.084  0.4602  0.1277 -0.3658
25301W        W31901  15.233   4.678   6.867  0.0397  0.0939 -0.1178
25302W        W31902  17.893   2.610   7.488 -0.0908 -0.1323  0.0167
25303W        W31903  26.092   6.601   9.691  0.0706 -0.0139 -0.1079
25304W        W31904   2.532   4.709  21.533 -0.1619  0.1159  0.1358
25305W        W31905   6.007   3.049  29.985  0.2124 -0.1440 -0.0787
25306W        W31906   6.954   3.858  25.132  0.1296 -0.0428 -0.0568
25307W        W31907   7.088   6.408  10.725  0.0578  0.0410  0.3039
25308W        W31908  22.257   1.448   4.722 -0.1617 -0.1150  0.0371
25309W        W31909   4.317   0.575   1.038  0.0642 -0.3822 -0.1514
25310W        W31910   6.295   5.708   4.174 -0.4364 -0.1659 -0.0053
25311W        W31911  20.027   5.806  25.405 -0.1803 -0.0724  0.0249
25312W        W31912   7.328   4.078  12.255 -0.0350  0.2835  0.2233
25313W        W31913   5.361   2.822   5.875  0.1038 -0.1165  0.2265
25314W        W31914  16.134   5.373  14.766 -0.1600 -0.3463 -0.1875
25315W        W31915  18.117   0.274   3.162  0.0244  0.0984  0.0122
25316W        W31916   1.884   4.905   2.287 -0.0681 -0.3267 -0.2649
25317W        W31917   4.930   6.174  13.391 -0.3537  0.0125  0.1494
25318W        W31918  11.063   5.255   8.171 -0.1714  0.2556  0.1261
25319W        W31919  24.074   0.960   0.562  0.0884 -0.1807  0.1306
25320W        W31920  15.920   0.090  24.742 -0.2542 -0.0225 -0.0608
25321W        W31921   7.665   1.625  33.137 -0.1210 -0.2668  0.3518
25322W        W31922  13.720   0.413   3.757 -0.2235  0.1200 -0.2275
25323W        W31923   3.500   0.118  20.690  0.1530 -0.2172 -0.0821
25324W        W31924  13.617   6.521   9.403 -0.1689  0.2131 -0.3042
25325W        W31925   2.818   1.389  31.957 -0.1837 -0.1714  0.1576
25326W        W31926  13.446   1.998   9.918 -0.1565 -0.1142  0.0805
25327W        W31927  10.497   6.303  15.684 -0.2101 -0.0014 -0.0096
25328W        W31928   7.144   2.458   8.946 -0.1385 -0.0525 -0.1606
25329W        W31929  25.412   5.379   5.121  0.0291 -0.0887  0.2601
25330W        W31930  13.315   6.447  36.025  0.2593 -0.0235  0.1066
25331W        W31931   3.550   1.694  33.463  0.2533 -0.1050 -0.0575
25332W        W31932  13.037   5.643  14.523  0.3297  0.2052  0.0892
25333W        W31933  19.910   6.570   2.605 -0.0524 -0.2342 -0.3409
25334W        W31934  21.277   3.436  22.392  0.1515  0.2816  0.0951
25335W        W31935   0.694   0.071   6.861 -0.2376 -0.2720  0.2553
25336W        W31936   3.591   0.856   5.315  0.0016  0.2329 -0.0620
25337W        W31937  11.887   2.945   2.345  0.0351  0.2982 -0.0652
25338W        W31938  10.101   6.023  32.752  0.1870  0.2326  0.2437
25339W        W31939  24.845   1.164   7.182  0.0764  0.2140  0.3170
25340W        W31940   5.505   0.253  30.180 -0.2677  0.1420 -0.0885
25341W        W31941   6.206   5.886   0.526  0.4581 -0.1215 -0.0557
25342W        W31942  21.778   4.490  20.956  0.0008  0.1831 -0.0884
25343W        W31943   0.999   6.020   7.210  0.0327  0.0566  0.3100
25344W        W31944  19.349   4.271   8.885  0.1254  0.0103  0.1798
25345W        W31945  16.536   5.975  27.421  0.0204 -0.0890  0.0632
25346W        W31946  15.941   2.583  34.846  0.0072 -0.1046 -0.2272
25347W        W31947  21.430   1.175  26.096 -0.0939  0.0987  0.0397
25348W        W31948  16.384   1.092   4.247  0.0156 -0.0441  0.1507
25349W        W31949  12.465   4.448  21.278 -0.0064  0.0151 -0.1533
25350W        W31950   0.437   3.031   2.563 -0.0669  0.0144 -0.1153
25351W        W31951   4.901   6.572  26.116  0.2441 -0.0566 -0.0815
25352W        W31952  19.026   0.397  20.968  0.2143  0.0910 -0.0920
25353W        W31953  14.695   4.879  34.795 -0.1343  0.0642 -0.1945
25354W        W31954   3.518   5.319  13.356 -0.1795  0.0679 -0.1147
25355W        W31955   1.640   2.690  24.923 -0.5335  0.0411  0.0364
25356W        W31956  12.700   1.797   7.647 -0.1339 -0.0592 -0.4746
25357W        W31957  24.141   4.864  31.557 -0.0217 -0.1670  0.0750
25358W        W31958  15.170   6.007  30.892 -0.1051  0.0872  0.0775
25359W        W31959  11.392   4.343  13.063 -0.0352  0.0323 -0.1239
25360W        W31960   6.439   6.434  22.815  0.0346 -0.0782  0.2129
25361W        W31961  14.078   6.606  31.190 -0.2439  0.1947  0.0148
25362W        W31962   3.949   2.281   1.900 -0.0931  0.2097 -0.2406
25363W        W31963  22.980   2.098  34.601 -0.0127 -0.0213  0.0839
25364W        W31964  22.029   3.497   8.656  0.3169 -0.1481 -0.0746
25365W        W31965   6.606   1.752  28.770 -0.1646  0.3474  0.0223
25366W        W31966   5.702   5.672  21.791 -0.4035  0.1107 -0.1248
25367W        W31967  10.900   6.210   8.663  0.0364  0.1858  0.0928
25368W        W31968  18.119   3.243  11.096 -0.2010 -0.1460  0.3383
25369W        W31969   9.465   4.540  35.559  0.0896 -0.2521 -0.1437
25370W        W31970  24.507   4.266   2.533  0.2781  0.0081 -0.0764
25371W        W31971  13.766   2.958   5.731  0.0911  0.1148  0.2661
25372W        W31972   5.352   0.925  30.271  0.0243  0.1588 -0.2168
25373W        W31973   5.569   2.581  21.114 -0.1467  0.0488 -0.2586
25374W        W31974  14.400   0.602   6.190  0.1436 -0.1404  0.0493
25375W        W31975  13.157   0.372  11.250  0.2088  0.2242  0.0832
25376W        W31976  11.766   2.519  29.888  0.1181 -0.2397 -0.1440
25377W        W31977  22.981   3.559   2.417  0.1206  0.1677 -0.0845
25378W        W31978  10.224   3.491  25.446 -0.0657  0.1068  0.1473
25379W        W31979  22.329   2.535   6.483  0.1916  0.2538  0.1694
25380W        W31980   8.506   2.500  24.342 -0.2256  0.1773 -0.0371
25381W        W31981  19.020   0.651  12.021  0.1461  0.5289 -0.2194
25382W        W31982   6.030   0.694  23.313  0.0664 -0.0174 -0.2003
25383W        W31983   3.069   0.141  20.413  0.1373  0.2360 -0.4751
25384W        W31984   9.420   6.143   7.392  0.0499  0.1506 -0.2459
25385W        W31985  21.437   1.655  28.628  0.0442 -0.0127 -0.1749
25386W        W31986   5.912   3.676   4.545  0.0776  0.0441 -0.0635
25387W        W31987   8.047   1.702  22.842 -0.2099  0.1161  0.1005
25388W        W31988   7.919   6.528  13.741  0.2788 -0.3615  0.1272
25389W        W31989  26.169   1.916  13.346 -0.0208 -0.2073 -0.2487
25390W        W31990   2.688   5.802  20.289  0.0616  0.0008 -0.1908
25391W        W31991  21.685   1.781  31.653 -0.1528 -0.0274  0.1092
25392W        W31992  23.880   1.067  11.081 -0.0672 -0.0062 -0.1785
25393W        W31993  11.585   0.237  34.537 -0.1726  0.0317 -0.0062
25394W        W31994   9.495   1.297  15.451  0.1235  0.4464  0.2038
25395W        W31995   8.737   3.155   7.473 -0.1110 -0.1959 -0.0610
25396W        W31996  23.509   1.865  31.768  0.1117  0.0698  0.0797
25397W        W31997  11.290   6.578  33.448 -0.0859  0.1841  0.0044
25398W        W31998  14.236   1.638  10.890 -0.1248 -0.1313 -0.0829
25399W        W31999  10.332   4.689   4.320 -0.1251  0.1334  0.0283
25400W        W32000  20.724   3.817  31.437 -0.3310  0.1492 -0.0053
25401W        W32001  13.562   1.362  28.164 -0.1927 -0.0096 -0.3842
25402W        W32002  13.623   0.252  14.960 -0.0029  0.0162  0.1026
25403W        W32003  25.393   2.838   2.694 -0.0342  0.0580 -0.0128
25404W        W32004   3.547   1.645  22.306  0.3238 -0.0334 -0.0648
25405W        W32005   2.244   3.593  34.307  0.0554 -0.0184  0.1524
25406W        W32006   7.438   3.376   8.732 -0.1535 -0.0003 -0.2401
25407W        W32007   5.464   3.001  20.762 -0.2098  0.3334 -0.1894
25408W        W32008  14.902   4.618  13.817 -0.0626 -0.3388  0.4463
25409W        W32009   2.974   2.567  10.796  0.2468  0.0414 -0.0123
25410W        W32010  16.922   2.231   5.783  0.1258 -0.2463 -0.0654
25411W        W32011  18.949   5.014  29.171 -0.0299  0.0053 -0.1234
25412W        W32012  10.289   4.336   2.088  0.1918  0.0582  0.3865
25413W        W32013  21.890   6.564  13.401 -0.0712 -0.2427  0.0800
25414W        W32014  23.695   1.946  11.314  0.1394  0.0784 -0.1942
25415W        W32015   8.555   1.347  22.659 -0.1433  0.1726 -0.1468
25416W        W32016  14.949   5.617  14.333  0.1015 -0.0110 -0.0155
25417W        W32017   4.144   2.222  12.875 -0.1855  0.2832 -0.2055
25418W        W32018   8.150   3.435   7.883 -0.0421 -0.2865  0.0347
25419W        W32019  18.668   4.010  34.165 -0.2191  0.1662  0.0404
25420W        W32020  11.487   2.658  32.801  0.1470  0.0584 -0.3263
25421W        W32021   2.155   4.440  12.876 -0.2857  0.1581 -0.0530
25422W        W32022   4.659   2.976   5.523  0.1732  0.0119 -0.0040
25423W        W32023   6.778   6.072  25.723 -0.2853 -0.1564 -0.2322
25424W        W32024  12.145   0.034   1.436 -0.1389  0.0298  0.0718
25425W        W32025   8.740   2.204   1.425 -0.1550  0.1673  0.1583
25426W        W32026  15.482   2.625  35.756  0.0284  0.0169 -0.0833
25427W        W32027  16.944   0.823  32.332  0.3092 -0.2711 -0.1166
25428W        W32028  11.076   5.554  34.818  0.3614  0.1616 -0.0985
25429W        W32029  13.810   4.704   8.497  0.0360 -0.2956 -0.0745
25430W        W32030  19.629   2.393  25.288 -0.3090  0.0223 -0.1917
25431W        W32031   0.930   0.764   9.704  0.1383 -0.1922  0.1081
25432W        W32032  22.871   0.820  34.956  0.1648  0.1883 -0.0041
25433W        W32033   2.636   0.776  22.567  0.1171  0.0355 -0.0740
25434W        W32034  12.727   4.066  33.084 -0.0635  0.0185 -0.0803
25435W        W32035  13.381   0.756   0.404  0.2696  0.3566  0.1711
25436W        W32036  20.170   2.830  32.290  0.1139  0.0300  0.0226
25437W        W32037   3.048   4.117  14.309 -0.1260  0.1231 -0.0761
25438W        W32038  25.116   5.545  33.821 -0.0529 -0.1782  0.0582
25439W        W32039  16.845   4.697  35.455  0.2192 -0.0761 -0.0341
25440W        W32040  10.759   0.944  21.087 -0.0126 -0.1071  0.2222
25441W        W32041   3.111   0.779  34.354 -0.1991  0.0202 -0.3654
25442W        W32042  18.974   5.364  29.572  0.0934  0.1456 -0.2325
25443W        W32043  21.340   0.246  14.940  0.1627  0.1002  0.0980
25444W        W32044   8.760   2.769  15.490  0.5640  0.1760 -0.2241
25445W        W32045  15.348   0.810   7.834 -0.1170 -0.3237 -0.0293
25446W        W32046   0.501   5.249   4.660 -0.3667 -0.2228 -0.2029
25447W        W32047   1.817   1.076  34.521 -0.0254 -0.0080  0.1204
25448W        W32048   4.978   1.320  25.656 -0.1022  0.1847  0.1414
25449W        W32049  15.689   1.591  27.087  0.0096 -0.0239  0.0111
25450W        W32050  22.506   2.376   8.464  0.1973  0.2203 -0.1731
25451W        W32051  21.021   5.393  34.348 -0.1279 -0.0202  0.0465
25452W        W32052  13.536   5.426  33.462  0.1467 -0.2943 -0.0865
25453W        W32053  21.205   3.847   5.356  0.0173  0.1034  0.1288
25454W        W32054  10.637   1.728  27.390  0.3419  0.0276 -0.1685
25455W        W32055  11.329   2.272  29.393  0.1517  0.2117  0.2879
25456W        W32056  15.352   5.162   3.085  0.1660  0.1701 -0.1894
25457W        W32057  19.998   0.471  24.113 -0.0564 -0.1341 -0.2780
25458W        W32058   3.109   6.029  32.941  0.2357  0.0399  0.3159
25459W        W32059   3.105   5.298  26.181  0.0725  0.2746 -0.2039
25460W        W32060   9.260   1.617  21.247  0.1773 -0.0385  0.3162
25461W        W32061  21.535   0.656  12.437 -0.0315  0.4078  0.1022
25462W        W32062   5.674   2.684   0.671 -0.0722 -0.0187 -0.1404
25463W        W32063   2.128   3.677  29.165 -0.0819  0.3093 -0.1948
25464W        W32064  20.024   4.725  26.178  0.1808  0.0141  0.1314
25465W        W32065  12.060   6.119  10.074  0.0516 -0.0935 -0.1912
25466W        W32066  19.506   2.021  22.537 -0.0445 -0.1422 -0.0591
25467W        W32067  21.127   4.284  35.228  0.3771 -0.3244  0.3766
25468W        W32068   3.135   2.835  35.627 -0.4313  0.1139 -0.0897
25469W        W32069  23.249   0.278   7.896 -0.0755  0.0744  0.0838
25470W        W32070  11.284   0.940  22.306 -0.0360 -0.0664  0.1502
25471W        W32071  26.333   0.014   0.866  0.1154  0.0337 -0.1291
25472W        W32072  15.408   6.083   2.729 -0.2084 -0.0155 -0.0342
25473W        W32073  12.121   0.602   2.120 -0.1524 -0.2790 -0.0911
25474W        W32074  13.745   6.256  22.570  0.4064  0.1124  0.0027
25475W        W32075   6.349   5.767  31.425  0.2583 -0.1781 -0.0722
25476W        W32076  26.433   6.176  14.928  0.2563  0.0641 -0.1912
25477W        W32077  20.872   2.962  36.024  0.0388  0.1381  0.1411
25478W        W32078   8.724   0.330   1.265 -0.2410  0.1805 -0.1375
25479W        W32079   1.533   2.723  24.365 -0.0819  0.3424 -0.1444
25480W        W32080  14.217   3.296  34.298 -0.2137  0.1431 -0.0501
25481W        W32081   0.969   2.725   1.952 -0.1910 -0.0345  0.2055
25482W        W32082  16.966   3.918   6.203  0.2013  0.0860  0.0477
25483W        W32083  19.618   5.224  10.069  0.1261  0.0191 -0.0662
25484W        W32084  21.969   0.734  33.287 -0.1429  0.0339 -0.0681
25485W        W32085  14.713   5.205   1.163 -0.0731 -0.1877  0.1604
25486W        W32086   2.725   2.831   7.821  0.1089 -0.0205  0.3907
25487W        W32087  20.358   0.474  22.180  0.1477  0.1696 -0.0536
25488W        W32088  19.023   2.950  27.437 -0.0952 -0.1501  0.0690
25489W        W32089   9.861   4.490  33.412  0.0349 -0.2323 -0.3831
25490W        W32090  17.426   3.731  15.233 -0.1326 -0.0920  0.1954
25491W        W32091  25.064   3.408  34.184 -0.5447 -0.2837  0.0631
25492W        W32092  20.033   0.144   7.889 -0.0436  0.0726 -0.0172
25493W        W32093  16.977   1.890  28.099 -0.1325  0.4200  0.0409
25494W        W32094  14.508   3.327  24.813  0.0187  0.3118  0.0125
25495W        W32095   6.296   2.886  28.321  0.0064  0.0372 -0.2739
25496W        W32096   0.621   0.047  35.249  0.0179 -0.0679 -0.2490
25497W        W32097  23.074   4.877  30.406 -0.3735 -0.1616  0.2045
25498W        W32098   4.468   2.789  24.754 -0.1212  0.0205  0.0366
25499W        W32099  19.869   6.399  24.816  0.3329  0.0025  0.1994
25500W        W32100   6.176   6.519   9.723 -0.1291  0.1884 -0.0835
25501W        W32101  18.587   2.303  28.703 -0.2041  0.2489 -0.0535
25502W        W32102   7.134   1.205  25.159  0.0217 -0.0441  0.0013
25503W        W32103   0.681   0.275  30.353  0.1582  0.1455  0.3931
25504W        W32104  15.087   5.486  15.616 -0.1365  0.1028  0.0028
25505W        W32105   4.852   1.743  12.780  0.0792  0.2481 -0.0619
25506W        W32106  15.006   1.935  28.313 -0.0230  0.1785 -0.0320
25507W        W32107  15.480   5.999  27.735  0.0723  0.2192  0.0974
25508W        W32108  18.188   3.621  35.243  0.0256 -0.2164 -0.1191
25509W        W32109  16.894   1.046   2.966  0.2771 -0.0227  0.0125
25510W        W32110  26.059   4.657  23.840  0.0494  0.0471 -0.0243
25511W        W32111  24.965   1.667  30.215 -0.0970  0.2449  0.2110
25512W        W32112  19.519   4.966   9.223 -0.0453 -0.1782 -0.3599
25513W        W32113  10.582   5.054  15.022 -0.0420 -0.0140  0.0852
25514W        W32114  21.300   4.671  12.849  0.0809  0.0353 -0.0107
25515W        W32115  13.662   4.540  21.557  0.3120 -0.3830  0.2272
25516W        W32116   3.377   4.859  34.764  0.0304 -0.0855 -0.4383
25517W        W32117  25.357   4.936   2.148  0.1540  0.0248 -0.1052
25518W        W32118  20.498   2.667   5.865 -0.5180 -0.2254  0.0078
25519W        W32119  22.292   1.878   4.487 -0.0862 -0.0489 -0.0231
25520W        W32120  20.043   3.841  32.872 -0.0878  0.1153 -0.1874
25521W        W32121  23.763   4.030  33.423  0.1103 -0.2313 -0.0140
25522W        W32122  22.230   6.312  13.862 -0.3784 -0.0150 -0.0909
25523W        W32123   0.372   4.886  31.151 -0.0914 -0.0680 -0.1880
25524W        W32124  16.909   4.609  35.971  0.1373 -0.1472 -0.2261
25525W        W32125   8.168   4.164  33.315  0.0552  0.0519  0.0706
25526W        W32126   7.735   1.555   7.992  0.0139  0.2601  0.0683
25527W        W32127  20.699   3.528  21.608  0.0807 -0.0556 -0.0654
25528W        W32128  25.770   1.618  26.306  0.1727 -0.0706 -0.0975
25529W        W32129   7.706   0.822   6.489 -0.1672  0.1633  0.1967
25530W        W32130   7.038   1.378  31.135  0.3364  0.0238 -0.0422
25531W        W32131  14.505   4.933  25.247  0.2188 -0.0750 -0.2474
25532W        W32132  12.690   2.588  21.090 -0.3990  0.0085 -0.3422
25533W        W32133   8.087   5.745  11.975  0.1210 -0.1060 -0.0892
25534W        W32134   4.217   3.276  29.129  0.0212 -0.0775 -0.0010
25535W        W32135  20.320   0.512  30.171 -0.1045 -0.0536  0.1033
25536W        W32136  21.695   2.670  11.579  0.1273  0.1450  0.1953
25537W        W32137   1.761   4.631  21.106  0.1273  0.2837 -0.1001
25538W        W32138  14.096   5.189  21.141  0.0979 -0.1074  0.1459
25539W        W32139  20.115   3.854  30.127 -0.1760 -0.2436 -0.0311
25540W        W32140  12.359   0.132   8.499 -0.0467  0.0455 -0.1450
25541W        W32141  11.478   1.024  33.913  0.1872  0.0232  0.3697
25542W        W32142  21.306   1.243  29.422  0.0125 -0.0079  0.0606
25543W        W32143   5.239   5.492  24.641  0.3066  0.0458 -0.0180
25544W        W32144  14.931   5.432  34.817 -0.1520  0.2802 -0.0847
25545W        W32145  20.748   5.779   1.972 -0.1053 -0.0984 -0.1250
25546W        W32146  23.203   4.153  27.561  0.2533 -0.1362  0.1067
25547W        W32147   4.823   0.157  30.687  0.3571 -0.1350 -0.2057
25548W        W32148   0.530   5.755   4.819  0.1423  0.2915  0.1247
25549W        W32149   6.582   0.174  26.303  0.0678 -0.0165  0.1799
25550W        W32150  19.341   2.669  24.944  0.0743 -0.2406  0.0068
25551W        W32151   1.934   6.045   2.448 -0.0177 -0.4248  0.0939
25552W        W32152  10.629   4.487   5.523  0.0765 -0.2400 -0.1358
25553W        W32153   5.782   3.382  12.414  0.3422 -0.0654 -0.1940
25554W        W32154  12.379   4.214  29.247 -0.1425  0.1096 -0.0776
25555W        W32155  11.105   0.350  11.444 -0.2177  0.1058 -0.0455
25556W        W32156  17.291   6.057   8.207  0.1403 -0.1569 -0.2223
25557W        W32157   9.161   5.564   0.314  0.1763  0.0299 -0.0233
25558W        W32158  17.772   6.581   1.240 -0.0942 -0.2408 -0.2394
25559W        W32159  12.811   0.549  23.680  0.0519  0.2769 -0.1006
25560W        W32160  13.480   0.012  28.472  0.2346 -0.0814 -0.2468
25561W        W32161  17.318   6.584  24.892 -0.1201  0.2249  0.0777
25562W        W32162  25.387   0.655  11.691  0.2528  0.0489  0.0793
25563W        W32163  22.643   0.372   9.711  0.0175 -0.4458 -0.2834
25564W        W32164  23.477   4.638   7.947 -0.0624  0.1375 -0.0416
25565W        W32165   0.701   6.482  11.019  0.2626 -0.4052 -0.0007
25566W        W32166  21.894   2.220  25.671 -0.2180 -0.3859  0.2276
25567W        W32167  10.198   6.273   3.915 -0.3285  0.1317 -0.2043
25568W        W32168  21.212   6.186  24.527  0.2396  0.0720  0.1277
25569W        W32169  19.131   6.338   7.902  0.5068 -0.1320 -0.0203
25570W        W32170  24.139   3.967  25.714 -0.1609 -0.1579 -0.0638
25571W        W32171   5.477   0.512  22.530  0.1550 -0.1618 -0.2547
25572W        W32172  21.152   5.740   7.166 -0.1554 -0.0972  0.1361
25573W        W32173  12.915   6.161  29.701  0.0326 -0.0247  0.1498
25574W        W32174   2.948   1.493  21.202  0.1079 -0.0388  0.2317
25575W        W32175  14.065   5.219   9.202  0.1870 -0.2942 -0.0532
25576W        W32176  24.311   0.029  26.002  0.1884 -0.0121  0.0400
25577W        W32177  13.454   4.711   9.748  0.2864  0.0873  0.3167
25578W        W32178   5.397   5.823   9.795  0.0854 -0.0683  0.0186
25579W        W32179  20.139   6.414  33.945 -0.0964  0.2868  0.0143
25580W        W32180  20.710   4.762   4.296 -0.1917 -0.1692  0.0474
25581W        W32181   7.270   2.081  26.824 -0.0864  0.2637  0.0394
25582W        W32182   8.848   6.233  10.622 -0.2079  0.1080 -0.1475
25583W        W32183   9.408   4.139  12.144  0.0112 -0.0186 -0.0062
25584W        W32184  13.471   4.665  14.717 -0.0340  0.0521  0.1862
25585W        W32185   6.134   6.264  24.264  0.2235  0.2895  0.0023
25586W        W32186  11.749   3.176  21.740 -0.0077  0.1285 -0.0222
25587W        W32187  10.336   6.429  28.472  0.3276  0.2742 -0.0613
25588W        W32188   4.758   6.536  24.806  0.3239  0.1029 -0.0693
25589W        W32189   2.654   5.724  21.770 -0.1402 -0.4251  0.0459
25590W        W32190  19.730   0.422  30.720  0.0581 -0.1341  0.0086
25591W        W32191   2.511   4.764   6.815 -0.0730 -0.0225  0.0772
25592W        W32192   5.366   5.584  32.304 -0.0190  0.3262 -0.2340
25593W        W32193  20.489   0.640   2.860  0.1907  0.2184 -0.0380
25594W        W32194   9.393   0.249  10.903 -0.0108 -0.0360  0.0870
25595W        W32195   4.195   5.681   4.260  0.0615 -0.0295 -0.1008
25596W        W32196  21.868   1.734  11.931  0.0635 -0.1212 -0.1262
25597W        W32197  10.413   3.762  13.258  0.0573  0.0473  0.1995
25598W        W32198  20.107   6.039  31.277  0.0134  0.0728  0.2140
25599W        W32199   9.956   0.098   8.563  0.3250 -0.1046 -0.0824
25600W        W32200  19.378   3.145  34.886 -0.2156  0.0619 -0.0108
25601W        W32201  20.329   2.798  14.958  0.0834 -0.1225  0.0350
25602W        W32202   9.608   2.943   1.960 -0.1848  0.0566 -0.2681
25603W        W32203   7.140   4.033  13.709  0.0772  0.0085 -0.0961
25604W        W32204   4.226   0.684  30.830  0.0324  0.1832 -0.1879
25605W        W32205  22.390   2.088   8.877  0.2113 -0.0636 -0.0480
25606W        W32206   5.908   3.032  26.938  0.2618  0.0664  0.2163
25607W        W32207  23.793   2.217   2.129 -0.0827  0.0254 -0.0070
25608W        W32208   0.238   2.400  11.889 -0.1230  0.0391 -0.3196
25609W        W32209   3.598   6.548  35.003  0.0178  0.0862  0.0466
25610W        W32210   5.550   2.535  12.350 -0.3254 -0.3370  0.2516
25611W        W32211   5.565   1.277  13.703 -0.1106  0.0230  0.0875
25612W        W32212   9.011   0.424   0.699 -0.0233 -0.3206 -0.0176
25613W        W32213   5.022   5.055   9.796 -0.3746  0.2774 -0.0408
25614W        W32214   7.261   5.391  30.210 -0.2130 -0.0703  0.0166
25615W        W32215  13.657   0.801  26.497  0.2021 -0.4930  0.3204
25616W        W32216   4.245   3.450  13.314 -0.2480 -0.1485  0.2420
25617W        W32217  26.033   2.409   0.651  0.0876 -0.2076 -0.1276
25618W        W32218  16.455   2.076  27.100  0.3725 -0.3996  0.0947
25619W        W32219   2.637   2.138   9.090  0.2178 -0.0119 -0.0602
25620W        W32220  21.128   5.256  21.138  0.1191  0.2429 -0.0472
25621W        W32221  22.094   5.016  11.860 -0.0263  0.3134  0.0363
25622W        W32222   0.376   1.667   5.253  0.0627  0.2596 -0.1564
25623W        W32223  14.811   3.138   3.946 -0.0050 -0.1634  0.0511
25624W        W32224  25.352   4.837   1.035 -0.1461 -0.3233  0.4613
25625W        W32225   6.364   0.032  11.407  0.1051 -0.0911 -0.1247
25626W        W32226  23.113   5.772  14.814 -0.2274  0.0641 -0.1975
25627W        W32227  20.735   2.680   3.704  0.2118 -0.0129  0.0899
25628W        W32228  20.524   0.741  31.549  0.0981  0.0222  0.2788
25629W        W32229  19.290   4.526   7.302  0.0820  0.1458  0.1334
25630W        W32230   3.286   0.638   9.291  0.0960 -0.1644  0.0272
25631W        W32231  22.080   1.013  13.334 -0.0889 -0.1448  0.1594
25632W        W32232  20.091   4.070  34.403 -0.0245  0.0083 -0.0829
25633W        W32233  21.115   4.088   3.314  0.2073  0.2662  0.0387
25634W        W32234  23.355   2.650  20.994  0.3514 -0.2291  0.1276
25635W        W32235   9.403   3.820  23.067  0.0436  0.0260 -0.2385
25636W        W32236   1.780   3.919  35.129  0.2265 -0.0211  0.1627
25637W        W32237   7.910   2.757   1.613  0.1841 -0.2387  0.0593
25638W        W32238  17.263   2.176  27.741 -0.1913  0.0342 -0.4298
25639W        W32239   5.435   5.624   4.104 -0.3146  0.3296 -0.0069
25640W        W32240   6.738   2.391   8.703 -0.1337 -0.2876  0.2311
25641W        W32241  11.458   6.030  28.395 -0.2705  0.1911 -0.0518
25642W        W32242  13.023   1.482  12.605 -0.1486 -0.0032  0.0163
25643W        W32243  26.100   5.874   5.861  0.0723  0.7093  0.2358
25644W        W32244  22.888   0.385   7.586 -0.3986  0.0563  0.0210
25645W        W32245  11.150   3.303  35.409 -0.0019  0.0036 -0.1298
25646W        W32246  24.895   1.475  34.677 -0.0548  0.0649 -0.3784
25647W        W32247  11.061   4.353   9.823 -0.0004  0.4006 -0.1813
25648W        W32248  15.322   4.204  10.819 -0.0773 -0.2133 -0.0807
25649W        W32249  18.716   0.495  30.185 -0.2209  0.2763 -0.0519
25650W        W32250  17.607   1.553  21.521 -0.0901  0.3080  0.0150
25651W        W32251  11.703   6.115  11.245  0.0054  0.1443  0.0263
25652W        W32252  22.142   5.821  24.866 -0.0141  0.1788  0.0577
25653W        W32253   1.667   1.981   7.296  0.0261  0.2527 -0.0864
25654W        W32254   1.147   5.168   5.252  0.0932  0.1318  0.1755
25655W        W32255  26.209   2.353   3.213 -0.3244  0.1487 -0.1599
25656W        W32256  19.341   2.157  14.897 -0.3138  0.2959 -0.1050
25657W        W32257  25.361   3.373  32.739 -0.0697 -0.4172 -0.1721
25658W        W32258  25.704   5.452  23.265 -0.0124  0.2579 -0.2515
25659W        W32259  21.142   2.577  34.873 -0.2072  0.0014  0.0760
25660W        W32260  18.318   3.445   7.426 -0.2354 -0.0749  0.0064
25661W        W32261   9.227   3.766   5.801  0.2070  0.0197  0.0125
25662W        W32262  22.941   5.738   6.078 -0.0708 -0.1721  0.1944
25663W        W32263  20.247   2.608  33.961  0.0963  0.2526  0.0327
25664W        W32264   6.132   0.896   4.408  0.0798  0.2524  0.1535
25665W        W32265   9.848   0.135  12.891  0.0889  0.0758 -0.1026
25666W        W32266  25.556   0.180   8.565  0.0961  0.0201  0.1630
25667W        W32267  15.270   3.680  29.835  0.1513  0.1342 -0.1945
25668W        W32268   4.674   3.249  32.929 -0.1604 -0.0291 -0.0378
25669W        W32269  12.084   1.710   5.455  0.1405  0.0358 -0.3021
25670W        W32270   3.828   1.449  24.472 -0.0801  0.2510  0.3877
25671W        W32271  19.195   5.508  33.675 -0.2400  0.0514  0.0492
25672W        W32272   0.743   2.336  10.559 -0.1419 -0.1071 -0.0763
25673W        W32273  12.296   2.582  12.436  0.0318 -0.1150  0.1329
25674W        W32274   6.401   6.072  23.104  0.1726  0.1070 -0.1350
25675W        W32275  11.805   4.329  13.362  0.1070 -0.2003  0.0841
25676W        W32276  14.437   1.947   2.510 -0.0896 -0.2066 -0.1696
25677W        W32277  25.639   3.560   5.187  0.0145 -0.2866 -0.0305
25678W        W32278   2.454   0.093  23.948 -0.1700  0.0351  0.3145
25679W        W32279   8.027   2.611  27.740  0.1701  0.0254 -0.0800
25680W        W32280  25.492   2.457   7.169  0.1654  0.0675 -0.1994
25681W        W32281   0.738   1.279  31.429 -0.0034 -0.1579 -0.4794
25682W        W32282  25.949   5.080  26.575  0.1347 -0.1056  0.2534
25683W        W32283   4.607   4.408  13.264 -0.0463 -0.2599 -0.1892
25684W        W32284  14.424   5.061  12.256  0.0205 -0.0647 -0.0201
25685W        W32285   9.252   0.078  29.718  0.2318  0.1387 -0.5524
25686W        W32286  19.581   3.028  24.685  0.0249 -0.1268 -0.2798
25687W        W32287  23.185   0.862  28.331 -0.1298 -0.1294  0.2580
25688W        W32288  23.216   4.423  24.273  0.1013 -0.1857  0.0591
25689W        W32289   4.736   3.104  31.838 -0.0963 -0.1875 -0.1178
25690W        W32290   4.895   5.601  26.606 -0.0964  0.0488 -0.1413
25691W        W32291  22.521   0.192   7.876 -0.1557  0.1275 -0.2396
25692W        W32292   7.712   5.531  11.681 -0.0592 -0.1013  0.1108
25693W        W32293   1.283   2.335  31.134 -0.0819  0.1127  0.1784
25694W        W32294  14.454   6.012   3.694 -0.1470 -0.1505 -0.2647
25695W        W32295   5.787   4.798  26.614  0.0743  0.1427 -0.2608
25696W        W32296   3.625   1.933  14.859 -0.0939  0.0300 -0.3001
25697W        W32297  11.317   6.543   0.592  0.0364  0.3093 -0.2065
25698W        W32298  12.987   1.426   2.562  0.0152 -0.0586 -0.3508
25699W        W32299  25.699   1.339  31.111  0.0228  0.0396 -0.0178
25700W        W32300   2.518   1.314   2.560 -0.0287 -0.0302  0.0291
25701W        W32301   0.841   3.681  16.057 -0.0021  0.0823 -0.2072
25702W        W32302  15.297   0.674  30.022 -0.3474 -0.1091 -0.1240
25703W        W32303   0.602   4.699   5.643 -0.3246  0.1730 -0.0095
25704W        W32304   7.070   5.314  21.441  0.0441  0.1140 -0.0456
25705W        W32305  17.680   3.691   1.570  0.2802  0.1593  0.3787
25706W        W32306  17.510   1.040  12.853  0.0021 -0.1109  0.3131
25707W        W32307  22.136   6.386  11.222 -0.0017  0.0410  0.3365
25708W        W32308  22.615   0.418  31.684  0.1061 -0.1134 -0.0682
25709W        W32309   9.499   6.604   2.570 -0.1032  0.5123 -0.1608
25710W        W32310   6.641   1.566  32.817  0.3963  0.1025  0.5523
25711W        W32311  21.058   1.842  23.494 -0.1161  0.1741  0.2812
25712W        W32312  20.560   1.817  22.468  0.1749  0.1839  0.2185
25713W        W32313  10.112   1.136  32.133  0.0524 -0.3438  0.1014
25714W        W32314  19.297   1.172  31.464 -0.1113  0.0959 -0.0632
25715W        W32315  10.903   3.255  10.166 -0.0888  0.2095 -0.1784
25716W        W32316   9.009   2.923   7.164 -0.2097 -0.1307 -0.0823
25717W        W32317   3.382   3.273  20.651  0.1572  0.0158 -0.0033
25718W        W32318  19.441   0.109  10.330 -0.0257 -0.1293  0.0298
25719W        W32319  15.081   6.387  14.289  0.0173  0.0377  0.0054
25720W        W32320   2.994   6.597   3.181 -0.4063 -0.1776  0.2638
25721W        W32321  23.288   1.119   9.555  0.0944 -0.0723 -0.0389
25722W        W32322   1.507   1.800  31.430  0.0008  0.0887 -0.3390
25723W        W32323  18.963   6.346  10.902  0.2100  0.0636  0.1482
25724W        W32324  13.556   1.905   3.540  0.0547  0.2086  0.3517
25725W        W32325   0.734   4.418   9.538  0.1263  0.3098  0.0863
25726W        W32326  21.874   4.709  23.154 -0.1951  0.0016 -0.0367
25727W        W32327   0.441   2.770   6.982  0.0219 -0.0443 -0.0585
25728W        W32328   6.457   1.937  33.486 -0.1065 -0.0984  0.2072
25729W        W32329  14.331   0.550  29.046 -0.3110 -0.0308 -0.1321
25730W        W32330  24.745   2.443  14.963  0.2298 -0.0736 -0.2074
25731W        W32331   3.332   1.972   8.655 -0.1492 -0.3325 -0.2941
25732W        W32332   0.729   2.289  26.536  0.3437  0.2181  0.0581
25733W        W32333  19.400   4.177  31.183  0.2484  0.0789  0.3278
25734W        W32334  22.487   0.494  35.040 -0.1166 -0.3661 -0.1777
25735W        W32335  21.737   0.035  30.356 -0.0412 -0.2222  0.0004
25736W        W32336  18.107   0.763  21.423  0.0656 -0.0193 -0.1120
25737W        W32337  15.284   6.184  33.023  0.0236  0.0539  0.1443
25738W        W32338  20.365   4.641  14.534 -0.5268 -0.1624 -0.2552
25739W        W32339  25.380   2.316  36.177 -0.0674 -0.1373  0.0080
25740W        W32340  24.462   5.378  20.745  0.0090 -0.0818 -0.1174
25741W        W32341  16.280   5.649  12.349  0.0684  0.2198 -0.0601
25742W        W32342  26.330   4.315   0.845  0.2717 -0.2074  0.0510
25743W        W32343   3.397   6.414   9.498 -0.0703  0.0854 -0.4037
25744W        W32344   3.930   4.874   2.215 -0.1631 -0.0729  0.0362
25745W        W32345   4.506   5.585  14.948 -0.1688  0.0429 -0.0254
25746W        W32346   7.873   0.220  21.317  0.0644 -0.1022 -0.0488
25747W        W32347  25.970   3.670   5.603  0.1514 -0.2357 -0.1033
25748W        W32348   9.039   1.824   4.726 -0.2130 -0.1906  0.0369
25749W        W32349  21.779   0.707  22.652  0.3254 -0.0057  0.1364
25750W        W32350  22.295   2.083  30.015  0.1664  0.1095  0.0850
25751W        W32351   4.030   3.370   7.842 -0.0506  0.1401 -0.2805
25752W        W32352  24.953   2.161   7.772  0.1763  0.1430  0.0005
25753W        W32353   5.424   6.007   8.454  0.3150 -0.0704 -0.3783
25754W        W32354  17.109   3.077   0.315 -0.1654  0.0458  0.1277
25755W        W32355   6.113   5.467  15.532 -0.0602  0.2321 -0.4119
25756W        W32356   5.969   2.152  34.690  0.1409 -0.1547 -0.2173
25757W        W32357   4.883   4.986   8.168  0.1662 -0.0137 -0.5200
25758W        W32358  13.027   2.060  14.769 -0.0110  0.1572 -0.2150
25759W        W32359  14.084   6.373   5.899  0.0779  0.2375  0.1017
25760W        W32360  26.045   1.759  36.051 -0.2386  0.1801  0.0581
25761W        W32361  16.359   3.026   9.495 -0.2343  0.0635  0.2305
25762W        W32362  17.973   5.981   2.723  0.0938  0.3113 -0.1416
25763W        W32363  14.500   5.656   6.835 -0.4772  0.0909 -0.1405
25764W        W32364  24.415   3.492  22.086  0.3952 -0.0785 -0.1535
25765W        W32365   2.961   3.044   9.228 -0.0429  0.1160  0.0664
25766W        W32366  16.320   0.742   0.461 -0.1211 -0.3725 -0.0063
25767W        W32367  25.607   0.478  27.543 -0.2995 -0.3090  0.0557
25768W        W32368   9.468   3.162  14.962 -0.1059 -0.0354  0.0421
25769W        W32369   1.105   4.102  28.195  0.1944 -0.2154 -0.0543
25770W        W32370  11.590   1.237  12.704  0.0077 -0.1633  0.1131
25771W        W32371   6.421   3.398  28.571  0.1295 -0.0064 -0.1287
25772W        W32372  24.638   6.317  30.349 -0.1007  0.2356  0.1040
25773W        W32373  26.389   0.218  20.855  0.1710 -0.1600  0.1607
25774W        W32374  17.491   4.664  26.729 -0.2665 -0.2376 -0.0292
25775W        W32375  17.649   5.308   7.923 -0.0838  0.1303 -0.0846
25776W        W32376   2.979   2.054  11.316 -0.1342  0.0134  0.0202
25777W        W32377   2.153   3.374  13.196  0.0798  0.1136 -0.1030
25778W        W32378   6.912   5.435  32.121  0.0840  0.1509 -0.4238
25779W        W32379  21.930   4.754  33.112 -0.2753  0.0047  0.0767
25780W        W32380  20.919   5.808  23.347 -0.1228 -0.1419  0.1857
25781W        W32381   6.979   0.403  23.436 -0.1654  0.1072 -0.0225
25782W        W32382  24.191   2.734  23.170  0.3285 -0.0732  0.0143
25783W        W32383  22.028   5.640  32.726 -0.0383  0.4071 -0.3533
25784W        W32384  23.929   0.092  30.865 -0.4582  0.0522 -0.1123
25785W        W32385   3.781   4.891  14.227 -0.0683 -0.1027  0.1363
25786W        W32386  22.199   0.108  12.052 -0.0724 -0.0450  0.0057
25787W        W32387   9.295   6.209   5.702 -0.0935 -0.1646 -0.2321
25788W        W32388   5.563   4.918   7.055  0.2794 -0.0064 -0.2138
25789W        W32389  10.245   3.848   8.907  0.0105  0.1393  0.1159
25790W        W32390  11.660   5.986  29.197 -0.0803  0.2822  0.2535
25791W        W32391   0.550   2.124  12.159 -0.2034 -0.0088  0.0983
25792W        W32392  18.596   3.947  11.909 -0.1679  0.2549 -0.0037
25793W        W32393   1.704   2.968  14.972  0.2720  0.1409 -0.2905
25794W        W32394  24.842   2.209  30.184  0.2037 -0.0220  0.1536
25795W        W32395  18.169   5.938  15.159 -0.2199  0.1217  0.1714
25796W        W32396   2.962   0.726   5.885  0.2698  0.0640 -0.1404
25797W        W32397  17.174   6.103  22.498 -0.1859  0.1731  0.0591
25798W        W32398  16.367   1.833  11.382  0.0229 -0.0084  0.0974
25799W        W32399   0.046   1.839  11.033  0.1565  0.1409  0.3534
25800W        W32400  20.319   0.122   2.223  0.0146  0.2760 -0.0213
25801W        W32401  25.093   0.464  35.628 -0.2958 -0.2018 -0.0701
25802W        W32402  12.860   0.550  27.944  0.1866  0.0507 -0.0453
25803W        W32403  17.592   2.992   4.855 -0.0685  0.1852  0.1122
25804W        W32404  13.809   2.141  34.685  0.0921  0.0596 -0.0738
25805W        W32405   5.870   3.507  30.244 -0.0033 -0.2231 -0.1135
25806W        W32406  21.454   5.106  32.822 -0.0505  0.2829 -0.0552
25807W        W32407   0.812   1.408   6.215  0.2404 -0.0158  0.0210
25808W        W32408   0.298   4.873  15.744 -0.1884 -0.2807 -0.2208
25809W        W32409   5.713   2.283   7.840  0.2792  0.0948  0.5186
25810W        W32410  12.591   5.850  11.575  0.3977 -0.0776  0.3315
25811W        W32411   1.083   5.741  10.593  0.2958 -0.0358 -0.0091
25812W        W32412  18.431   0.869  28.796 -0.0949 -0.0331 -0.3007
25813W        W32413  14.377   0.223   3.173  0.2836  0.1223  0.2303
25814W        W32414   0.710   0.682  25.917 -0.0442  0.0332  0.0565
25815W        W32415  19.657   2.294  22.117 -0.1063 -0.0140  0.1155
25816W        W32416   1.156   2.759  22.101 -0.2752  0.0428  0.0849
25817W        W32417  18.362   6.589  34.177 -0.1999 -0.1006  0.2430
25818W        W32418  24.475   0.080   2.655  0.2451 -0.1662 -0.1376
25819W        W32419  10.581   5.411  12.346 -0.1052  0.2605 -0.3037
25820W        W32420  18.604   6.272   4.695 -0.1221 -0.0226 -0.5445
25821W        W32421  21.396   1.131  24.958  0.0032  0.1402 -0.2358
25822W        W32422  17.350   0.376  27.267 -0.1078 -0.2424  0.2488
25823W        W32423   7.077   2.429  28.382 -0.1918 -0.0141  0.3548
25824W        W32424   6.532   0.949  11.729 -0.0116  0.0847 -0.1270
25825W        W32425  21.427   4.844  11.232 -0.0822  0.1467  0.1822
25826W        W32426  14.572   1.394   9.823 -0.1315 -0.0102 -0.0103
25827W        W32427   5.974   6.601  11.035 -0.1328 -0.2817 -0.1158
25828W        W32428  19.786   0.348  12.976 -0.0155  0.1709 -0.5183
25829W        W32429   1.740   0.108  26.151 -0.1508  0.2841  0.2333
25830W        W32430  21.597   3.073  33.299 -0.0171  0.3745  0.0386
25831W        W32431   4.189   1.883  34.066 -0.1716  0.1160  0.0642
25832W        W32432  20.549   6.417   6.346 -0.0604 -0.0854 -0.0580
25833W        W32433  15.166   3.273   8.345 -0.3921 -0.0694 -0.0900
25834W        W32434  24.761   0.817   1.712  0.2285  0.2042 -0.1292
25835W        W32435  25.458   1.369   5.537 -0.0996 -0.0329  0.1201
25836W        W32436  24.959   0.837  14.391  0.0833 -0.2348 -0.1278
25837W        W32437   8.769   1.454  33.529  0.0078 -0.0829  0.0634
25838W        W32438  16.985   6.404   3.531  0.0103 -0.0565 -0.1964
25839W        W32439  25.570   1.536   6.026 -0.0997 -0.1923 -0.1416
25840W        W32440   0.518   6.554  10.257 -0.3804  0.1439  0.0646
25841W        W32441  20.274   4.615  26.743  0.1550 -0.0659  0.1125
25842W        W32442  25.052   2.171  27.196 -0.0232  0.2745 -0.2450
25843W        W32443  22.654   5.383   6.374  0.0336  0.1538 -0.1082
25844W        W32444   1.113   4.584   5.261  0.1695  0.1247  0.0024
25845W        W32445   4.213   4.476  24.033  0.0295 -0.2318 -0.1463
25846W        W32446  21.441   1.114  14.017  0.1057  0.0081  0.0236
25847W        W32447   2.180   1.907   4.839  0.0177  0.3553 -0.0185
25848W        W32448  25.549   4.196   6.151 -0.0514  0.2982 -0.2579
25849W        W32449  22.255   2.105   7.497 -0.0067 -0.1895 -0.2848
25850W        W32450  23.566   5.262   4.640 -0.5680  0.2687  0.0691
25851W        W32451   8.847   4.660  13.258 -0.2385 -0.3184  0.1600
25852W        W32452  22.071   4.445  26.665 -0.0819 -0.0039 -0.2926
25853W        W32453  12.718   3.127  15.331  0.3287 -0.0726  0.2977
25854W        W32454  12.418   2.204  14.946  0.0388  0.1297 -0.0626
25855W        W32455   0.161   6.255  30.385 -0.2709  0.1394  0.0200
25856W        W32456  23.263   3.536  23.458 -0.4433 -0.0213  0.1217
25857W        W32457  20.626   0.974  29.913  0.2517 -0.2907 -0.2349
25858W        W32458   7.635   1.195  32.176  0.1133  0.1658  0.1673
25859W        W32459  24.132   3.667   9.932 -0.0998  0.2250 -0.2419
25860W        W32460   3.717   1.482  28.337  0.0104 -0.1907 -0.2238
25861W        W32461   2.337   1.440   1.209 -0.2122  0.2276  0.0596
25862W        W32462   3.903   0.145  12.549 -0.1054  0.1123  0.0113
25863W        W32463  20.131   3.570  14.412  0.1585  0.0207  0.3673
25864W        W32464   4.279   0.250   6.562  0.0826 -0.0488  0.4954
25865W        W32465  11.101   2.947   8.018 -0.2208 -0.2397 -0.2998
25866W        W32466  21.248   0.128  23.638 -0.1835  0.1411 -0.3349
25867W        W32467  25.058   0.104   9.007 -0.0079  0.3249  0.0655
25868W        W32468   7.573   4.945   9.224 -0.1083  0.0304  0.1410
25869W        W32469  16.022   2.646   3.385 -0.0830  0.1062 -0.0964
25870W        W32470  12.158   5.027  20.644  0.2783  0.0971 -0.1265
25871W        W32471  20.939   3.803  12.824 -0.0753  0.1262  0.2155
25872W        W32472   2.984   2.408  26.323  0.1398  0.2829 -0.1595
25873W        W32473  25.169   3.934   3.135  0.0905  0.1334  0.2268
25874W        W32474  18.282   5.532   5.773 -0.3737  0.0909  0.1258
25875W        W32475  17.444   3.286   1.407  0.0506 -0.0484 -0.2302
25876W        W32476   8.826   2.395   8.060  0.2917  0.0139  0.6342
25877W        W32477   3.227   1.844  28.922 -0.1598 -0.0188 -0.2684
25878W        W32478   0.447   2.604  11.285  0.0156  0.0369 -0.2746
25879W        W32479  12.035   2.546  35.956 -0.2072 -0.2789 -0.2579
25880W        W32480   2.362   2.918  31.887  0.1513  0.2039  0.1350
25881W        W32481   4.245   6.472  32.263 -0.1288 -0.1581  0.0301
25882W        W32482  20.357   4.417   1.499  0.1694 -0.0195 -0.3908
25883W        W32483   4.110   5.979   3.059 -0.3077  0.1556 -0.2224
25884W        W32484  26.310   2.701  10.385 -0.2310 -0.0631 -0.1381
25885W        W32485   7.349   0.414   4.939  0.2366 -0.3347  0.0980
25886W        W32486  14.806   4.393  21.140  0.3400 -0.2931  0.0983
25887W        W32487   5.244   4.858  35.251  0.1943  0.0825 -0.2731
25888W        W32488  13.013   6.113  13.765  0.2103  0.0973 -0.2499
25889W        W32489  13.403   2.640   4.090  0.1622 -0.1219  0.3043
25890W        W32490  23.144   2.875   8.069 -0.0649  0.1487 -0.1191
25891W        W32491  12.772   3.523  29.483 -0.0131 -0.0822 -0.2087
25892W        W32492   5.029   4.756  26.722 -0.0078  0.1612 -0.0891
25893W        W32493  13.475   5.261   1.061  0.4222 -0.2347  0.0386
25894W        W32494  24.534   4.324  23.162  0.2245 -0.1453 -0.0970
25895W        W32495   2.024   2.904  36.102 -0.3212  0.0637  0.1328
25896W        W32496  26.228   2.608   9.564 -0.1023 -0.0684 -0.1349
25897W        W32497  22.495   0.620  29.277  0.2295 -0.0271 -0.3728
25898W        W32498  13.136   0.534   2.221 -0.1500 -0.1802  0.0771
25899W        W32499   0.278   3.668  33.512  0.1239 -0.0886 -0.2495
25900W        W32500  21.198   6.608  10.460  0.1249 -0.1243 -0.0807
25901W        W32501  15.867   0.897   2.774  0.1517  0.0726 -0.1235
25902W        W32502  25.720   5.712  31.439 -0.0140 -0.1306 -0.2764
25903W        W32503  21.869   0.647  21.394  0.0074 -0.5603 -0.1254
25904W        W32504  10.218   0.048   2.043 -0.0293  0.0049  0.0054
25905W        W32505  26.127   6.285  30.302 -0.1317 -0.0866 -0.0840
25906W        W32506  10.621   1.521   9.288 -0.2733  0.0374  0.1356
25907W        W32507  24.431   6.047  29.145 -0.0034 -0.0049  0.2948
25908W        W32508  22.540   1.030  35.273  0.1428  0.3632  0.2734
25909W        W32509  15.098   4.261  10.339 -0.0647 -0.0205 -0.2854
25910W        W32510  10.140   6.587  22.133 -0.0270 -0.1871 -0.3236
25911W        W32511  21.565   2.124  33.394 -0.3009 -0.1459  0.0062
25912W        W32512   2.982   3.989   9.576  0.0238 -0.2048  0.2623
25913W        W32513  22.459   6.111  25.075  0.0208 -0.2713 -0.2310
25914W        W32514  26.056   0.967  34.321 -0.0747  0.0760  0.3291
25915W        W32515   7.700   5.181  12.908  0.0133  0.0403  0.0107
25916W        W32516   5.196   0.003   2.231  0.3917 -0.1114  0.1425
25917W        W32517   0.973   2.991   0.309 -0.3660  0.0958  0.0509
25918W        W32518  21.380   1.501  30.793  0.3255 -0.2186 -0.0238
25919W        W32519  25.880   2.657   0.055 -0.1458 -0.2877 -0.2639
25920W        W32520   6.069   3.653   6.130 -0.1561 -0.0047 -0.1657
25921W        W32521  15.034   2.621  23.148 -0.2406 -0.2529 -0.0276
25922W        W32522  14.787   5.559  32.918 -0.1310  0.0726  0.0021
25923W        W32523   1.033   4.536  23.627 -0.4958 -0.1543 -0.0963
25924W        W32524  21.607   2.179  11.892  0.3210 -0.2912 -0.2148
25925W        W32525  25.641   6.296  14.277  0.1807  0.2755  0.0848
25926W        W32526  20.470   0.420   1.708 -0.1197  0.0053 -0.1789
25927W        W32527   8.462   2.920  29.347 -0.0648 -0.2599  0.2089
25928W        W32528   8.166   2.236   8.632 -0.2990  0.0364  0.2327
25929W        W32529   9.795   6.224   4.873  0.0330  0.0192  0.1254
25930W        W32530  10.548   2.709   7.845 -0.0692 -0.0554 -0.0822
25931W        W32531   1.379   6.295   5.056  0.0952  0.1382  0.1682
25932W        W32532  17.649   2.259   0.136  0.2692  0.0712  0.0331
25933W        W32533   9.782   5.023  13.437 -0.1774 -0.2262  0.0092
25934W        W32534   9.720   1.431  33.730 -0.0566  0.1053 -0.0336
25935W        W32535  10.140   4.004  25.278 -0.0091 -0.0865 -0.3430
25936W        W32536   8.467   4.158  12.520 -0.0877  0.1214  0.1385
25937W        W32537  10.982   2.471  32.550 -0.2592 -0.0172  0.0136
25938W        W32538   7.859   6.442  20.973 -0.0271 -0.1508 -0.0750
25939W        W32539   2.340   1.400   6.947 -0.2598  0.1818 -0.2230
25940W        W32540  24.208   0.986   4.508 -0.0970 -0.3097 -0.0196
25941W        W32541  22.989   5.278   1.384 -0.0698 -0.1358  0.0152
25942W        W32542  25.786   3.331   0.248  0.2240  0.1976  0.0309
25943W        W32543  26.278   4.209   7.764 -0.1137 -0.2241 -0.0601
25944W        W32544   2.990   0.571  23.989  0.1912  0.0949  0.0182
25945W        W32545   9.655   6.435  29.873 -0.2157  0.0116  0.4346
25946W        W32546   1.047   4.340   9.100  0.1807 -0.2016 -0.0349
25947W        W32547  20.754   2.397  21.532 -0.0836 -0.1143  0.0376
25948W        W32548  15.344   3.389  14.379 -0.0708 -0.1631  0.1302
25949W        W32549   8.657   4.823  34.284  0.0055  0.0124 -0.0866
25950W        W32550  13.593   4.060  30.587  0.0067  0.0766 -0.1158
25951W        W32551  25.459   2.135  29.501  0.0022 -0.2140 -0.1213
25952W        W32552  11.520   1.271   4.899 -0.0757  0.2247 -0.5789
25953W        W32553  18.839   2.152  35.634  0.1663 -0.1942 -0.1244
25954W        W32554  24.679   3.578  36.168 -0.0125  0.0084 -0.0375
25955W        W32555   6.622   3.244  30.673  0.4057  0.1788 -0.0313
25956W        W32556   9.321   1.923   3.523 -0.0425  0.0528  0.0448
25957W        W32557   2.464   3.847   9.302  0.2718 -0.3912  0.1484
25958W        W32558  24.431   3.453  11.957 -0.0754  0.0002  0.1897
25959W        W32559  22.026   4.890  31.852 -0.2950 -0.0971 -0.5863
25960W        W32560   7.642   2.323  35.335 -0.3679  0.3611 -0.4032
25961W        W32561  12.698   3.015  14.470  0.1156  0.0166  0.1558
25962W        W32562  20.730   1.018  14.348  0.1421  0.2206  0.3171
25963W        W32563  18.549   1.227  33.208 -0.0460  0.0600 -0.0880
25964W        W32564  19.565   0.208  22.492 -0.0844 -0.3429  0.0145
25965W        W32565   0.860   1.568  32.694  0.0521 -0.0905 -0.0075
25966W        W32566  12.795   1.845  13.893 -0.1261  0.1095  0.3958
25967W        W32567   5.376   1.664  22.600 -0.3673  0.1907 -0.0919
25968W        W32568  11.611   0.878  23.106  0.0767  0.0125 -0.2826
25969W        W32569  10.272   5.073  29.086 -0.1146 -0.1323  0.0600
25970W        W32570  17.823   2.257  15.154 -0.3674 -0.1346 -0.0103
25971W        W32571  13.094   6.125   4.003 -0.0028 -0.1976  0.0363
25972W        W32572  13.554   2.636  27.545 -0.3112  0.0433 -0.0978
25973W        W32573   8.589   3.493  35.799 -0.0192 -0.0766 -0.3787
25974W        W32574   7.409   6.148  22.960 -0.1673 -0.0472  0.2994
25975W        W32575  24.506   3.820  32.849  0.0856  0.0911  0.4247
25976W        W32576   2.765   6.302  34.451  0.0102 -0.3192 -0.0135
25977W        W32577  11.783   3.826  13.290 -0.0025 -0.1049 -0.2944
25978W        W32578  17.227   1.971  22.513  0.1883 -0.0018  0.1619
25979W        W32579   4.482   1.250  25.926  0.5404 -0.3479  0.0814
25980W        W32580   7.065   1.859  26.376 -0.0551  0.0489 -0.1639
25981W        W32581  14.438   2.630  25.561  0.0041 -0.3620  0.1317
25982W        W32582  21.180   1.069  28.934 -0.1061  0.2862  0.2190
25983W        W32583  20.093   1.447  28.224  0.2066  0.2042  0.1236
25984W        W32584   7.443   0.021   3.761 -0.1257 -0.0145 -0.0029
25985W        W32585  15.539   0.929   1.302  0.0932 -0.1484  0.0730
25986W        W32586  10.301   6.169  27.207  0.0650  0.1171 -0.1606
25987W        W32587   0.214   2.950  12.872  0.1825 -0.1383  0.1771
25988W        W32588   2.017   4.913  30.886  0.1351  0.1294  0.2153
25989W        W32589  25.535   0.725  32.929  0.0069  0.0126 -0.0726
25990W        W32590  26.089   3.860   5.002  0.0416 -0.2113  0.0401
25991W        W32591  10.482   3.771   5.059  0.1937 -0.2738  0.1119
25992W        W32592  13.984   2.567  28.189 -0.1236 -0.1339  0.3959
25993W        W32593   9.598   6.122  21.159 -0.0843 -0.1295  0.3120
25994W        W32594  12.626   3.021  12.445 -0.1625  0.0463  0.1250
25995W        W32595   7.276   3.362   6.557 -0.0008  0.0757 -0.0719
25996W        W32596  15.041   3.764  14.556 -0.3044  0.2409  0.1974
25997W        W32597  25.562   1.556  34.919  0.0713 -0.0608 -0.2181
25998W        W32598   9.440   4.690   1.557  0.0654 -0.0890  0.0107
25999W        W32599   1.018   6.510  11.385 -0.2985  0.1851  0.1816
26000W        W32600   3.564   3.476   6.027 -0.0180 -0.1544 -0.2675
26001W        W32601  14.154   1.845  27.553 -0.2406  0.0202  0.0689
26002W        W32602   4.157   4.750  32.825 -0.1769  0.1557 -0.0071
26003W        W32603  17.968   6.247  35.026  0.0371 -0.0275  0.2041
26004W        W32604  20.223   0.164   6.571 -0.0903 -0.0983  0.0636
26005W        W32605   1.330   0.692  13.503 -0.1337  0.1986 -0.0196
26006W        W32606  22.423   2.285   6.050  0.0698 -0.0983  0.0285
26007W        W32607  22.194   4.768  10.925 -0.2907 -0.3072  0.0908
26008W        W32608  22.169   2.435  25.316  0.0562  0.1965 -0.1768
26009W        W32609  15.369   1.219   4.486 -0.1100  0.1899  0.1974
26010W        W32610  12.674   3.700  12.601  0.0885 -0.1189 -0.1538
26011W        W32611  24.093   4.313  25.349 -0.0257 -0.0671  0.0394
26012W        W32612  14.422   4.246  32.177  0.2130  0.0405  0.1026
26013W        W32613  17.523   1.555  23.666 -0.0696 -0.1940 -0.3633
26014W        W32614  22.224   3.341   0.266  0.1252 -0.0958 -0.1128
26015W        W32615  16.233   2.078  29.224 -0.0115  0.1794 -0.2638
26016W        W32616   1.028   4.548  27.115  0.0101  0.4494  0.1887
26017W        W32617   5.949   5.582   2.834 -0.0980 -0.0795 -0.0719
26018W        W32618   4.545   0.352  32.159  0.2757 -0.1807  0.2515
26019W        W32619   9.982   6.109  20.836  0.0347 -0.1913 -0.2030
26020W        W32620   6.870   4.002   7.863 -0.2183 -0.1618  0.1451
26021W        W32621  19.127   5.093   3.587 -0.5613 -0.1148 -0.2521
26022W        W32622  22.689   3.808  13.793  0.1252  0.2245  0.0355
26023W        W32623   4.725   6.070  26.470  0.3467 -0.1654 -0.3091
26024W        W32624  19.049   1.208   2.766 -0.2733 -0.1622  0.2506
26025W        W32625   6.082   3.821   9.391 -0.1652 -0.0006  0.1762
26026W        W32626   9.504   2.995  31.547  0.1151 -0.2195  0.2243
26027W        W32627  11.268   0.232   1.875  0.0446 -0.0019  0.0766
26028W        W32628   4.950   5.744  29.809  0.2312  0.0293  0.0849
26029W        W32629  18.552   3.342  12.148  0.0766  0.1085  0.1713
26030W        W32630  17.969   3.196  13.965  0.1445  0.3287 -0.0576
26031W        W32631  21.671   6.504  14.763 -0.2573 -0.0465  0.2846
26032W        W32632  18.426   1.302   4.687 -0.2414 -0.2027 -0.2762
26033W        W32633  24.741   1.659  21.671 -0.1827 -0.0057  0.0571
26034W        W32634  25.370   3.168  12.995  0.0243 -0.0525 -0.0981
26035W        W32635   0.691   0.521  33.367  0.2645  0.1634 -0.1740
26036W        W32636  23.492   5.117  24.480  0.1102 -0.1276  0.1749
26037W        W32637  12.189   4.849  35.419 -0.1423 -0.2069  0.0927
26038W        W32638   3.897   4.486  33.814 -0.2524  0.2096 -0.0899
26039W        W32639  24.547   3.258  34.979 -0.1473  0.1771 -0.1503
26040W        W32640   6.794   4.891  29.446 -0.1602 -0.0210 -0.0844
26041W        W32641   7.520   5.261  34.649 -0.1405  0.0608  0.1850
26042W        W32642  20.004   4.329  20.766  0.1292 -0.2413  0.2224
26043W        W32643  10.502   6.432  29.716  0.0675  0.1903 -0.2444
26044W        W32644   4.545   6.017   3.577  0.1310 -0.0165 -0.0796
26045W        W32645  23.535   4.018  29.977 -0.0150  0.4974 -0.1042
26046W        W32646   3.136   3.878  35.621 -0.1342 -0.0317 -0.0995
26047W        W32647   1.196   3.987  24.909  0.2348 -0.0486 -0.2156
26048W        W32648  23.101   0.640   6.153  0.5230  0.3011  0.0840
26049W        W32649   0.867   5.937  35.824  0.0238  0.1774  0.0175
26050W        W32650   2.717   3.233   1.041 -0.1237 -0.0876  0.0211
26051W        W32651   0.090   0.911  27.520 -0.1017  0.0356 -0.2295
26052W        W32652  14.106   1.349  28.899 -0.2754 -0.1159  0.2383
26053W        W32653  12.847   0.334  30.693  0.2551 -0.1548 -0.0157
26054W        W32654   2.996   6.229   6.823  0.0865 -0.1198 -0.2764
26055W        W32655  21.682   4.655   4.009 -0.0836 -0.1559  0.0802
26056W        W32656  16.826   1.633   8.584 -0.0608 -0.0512 -0.0945
26057W        W32657  11.287   2.230  27.772 -0.0935  0.0448  0.0559
26058W        W32658   1.134   1.337  28.494  0.0227 -0.0698 -0.1350
26059W        W32659   8.430   1.747  11.294  0.2672  0.1533  0.0266
26060W        W32660  15.500   2.255  31.859 -0.1058 -0.3342 -0.2517
26061W        W32661   3.203   5.945  15.504  0.1153 -0.1008 -0.0840
26062W        W32662  23.564   2.176  21.070 -0.2589 -0.1970  0.0480
26063W        W32663   2.745   1.720   7.954 -0.2912  0.0508 -0.3292
26064W        W32664   7.552   5.024  30.026  0.3464 -0.1250 -0.1446
26065W        W32665   8.938   2.452  21.711  0.0732  0.0160  0.0070
26066W        W32666   5.910   0.152  14.308 -0.0997  0.0427  0.2965
26067W        W32667  26.009   1.272  23.249  0.0673 -0.1852 -0.1161
26068W        W32668  24.958   4.922   2.431  0.2738 -0.0315 -0.2623
26069W        W32669  13.321   4.362  14.001 -0.0861 -0.1411 -0.0471
26070W        W32670  17.033   0.350   2.460  0.0393  0.1146 -0.0530
26071W        W32671   1.983   1.215  11.110  0.1126  0.2087  0.0147
26072W        W32672  13.379   4.968   8.508 -0.1831 -0.0035  0.1114
26073W        W32673   5.817   5.284  11.878  0.0861 -0.0788 -0.0709
26074W        W32674  15.371   4.622  30.651  0.1585 -0.1629 -0.3032
26075W        W32675  10.004   5.389  33.677  0.0218  0.0413 -0.2001
26076W        W32676   7.409   3.363  26.485 -0.1561  0.0245 -0.2319
26077W        W32677  16.045   2.297  33.560  0.0177 -0.1695 -0.2364
26078W        W32678   7.592   1.189  10.341  0.2037  0.0903 -0.4179
26079W        W32679  12.156   1.124  32.284 -0.3184  0.2487  0.0600
26080W        W32680   0.517   5.202   0.725 -0.0052 -0.0930  0.3685
26081W        W32681  20.725   5.893  27.473  0.0052 -0.2323  0.1543
26082W        W32682  14.550   2.755  31.868 -0.0546  0.1635 -0.1332
26083W        W32683  17.669   0.603   2.530  0.2189 -0.2264 -0.0795
26084W        W32684  12.404   2.377  21.650 -0.1656  0.0328  0.0091
26085W        W32685  15.396   5.020   8.984  0.1921  0.4503 -0.1813
26086W        W32686  18.011   0.383  34.417 -0.1139  0.0027  0.1345
26087W        W32687  16.656   5.558  31.986  0.0388  0.2998 -0.0269
26088W        W32688   0.205   3.823   8.922  0.0753  0.3218 -0.0642
26089W        W32689  21.448   5.721  30.169 -0.2171  0.1401 -0.2184
26090W        W32690  12.617   1.909  21.792  0.0516  0.0910 -0.1670
26091W        W32691  14.293   1.807  12.030  0.0454  0.0037 -0.1460
26092W        W32692  20.942   0.124  31.640 -0.3079 -0.1328  0.2739
26093W        W32693  22.657   4.035  25.557 -0.1402 -0.0089  0.1164
26094W        W32694   5.639   2.484  24.665 -0.1442 -0.1084  0.1829
26095W        W32695  10.323   5.216  33.229 -0.0020 -0.3614  0.1309
26096W        W32696   6.658   0.462  11.034  0.1641 -0.3723 -0.1344
26097W        W32697  17.701   6.170   7.791 -0.2656 -0.2200 -0.2984
26098W        W32698  16.228   5.363   3.454  0.0748 -0.0522 -0.1860
26099W        W32699  17.929   5.911  23.051 -0.1224  0.1622  0.1648
26100W        W32700   3.459   0.410  24.368  0.1716  0.1117 -0.0759
26101W        W32701   1.473   1.077  20.836  0.3499 -0.0854  0.3623
26102W        W32702   0.518   3.423  12.783  0.0312 -0.2512 -0.0588
26103W        W32703  13.793   0.749  23.919  0.1695 -0.2027 -0.0768
26104W        W32704  19.767   5.609   2.777 -0.1051 -0.0725 -0.0186
26105W        W32705   8.113   2.583  11.590 -0.5238  0.0459 -0.1148
26106W        W32706  14.136   6.495  34.917  0.0148 -0.0010 -0.0528
26107W        W32707  21.186   3.901  14.030  0.1482  0.0366 -0.0842
26108W        W32708   1.321   4.897  21.103 -0.0959 -0.3329 -0.0014
26109W        W32709  14.249   2.471  26.154  0.0659  0.2950 -0.4695
26110W        W32710  23.027   3.844  35.931 -0.0713 -0.0300 -0.0709
26111W        W32711  23.873   0.831  26.491  0.1378 -0.1846  0.2075
26112W        W32712  11.541   3.957  10.451 -0.0658  0.0232 -0.0871
26113W        W32713  11.688   2.506   3.541 -0.0370 -0.3083 -0.2617
26114W        W32714   1.737   5.001  34.331  0.2901 -0.2126 -0.0951
26115W        W32715  20.181   1.941  20.417 -0.0686  0.1521  0.0755
26116W        W32716  10.342   3.227  30.677 -0.0662 -0.0577 -0.3441
26117W        W32717   1.395   2.909  23.911 -0.0970  0.0369  0.1658
26118W        W32718  20.484   3.969  21.858 -0.0652 -0.2007 -0.0756
26119W        W32719  23.940   1.722   9.785  0.0285  0.1192 -0.1491
26120W        W32720  18.883   6.133  14.877 -0.2523  0.0029  0.1051
26121W        W32721  11.418   2.597  15.263  0.1018 -0.1588 -0.1451
26122W        W32722  20.646   1.791   4.090  0.3188 -0.2461 -0.2188
26123W        W32723  22.656   2.426  23.791 -0.0748  0.0645  0.2972
26124W        W32724  25.822   4.788  22.549 -0.0116  0.0870  0.2331
26125W        W32725  12.815   0.364  29.415 -0.2096 -0.1261  0.2668
26126W        W32726  14.426   5.263   8.285 -0.0422 -0.0690 -0.2334
26127W        W32727  18.543   3.671   6.933  0.0643  0.2516  0.0516
26128W        W32728  16.910   0.491  26.948  0.0581 -0.1174  0.1727
26129W        W32729   5.735   5.691  26.389 -0.1413 -0.1657  0.1262
26130W        W32730  20.560   1.658   9.229 -0.0221 -0.0543 -0.1408
26131W        W32731  17.052   6.399  13.130  0.1218  0.1292 -0.1462
26132W        W32732   4.606   2.956  25.326  0.1008  0.1784  0.1756
26133W        W32733  20.786   2.617  32.967  0.2245 -0.1142 -0.0556
26134W        W32734  16.024   2.294  26.377 -0.2176 -0.1339  0.0756
26135W        W32735  15.927   5.200   0.251 -0.1637  0.3049  0.0849
26136W        W32736  10.549   1.153  33.217  0.1003 -0.2635 -0.0948
26137W        W32737  16.018   5.843   3.520 -0.2292 -0.0593  0.3333
26138W        W32738  10.347   5.419   9.358  0.1883  0.1404 -0.2962
26139W        W32739   2.895   2.327  13.025 -0.1462 -0.0540  0.3538
26140W        W32740  14.974   0.693  32.419 -0.0702 -0.0275 -0.1350
26141W        W32741   3.132   2.775   3.971  0.2280  0.0921  0.0629
26142W        W32742   5.743   0.180  13.826  0.2015  0.2229  0.1700
26143W        W32743  10.855   0.128  30.261  0.0757  0.1027 -0.0023
26144W        W32744  12.202   1.880  33.317  0.0002  0.2526  0.2579
26145W        W32745  23.428   1.612  27.824 -0.1399 -0.3439 -0.0228
26146W        W32746  22.782   3.841  29.675 -0.0379 -0.1527  0.1973
26147W        W32747  17.642   0.561  13.939 -0.1914  0.4015 -0.0252
26148W        W32748  21.182   5.609  11.885 -0.1265 -0.1078  0.0215
26149W        W32749   8.320   1.437  21.575 -0.1733 -0.1564  0.0508
26150W        W32750   7.553   5.526  26.189 -0.0159 -0.0073  0.0138
26151W        W32751  17.078   0.625  30.079  0.0618  0.2394  0.0576
26152W        W32752  12.171   4.137  20.410 -0.0003  0.1950 -0.0197
26153W        W32753  20.905   3.031  32.682 -0.0767  0.0527 -0.5335
26154W        W32754  24.552   6.122  32.598 -0.0867 -0.0256 -0.1160
26155W        W32755  20.325   4.434  22.668  0.1375 -0.1405  0.1863
26156W        W32756   7.428   5.627  21.258  0.3800  0.1649  0.1221
26157W        W32757   7.594   2.460  32.771  0.1754 -0.0938 -0.1067
26158W        W32758   2.855   5.613  22.398 -0.0521 -0.0127  0.0809
26159W        W32759  11.091   2.141  24.140  0.2268  0.0378  0.1386
26160W        W32760  22.557   6.554  24.309  0.1514 -0.1695 -0.3808
26161W        W32761  20.332   5.948  33.895  0.2258 -0.3276 -0.2185
26162W        W32762   7.000   3.005  11.638  0.1464 -0.3284  0.0644
26163W        W32763  14.932   5.716  35.652  0.0931 -0.1070  0.1070
26164W        W32764  15.959   1.621   6.133 -0.0696 -0.1014 -0.1569
26165W        W32765   1.590   4.494  29.210  0.2103 -0.1913 -0.1881
26166W        W32766  18.202   3.501  26.366 -0.0069  0.0831 -0.1848
26167W        W32767   9.288   1.924  14.415 -0.1749  0.2511  0.0860
26168W        W32768  15.392   2.857  23.567  0.0922 -0.2343  0.1155
26169W        W32769  12.365   3.633   1.460  0.3014 -0.1709 -0.0687
26170W        W32770   8.339   3.309  12.327 -0.0752 -0.0525 -0.1880
26171W        W32771  14.747   4.527  10.003 -0.0051 -0.2130 -0.1927
26172W        W32772   9.620   2.204   1.433 -0.0681  0.0761  0.1468
26173W        W32773  19.257   5.814  29.510 -0.0725 -0.0321 -0.5595
26174W        W32774   8.927   5.435  13.749 -0.0033 -0.0218 -0.1977
26175W        W32775   0.062   1.583  29.991 -0.0731 -0.2340  0.1761
26176W        W32776   1.054   4.277   2.313  0.0341 -0.0931 -0.1756
26177W        W32777  18.868   4.255  10.711 -0.0037  0.0431  0.1328
26178W        W32778   4.689   6.595  30.194  0.3040  0.1512  0.0593
26179W        W32779  16.456   6.338  20.634  0.0562  0.2745  0.0048
26180W        W32780   3.223   5.614  30.965 -0.1252 -0.3498  0.0348
26181W        W32781  19.936   2.234  11.956  0.1125  0.1659 -0.3030
26182W        W32782   7.012   3.528  27.818 -0.1135  0.2012 -0.5702
26183W        W32783  16.531   0.840  33.791  0.1471  0.0404  0.0033
26184W        W32784   3.938   0.026   0.596  0.1384 -0.0352  0.2875
26185W        W32785  24.922   3.475   4.952 -0.3499  0.2586  0.0544
26186W        W32786  10.763   2.116  22.738 -0.2398 -0.0819 -0.1632
26187W        W32787   4.349   0.809   9.082 -0.3081 -0.0255 -0.2852
26188W        W32788  12.830   4.845  15.530  0.1679  0.4329 -0.1712
26189W        W32789  14.430   5.056  10.459  0.2891 -0.2757  0.0359
26190W        W32790   4.889   0.152   7.534 -0.1689 -0.1661 -0.3911
26191W        W32791   0.083   1.507  23.117  0.2200  0.1674 -0.0359
26192W        W32792  25.053   6.081  23.451 -0.1097 -0.2460 -0.1140
26193W        W32793  16.136   5.006  15.061  0.1147 -0.1401 -0.2698
26194W        W32794  16.022   1.936  27.403  0.1592 -0.0386  0.0729
26195W        W32795   4.332   1.296  10.231  0.3349 -0.0024  0.0437
26196W        W32796  16.863   6.223  21.337 -0.2221  0.3425  0.0827
26197W        W32797  17.515   1.386  10.262  0.1996 -0.1966  0.0538
26198W        W32798  18.471   2.199  12.856  0.3676  0.1842  0.1471
26199W        W32799  22.333   2.785  32.321  0.0626 -0.0010  0.1961
26200W        W32800  11.633   2.194  27.393 -0.0211  0.2680  0.2605
26201W        W32801  23.261   3.439  27.982 -0.3620 -0.1427 -0.0100
26202W        W32802   1.020   1.723  15.967  0.0378  0.0752 -0.2943
26203W        W32803  18.195   6.285  32.692 -0.3097  0.1201  0.1864
26204W        W32804  18.992   3.763  29.403  0.0424 -0.0193  0.2591
26205W        W32805  12.063   1.919   4.247  0.1513 -0.0035 -0.0644
26206W        W32806  12.367   3.068  21.066  0.0424  0.1852  0.0296
26207W        W32807   2.494   5.086  33.482 -0.2409  0.0280  0.1685
26208W        W32808  17.423   4.194  31.802  0.1122  0.1270  0.0029
26209W        W32809   4.732   6.175  28.235 -0.2420 -0.0512 -0.0593
26210W        W32810   3.390   4.096   7.887  0.1868  0.0214  0.3957
26211W        W32811  16.028   3.619   6.966  0.0960 -0.3467 -0.0316
26212W        W32812  10.185   6.005  28.031  0.2802 -0.3897  0.0316
26213W        W32813   4.265   4.659  28.073  0.2711  0.1286  0.1518
26214W        W32814  16.185   2.906  34.525  0.0888 -0.2642  0.1539
26215W        W32815   3.377   4.641  32.048  0.0289 -0.2202  0.0488
26216W        W32816  16.178   1.660  21.829 -0.0368 -0.1200 -0.1207
26217W        W32817  12.111   1.522  21.886  0.1529 -0.1013 -0.1237
26218W        W32818  12.707   4.296  14.988  0.0703  0.3386 -0.0451
26219W        W32819  12.031   1.410  27.777 -0.0987 -0.1324  0.2626
26220W        W32820   3.457   4.467  12.994 -0.4007 -0.0225 -0.0687
26221W        W32821   4.010   5.690   0.112  0.0024 -0.0555 -0.2375
26222W        W32822  12.898   1.250  29.213  0.0770 -0.1400  0.2999
26223W        W32823   1.867   2.203  31.612  0.0093 -0.1420 -0.2566
26224W        W32824  19.395   2.898  25.428 -0.0165 -0.0320  0.1319
26225W        W32825  26.313   4.211  14.053  0.1164 -0.0418 -0.3305
26226W        W32826  18.255   5.861  35.144  0.0140  0.0315  0.0856
26227W        W32827  18.551   3.163   7.866 -0.2868  0.0831 -0.1054
26228W        W32828   8.103   3.370   6.971 -0.0602  0.2550  0.0596
26229W        W32829   8.709   5.675  30.472 -0.1027 -0.0709  0.1522
26230W        W32830  11.521   5.425  13.551  0.2496 -0.0859  0.0773
26231W        W32831   5.365   4.197  25.014  0.2163 -0.1555  0.1317
26232W        W32832   7.043   3.023  30.806  0.3884 -0.3425  0.3310
26233W        W32833   5.226   1.526  10.170 -0.0364 -0.2067 -0.2263
26234W        W32834   3.605   0.473  20.269 -0.0582  0.0301  0.3882
26235W        W32835   9.734   2.846  32.407 -0.0532 -0.1510 -0.1437
26236W        W32836  25.186   1.088  27.159 -0.1590  0.2222 -0.0414
26237W        W32837  16.495   1.663   6.099  0.0012  0.0724  0.1517
26238W        W32838  24.269   0.437  27.368 -0.1594 -0.3573 -0.0282
26239W        W32839  15.869   4.105  10.445  0.1936  0.1302 -0.3158
26240W        W32840  14.083   2.014   3.471  0.0472 -0.1800  0.0758
26241W        W32841   2.532   5.464  23.184 -0.0485 -0.1403  0.2295
26242W        W32842   0.079   2.940   1.212  0.1646  0.0134 -0.0322
26243W        W32843   9.514   0.793  26.148  0.1803  0.0134 -0.2831
26244W        W32844  24.796   2.231  21.754  0.1776 -0.1063 -0.0207
26245W        W32845  21.937   6.480  11.667 -0.5793  0.1267  0.3329
26246W        W32846  25.301   1.535  14.796  0.2861 -0.1863 -0.2416
26247W        W32847   6.023   5.651  25.482 -0.0089 -0.1229  0.0697
26248W        W32848  21.928   3.070  11.796  0.2813 -0.2776  0.0627
26249W        W32849  16.848   1.294   5.448  0.0197  0.2037 -0.2230
26250W        W32850  15.009   2.406  34.942  0.0271 -0.1420  0.0781
26251W        W32851   2.748   5.307  20.953 -0.4419 -0.1449  0.0590
26252W        W32852  15.955   1.576  12.485 -0.1048 -0.0693  0.0065
26253W        W32853  23.376   3.152  28.549  0.1069  0.2993  0.0760
26254W        W32854  17.901   4.500   8.483  0.0498  0.1471 -0.0258
26255W        W32855   5.676   6.556   6.818 -0.3342  0.0922 -0.3433
26256W        W32856  22.954   1.067   3.135  0.1567 -0.0138  0.1310
26257W        W32857  19.247   4.593   6.092 -0.0779  0.0656  0.0415
26258W        W32858  11.588   2.905   8.020  0.1870  0.1270 -0.0441
26259W        W32859   3.728   0.080  14.257 -0.1995 -0.1713 -0.1586
26260W        W32860  10.538   2.995   3.553 -0.0988  0.1472 -0.2159
26261W        W32861   4.517   1.336  15.004  0.1943  0.1392 -0.0785
26262W        W32862   3.530   3.129  21.849  0.0248 -0.2075 -0.2675
26263W        W32863   5.935   5.991  23.745  0.1557 -0.2395  0.2150
26264W        W32864  13.705   6.429  30.022 -0.0103  0.0197 -0.0428
26265W        W32865  10.259   3.416   1.828 -0.3821 -0.0203 -0.3343
26266W        W32866  18.879   2.012  23.350 -0.0801  0.0168  0.0745
26267W        W32867  10.967   5.734   1.815  0.1081 -0.0959 -0.0074
26268W        W32868   9.940   3.249  21.235  0.0005  0.3871 -0.0184
26269W        W32869  12.682   2.104  21.336 -0.0179 -0.3306  0.0194
26270W        W32870  25.414   1.410  21.296  0.0804  0.0508  0.0733
26271W        W32871   7.931   5.177  26.572 -0.2602 -0.2732  0.2686
26272W        W32872  13.940   0.405  32.457 -0.1084 -0.0239  0.2368
26273W        W32873  17.291   1.729   1.310  0.1953  0.0378  0.2392
26274W        W32874   1.452   5.621   6.150  0.0223  0.0079 -0.1838
26275W        W32875  22.515   5.922  12.972  0.0504  0.0201  0.2769
26276W        W32876  22.787   6.196  34.577  0.0864  0.0598 -0.3814
26277W        W32877   0.948   4.841  11.301 -0.0032 -0.0919  0.1209
26278W        W32878  12.060   6.382  33.993 -0.0215  0.0498 -0.1028
26279W        W32879   4.733   1.107  29.383 -0.1160 -0.0728  0.1145
26280W        W32880   5.916   5.099  35.493 -0.1071  0.2657  0.0901
26281W        W32881  21.553   6.041   9.295  0.0325  0.0672 -0.1127
26282W        W32882   0.963   2.417   0.068  0.3365  0.0329  0.2800
26283W        W32883  17.608   1.062   2.111 -0.0722  0.1395 -0.3666
26284W        W32884  19.419   0.703  31.406  0.1127  0.1365 -0.2560
26285W        W32885   8.220   5.110  14.858 -0.0539 -0.1807 -0.3652
26286W        W32886   4.945   0.109   8.116  0.2278  0.0333 -0.0685
26287W        W32887   2.588   4.148  27.453 -0.1048 -0.1188 -0.1444
26288W        W32888   9.393   2.378   1.868 -0.1490  0.2402 -0.0333
26289W        W32889  12.633   6.548  22.007  0.2040  0.0871  0.1404
26290W        W32890   8.985   2.347  30.814 -0.0215  0.2168 -0.1516
26291W        W32891  25.588   4.914  30.509 -0.2191  0.0976 -0.2421
26292W        W32892  25.790   4.556  34.436 -0.0407  0.0572  0.0767
26293W        W32893   7.318   1.988  33.111 -0.2956 -0.0786 -0.0357
26294W        W32894  11.457   1.810   4.938 -0.2968 -0.2970  0.0649
26295W        W32895  23.603   2.712   0.960  0.0887  0.1360 -0.0040
26296W        W32896   3.265   4.056   9.177  0.0538 -0.1695 -0.0735
26297W        W32897  13.241   0.203  29.683  0.3987 -0.0746  0.2356
26298W        W32898  17.405   1.605   0.557 -0.2846  0.0782 -0.1542
26299W        W32899   1.876   4.790  35.461 -0.1681 -0.0716 -0.0736
26300W        W32900  11.115   4.586  28.031  0.2525  0.0909  0.0939
26301W        W32901   9.935   1.890   6.728  0.1728 -0.2320 -0.0378
26302W        W32902  22.584   5.144  13.235  0.0470  0.0509 -0.1173
26303W        W32903  26.218   5.317  23.358  0.2125 -0.0123 -0.0623
26304W        W32904  13.578   6.016   5.235  0.2639 -0.2087  0.3266
26305W        W32905   8.289   4.562  29.825 -0.1400 -0.0147 -0.0256
26306W        W32906   5.121   3.456  21.760 -0.1454 -0.0886  0.0292
26307W        W32907  23.430   5.612  35.476 -0.1630 -0.1692 -0.2353
26308W        W32908   4.035   4.658   2.822 -0.1052  0.3051 -0.0361
26309W        W32909  10.005   0.785  36.129  0.0357 -0.2399 -0.0648
26310W        W32910  23.255   4.159   3.793  0.0102 -0.0872  0.1373
26311W        W32911  23.812   2.215  10.436  0.4111 -0.1910 -0.1061
26312W        W32912  11.032   1.491  24.610  0.1473  0.1591 -0.1217
26313W        W32913   7.058   0.686  25.147 -0.0208  0.0760 -0.0756
26314W        W32914  21.795   3.763   9.926  0.1545 -0.1871 -0.0094
26315W        W32915   9.383   2.815  24.507  0.0773  0.0093 -0.2783
26316W        W32916  12.325   4.688   3.689  0.1631  0.0478 -0.3357
26317W        W32917  21.251   3.628   1.095 -0.0808 -0.0815  0.0565
26318W        W32918  11.519   0.552  32.214 -0.2901  0.3378  0.1374
26319W        W32919   6.825   5.136  22.357  0.1377 -0.0514 -0.3169
26320W        W32920   4.752   0.075   9.004  0.2702  0.2050  0.1927
26321W        W32921  16.347   5.187  12.099  0.0760 -0.3358 -0.1494
26322W        W32922   4.995   2.746  20.714  0.2422 -0.3339 -0.0331
26323W        W32923   7.638   6.466   0.569 -0.0577 -0.0400 -0.3826
26324W        W32924   3.439   0.540  14.898 -0.0748 -0.1363  0.3057
26325W        W32925  13.981   4.784  28.776 -0.1691 -0.1490 -0.0910
26326W        W32926  18.340   3.575  31.808 -0.0468  0.0986 -0.0674
26327W        W32927  17.554   0.176   9.987 -0.0085  0.0540  0.2545
26328W        W32928   4.146   2.127   1.416  0.0335  0.1585  0.0228
26329W        W32929  25.551   1.660   7.590  0.0250 -0.0290 -0.4062
26330W        W32930  16.043   1.158  10.563  0.4829 -0.0655  0.1693
26331W        W32931   0.763   4.603  28.756 -0.1709 -0.1230 -0.0497
26332W        W32932   7.364   1.258  36.021  0.0281 -0.0636  0.0936
26333W        W32933   5.532   5.041  12.931 -0.2155  0.1250 -0.2062
26334W        W32934   0.977   4.818   2.266 -0.1030 -0.0426  0.1768
26335W        W32935   1.651   5.049  10.211 -0.2322 -0.0842 -0.2077
26336W        W32936   2.219   2.502   7.845 -0.2899  0.2535  0.2434
26337W        W32937  14.993   5.995   0.919  0.1224 -0.1732 -0.3322
26338W        W32938  12.350   2.471   8.440 -0.1445 -0.1716 -0.2258
26339W        W32939   7.090   6.309  33.791  0.0657  0.0377 -0.0824
26340W        W32940   5.559   2.316   1.626  0.1516 -0.0075 -0.1646
26341W        W32941  22.210   3.230  14.545  0.1387 -0.1224 -0.1917
26342W        W32942  24.922   3.575  25.251 -0.0499  0.0260  0.0475
26343W        W32943   0.957   2.931  30.932 -0.0816 -0.0325 -0.1118
26344W        W32944   1.055   0.956  23.418 -0.0918 -0.0471  0.4706
26345W        W32945   3.303   3.454   2.280  0.1778 -0.1323  0.2665
26346W        W32946  14.718   1.826   5.751  0.0637  0.5038 -0.1552
26347W        W32947  15.137   2.157  22.971  0.1674 -0.3026 -0.2437
26348W        W32948   6.194   6.544  13.952 -0.1185  0.3255  0.0566
26349W        W32949   6.323   5.689  28.859 -0.2205 -0.0429 -0.0463
26350W        W32950   5.893   1.711  29.072  0.0427  0.2795  0.2514
26351W        W32951   3.515   5.706   8.280 -0.3091  0.0509 -0.2147
26352W        W32952  17.184   1.001  22.144  0.1913 -0.4669 -0.1989
26353W        W32953   7.117   2.139   2.348  0.1680 -0.2825 -0.1419
26354W        W32954  12.375   4.976  15.714  0.1187 -0.2729 -0.0178
26355W        W32955  23.321   0.963  29.818  0.3108  0.0137 -0.0919
26356W        W32956   3.675   6.115  34.616  0.0786  0.0088  0.3044
26357W        W32957  12.674   2.779  14.023  0.0305  0.1873  0.2833
26358W        W32958   3.765   0.385  30.718 -0.0313  0.1545 -0.2794
26359W        W32959   3.711   5.639   5.015  0.0067  0.2262  0.0442
26360W        W32960  24.330   3.859   0.918  0.0841  0.2563 -0.2537
26361W        W32961  19.391   1.357  20.521  0.0915  0.0442 -0.0841
26362W        W32962  21.400   6.555  31.500  0.1094 -0.1469  0.0210
26363W        W32963   4.745   5.140   6.591  0.2741 -0.0304  0.0772
26364W        W32964  14.671   4.026   4.112  0.2245  0.1144  0.1809
26365W        W32965  24.237   2.254   6.216  0.1494 -0.2643  0.1630
26366W        W32966  17.470   6.070   2.625 -0.1029  0.3517  0.1274
26367W        W32967  13.666   2.269   2.776 -0.2681  0.1423  0.1092
26368W        W32968  22.029   5.061  12.788 -0.3842  0.0538  0.1607
26369W        W32969  11.713   3.517   0.899  0.0210  0.2987 -0.1072
26370W        W32970  11.117   4.777  31.164  0.1391 -0.1436  0.0667
26371W        W32971  11.554   3.391  32.714 -0.2510  0.3026 -0.1572
26372W        W32972  23.741   0.608  24.487  0.1074 -0.2087  0.3242
26373W        W32973   8.084   0.733  30.182 -0.0874 -0.2708 -0.2132
26374W        W32974   5.603   5.207  22.477 -0.1058  0.2041 -0.4233
26375W        W32975  12.186   1.427  30.264  0.0209  0.1965 -0.2693
26376W        W32976  16.986   2.863  31.767  0.2408 -0.0017 -0.0208
26377W        W32977  23.205   0.018  33.634  0.1873  0.1818  0.2992
26378W        W32978  13.319   3.073   2.324 -0.2635 -0.0853 -0.1477
26379W        W32979  14.672   4.476   5.179 -0.0095 -0.0642 -0.0254
26380W        W32980  25.095   4.617  12.205 -0.0073 -0.2298 -0.1821
26381W        W32981  10.651   0.862  14.747 -0.3077 -0.0650  0.1770
26382W        W32982  13.320   6.551   9.926  0.0950 -0.1608 -0.1672
26383W        W32983  23.121   0.381  20.481 -0.1246  0.3822 -0.1509
26384W        W32984   3.346   4.528  32.529  0.1885 -0.1554 -0.3043
26385W        W32985   9.620   2.012   9.082 -0.0922 -0.2801 -0.2322
26386W        W32986  22.933   4.648   0.073  0.0268  0.2293 -0.0102
26387W        W32987  10.296   3.285   2.434  0.0259  0.1511 -0.0694
26388W        W32988   1.367   0.647   4.992  0.2454  0.0682 -0.0953
26389W        W32989   7.889   6.342  27.274 -0.0582 -0.0033  0.3556
26390W        W32990   7.476   1.873   8.299 -0.2013  0.5521  0.3874
26391W        W32991  25.961   4.764   4.989  0.0771 -0.0909  0.0424
26392W        W32992  13.503   0.829   8.609  0.4582 -0.0024  0.0196
26393W        W32993   4.934   1.640  30.128  0.1190  0.0361 -0.0548
26394W        W32994   3.585   4.796   2.584  0.2258 -0.0388  0.0072
26395W        W32995  18.923   2.990  25.262  0.0919 -0.0299 -0.1136
26396W        W32996   1.520   5.008   7.894  0.0877 -0.0152 -0.0505
26397W        W32997   8.651   1.779  35.801  0.1874  0.0544 -0.1601
26398W        W32998   2.860   3.580  10.107  0.1724 -0.0757  0.0778
26399W        W32999  23.861   2.983   3.759  0.1556  0.0170 -0.2140
26400W        W33000  21.618   0.977  13.465  0.0652 -0.0802  0.0316
26401W        W33001  16.333   0.433   2.243  0.0911  0.0879 -0.0601
26402W        W33002  16.989   0.141   7.852 -0.0579  0.0232  0.0082
26403W        W33003  22.381   0.455   3.026 -0.0451 -0.0123 -0.0024
26404W        W33004   7.236   4.955  11.445 -0.2378 -0.1838 -0.0771
26405W        W33005   5.987   1.411  32.192  0.0415 -0.0156  0.0464
26406W        W33006  14.137   5.616  24.342  0.0479 -0.1287 -0.4344
26407W        W33007  15.783   3.216   6.735 -0.0218  0.0696  0.3570
26408W        W33008  14.708   2.058  34.196  0.0236  0.0992  0.1386
26409W        W33009  21.180   2.038  23.054 -0.1237  0.0276  0.0216
26410W        W33010   6.401   1.423  31.958  0.1315 -0.2138 -0.0839
26411W        W33011   4.133   3.703   1.914  0.0691 -0.1146  0.0104
26412W        W33012   1.684   3.140  22.799 -0.2758  0.0043 -0.2360
26413W        W33013  11.289   5.371   8.647 -0.0894 -0.1737 -0.1033
26414W        W33014  18.164   3.499  33.482 -0.0259  0.3449  0.1739
26415W        W33015  11.125   0.827  21.808  0.1361  0.0576  0.2291
26416W        W33016   5.641   1.668  31.532 -0.2074 -0.1608  0.0196
26417W        W33017  14.535   6.307  26.685 -0.3321 -0.0096 -0.0245
26418W        W33018   9.745   4.111  14.343 -0.1942 -0.0694 -0.3414
26419W        W33019  18.353   4.226   1.804 -0.0651  0.2751  0.0318
26420W        W33020  15.407   3.389   4.227  0.1011 -0.0127 -0.2529
26421W        W33021  25.740   1.073  12.480 -0.2649 -0.0315 -0.3472
26422W        W33022  17.551   3.818  14.411 -0.0097 -0.0231 -0.0599
26423W        W33023   0.915   1.268  14.145  0.1534 -0.2961  0.0676
26424W        W33024  23.797   3.822  25.372 -0.0635 -0.0143 -0.1661
26425W        W33025   3.105   6.381  29.638 -0.2524  0.1476  0.0441
26426W        W33026   1.507   4.170  20.884 -0.1722 -0.1506 -0.0072
26427W        W33027  17.051   6.055  20.856  0.0203 -0.2751 -0.3352
26428W        W33028  18.709   2.090  21.150  0.0248  0.1144  0.1960
26429W        W33029  10.536   3.384  11.796  0.1621 -0.0015 -0.0031
26430W        W33030   2.554   1.527  34.119 -0.2724 -0.0893 -0.2257
26431W        W33031   4.481   2.721  28.793  0.0314 -0.2794 -0.0247
26432W        W33032  24.868   4.745  22.112 -0.1063 -0.2125  0.2790
26433W        W33033   7.572   6.282   7.656 -0.0045 -0.0718  0.2970
26434W        W33034  15.033   3.192   5.195  0.2605  0.3058 -0.0844
26435W        W33035  22.279   2.593  35.551 -0.1003  0.1382  0.1230
26436W        W33036   5.900   2.155  21.455 -0.2468  0.0383  0.2192
26437W        W33037  11.184   3.351  25.798 -0.1049 -0.1648  0.1847
26438W        W33038  21.889   5.694  15.138 -0.0173 -0.1538  0.0328
26439W        W33039  24.651   3.238  24.997  0.2723 -0.1951  0.2120
26440W        W33040   1.925   3.934  23.904 -0.1012  0.2872 -0.1453
26441W        W33041   6.813   4.485  32.494  0.0002  0.1826 -0.1615
26442W        W33042  13.221   4.629  10.521  0.3371  0.2221 -0.1361
26443W        W33043  10.120   4.526   5.499  0.1443 -0.3841  0.2914
26444W        W33044   2.806   4.764  27.407  0.1045 -0.3368 -0.0112
26445W        W33045   0.206   2.680  24.507 -0.1149  0.3102 -0.2189
26446W        W33046   3.203   2.443  15.557  0.0199  0.2357 -0.0394
26447W        W33047  24.722   1.320  34.196 -0.1582 -0.0728  0.2287
26448W        W33048   3.666   0.411  32.084 -0.2262  0.2998 -0.2769
26449W        W33049   0.565   0.521  36.023 -0.0723 -0.0483 -0.1184
26450W        W33050  10.801   3.142   5.732 -0.0687 -0.4937 -0.2552
26451W        W33051  19.633   3.611   2.425 -0.0721  0.3309  0.0184
26452W        W33052  25.884   3.509  13.659 -0.1933 -0.0359 -0.2375
26453W        W33053  14.301   4.284  22.369 -0.0159  0.2188 -0.0371
26454W        W33054   5.143   3.369  14.678 -0.0052  0.2051 -0.0576
26455W        W33055   4.494   0.800  32.552  0.3445  0.1329 -0.0095
26456W        W33056  25.867   2.851  31.666 -0.0366 -0.1825  0.3467
26457W        W33057   1.600   1.322  15.254 -0.0060  0.0748  0.1220
26458W        W33058  18.335   0.812  29.786 -0.1225  0.0412 -0.0195
26459W        W33059  19.400   6.440  12.743 -0.0593 -0.0087 -0.1571
26460W        W33060   6.861   1.528  12.411 -0.3442 -0.1276  0.2781
26461W        W33061   3.840   5.579  27.315  0.0560 -0.3621 -0.0495
26462W        W33062   1.118   4.282  13.207  0.2930 -0.0254 -0.0050
26463W        W33063  12.258   4.885  33.303  0.0797 -0.0378 -0.1052
26464W        W33064   2.390   5.851   6.101  0.0460  0.0415 -0.1165
26465W        W33065  20.740   3.527  30.308 -0.1881 -0.1992 -0.1789
26466W        W33066  20.626   2.729   2.311  0.1077 -0.1826 -0.1267
26467W        W33067  11.501   3.359  34.309 -0.0041 -0.2207 -0.1849
26468W        W33068  16.590   5.350  30.650  0.2072 -0.1363  0.0430
26469W        W33069  21.758   4.720  13.216  0.0437 -0.3437 -0.1107
26470W        W33070  14.526   4.073   7.447  0.2321  0.2248  0.1646
26471W        W33071  12.378   4.157  26.711 -0.2337  0.2177  0.1128
26472W        W33072  21.474   3.656  24.703 -0.1556  0.0879 -0.1357
26473W        W33073  20.919   2.373  12.118 -0.1978  0.1691 -0.1509
26474W        W33074   5.436   3.670   9.172 -0.0955 -0.0275 -0.1630
26475W        W33075   8.153   5.104   4.193  0.0246 -0.1382 -0.0690
26476W        W33076  16.377   2.044  23.784  0.2212  0.0081 -0.2338
26477W        W33077   5.199   3.512  26.532 -0.4841  0.1400  0.0716
26478W        W33078  23.855   3.186  14.483  0.1274  0.1516  0.1612
26479W        W33079  20.353   3.822  10.796  0.0652  0.2043 -0.0915
26480W        W33080  10.198   3.239  13.997 -0.3277  0.0798 -0.0359
26481W        W33081   6.892   0.228  35.414  0.1072 -0.1215 -0.0227
26482W        W33082   8.613   2.913   4.026 -0.0111  0.1509  0.0324
26483W        W33083   8.667   5.625   2.758  0.1227 -0.1033  0.1222
26484W        W33084   9.031   3.358   9.657  0.0620  0.0779  0.0566
26485W        W33085   2.360   1.661  12.693 -0.0425  0.1097 -0.0014
26486W        W33086   2.812   3.551  26.963  0.1899  0.0987  0.0477
26487W        W33087   9.747   0.287  11.959 -0.1230  0.0767 -0.0255
26488W        W33088   1.724   4.458  12.534  0.2018 -0.1194  0.1328
26489W        W33089  17.408   0.947  25.938 -0.2018 -0.0595 -0.1106
26490W        W33090  23.665   1.729  10.272 -0.1033 -0.1207 -0.1573
26491W        W33091   3.513   6.522  12.266  0.0001  0.0747  0.1982
26492W        W33092  14.858   5.052  15.011  0.0201  0.3264  0.2970
26493W        W33093  11.011   4.343   7.292  0.1950 -0.1358  0.2065
26494W        W33094  15.830   1.027  32.649 -0.0957  0.0053 -0.1320
26495W        W33095  24.462   4.281  12.267  0.0434  0.0049  0.3847
26496W        W33096  18.863   0.940   2.278  0.2701 -0.0920 -0.2183
26497W        W33097  26.377   0.595   5.008 -0.1965  0.1788 -0.2753
26498W        W33098   6.486   4.908  32.942  0.2333 -0.0272  0.2203
26499W        W33099   4.680   5.324  30.710 -0.1280 -0.5317  0.3014
26500W        W33100  14.754   6.539   4.342 -0.0432  0.1047  0.0607
26501W        W33101  20.100   1.175   9.316 -0.0307  0.0298 -0.1899
26502W        W33102  10.308   5.711   0.703  0.0909 -0.5613  0.1113
26503W        W33103   2.977   2.006  23.031  0.0120 -0.2207 -0.2122
26504W        W33104   0.182   0.597  27.981 -0.1648  0.0827 -0.0372
26505W        W33105  12.240   2.417   7.460 -0.0488  0.0410 -0.1589
26506W        W33106  24.872   3.158  34.571  0.0792  0.1087 -0.1819
26507W        W33107   4.743   4.825   7.611  0.0054 -0.1829  0.1536
26508W        W33108  22.180   1.207   3.870 -0.1325 -0.0213 -0.0629
26509W        W33109  19.602   3.405  22.097  0.0892  0.0656  0.2149
26510W        W33110  20.648   5.669   7.738 -0.2174 -0.3040  0.1484
26511W        W33111  25.100   0.937   9.670 -0.0228  0.1880  0.3271
26512W        W33112  19.710   1.205   7.725  0.2630  0.2065 -0.2042
26513W        W33113   9.935   6.120  35.954  0.3175 -0.2402  0.1109
26514W        W33114  21.492   1.258   9.973  0.3640  0.1771 -0.4167
26515W        W33115  23.682   4.839  11.659 -0.2146 -0.0480  0.2251
26516W        W33116   4.559   0.251  31.461 -0.3861  0.1563  0.0384
26517W        W33117  19.368   4.256  13.736  0.0536 -0.0324 -0.3310
26518W        W33118  25.933   0.660  28.923  0.0398  0.1745 -0.0956
26519W        W33119   0.168   3.611   4.958  0.1210  0.0445 -0.0317
26520W        W33120   4.433   1.304  13.332  0.3914  0.0580  0.0722
26521W        W33121   6.525   0.929  22.319 -0.1228  0.0298 -0.1639
26522W        W33122   2.888   2.547   8.321  0.0402  0.1647 -0.0001
26523W        W33123  23.463   2.381  13.807 -0.1442 -0.0576 -0.0292
26524W        W33124  21.113   1.566   3.068  0.0163  0.3757 -0.2836
26525W        W33125  22.217   3.327  21.277 -0.2130  0.1850 -0.0862
26526W        W33126   2.258   6.578   3.755  0.0638  0.0954  0.2284
26527W        W33127   1.681   4.283   5.445 -0.1575 -0.0728  0.2422
26528W        W33128  22.313   1.494  24.174  0.0743 -0.0266 -0.0664
26529W        W33129   8.463   1.352   9.857 -0.0562  0.2182 -0.0103
26530W        W33130  10.922   4.652  10.799 -0.1543 -0.3224 -0.1028
26531W        W33131   6.379   4.328  13.093 -0.0257  0.1044 -0.5066
26532W        W33132  19.095   4.626  11.032  0.0950 -0.0941 -0.0139
26533W        W33133  20.823   5.886  15.084 -0.1275  0.1389 -0.2767
26534W        W33134   4.941   4.563  28.862  0.1839 -0.0161  0.0760
26535W        W33135   7.324   6.198  26.462 -0.0929  0.3336  0.1930
26536W        W33136  18.753   2.074  22.123  0.2222 -0.0785 -0.1890
26537W        W33137  17.573   4.933  10.345 -0.2377 -0.4578  0.1508
26538W        W33138  19.864   0.401   8.918 -0.2698  0.0447  0.2774
26539W        W33139  15.489   3.471  21.174  0.1602  0.0683 -0.0023
26540W        W33140  19.218   0.441  26.109 -0.1655 -0.1243 -0.1001
26541W        W33141  16.965   4.480  20.736  0.1053 -0.0967 -0.0502
26542W        W33142   8.463   0.937  14.494 -0.1595 -0.2080  0.0626
26543W        W33143   3.791   3.405  27.512 -0.4496  0.2894  0.1072
26544W        W33144  24.082   5.934  22.474 -0.1382  0.3462 -0.0142
26545W        W33145   6.562   5.951  11.974 -0.0404  0.2587 -0.2794
26546W        W33146  18.868   4.804  26.969 -0.0016 -0.2569 -0.2285
26547W        W33147  10.600   4.181  25.002  0.2091 -0.1915  0.0320
26548W        W33148  14.707   1.249  28.900 -0.0744 -0.2090 -0.0033
26549W        W33149   9.668   6.589  25.242  0.0274 -0.2163 -0.2323
26550W        W33150   3.847   3.795  34.568 -0.0269 -0.1164  0.0328
26551W        W33151   7.234   2.067  11.438  0.1608 -0.0207  0.0673
26552W        W33152  14.933   4.097  13.696  0.0672 -0.0905  0.0591
26553W        W33153   9.961   1.154  11.066  0.2054  0.0570 -0.1099
26554W        W33154  19.497   4.114  23.243  0.3540  0.0729 -0.3957
26555W        W33155  21.799   5.778   3.631 -0.0297 -0.0364 -0.1996
26556W        W33156  10.022   2.409  35.640  0.1080  0.1011 -0.0544
26557W        W33157  15.787   2.311   2.544 -0.1017 -0.0624  0.1934
26558W        W33158   0.479   4.433  11.968 -0.0165 -0.2105 -0.2023
26559W        W33159   4.485   6.511  21.303 -0.0175 -0.3365 -0.0856
26560W        W33160  26.061   0.265  22.468  0.2305 -0.1031  0.0475
26561W        W33161  26.112   3.510   4.073  0.1145 -0.1969  0.0251
26562W        W33162   0.402   0.859  10.464 -0.1185  0.2256  0.0239
26563W        W33163  11.227   2.265  22.560 -0.1606  0.3059  0.1192
26564W        W33164   4.864   1.314  15.354  0.0374  0.0012  0.0422
26565W        W33165  13.059   1.762  25.048  0.0107 -0.0929 -0.2845
26566W        W33166  15.112   5.972  15.516  0.0156  0.0653 -0.0011
26567W        W33167  14.989   3.317  24.617 -0.0977 -0.0290 -0.1539
26568W        W33168   7.306   6.530  16.078  0.3637  0.0609  0.1792
26569W        W33169   3.398   0.271   2.492  0.1150 -0.2101  0.0119
26570W        W33170  24.068   2.862   2.661  0.0611  0.0262  0.2098
26571W        W33171  17.896   2.242   7.017 -0.1723  0.2479  0.0567
26572W        W33172  10.485   3.070  34.862 -0.1485 -0.0717  0.1641
26573W        W33173  18.310   5.822  33.085 -0.1296 -0.4861  0.1981
26574W        W33174  21.980   0.140   0.125  0.1241  0.2884  0.0951
26575W        W33175  12.691   1.478  13.513  0.0436 -0.1953  0.1421
26576W        W33176   7.458   0.884  23.125 -0.1817  0.1793 -0.0349
26577W        W33177   0.674   1.299  27.788 -0.2763  0.0322  0.1437
26578W        W33178   1.780   0.586  33.362 -0.3074  0.2902  0.0895
26579W        W33179  20.131   3.060  11.913 -0.0054 -0.1651 -0.1123
26580W        W33180  18.773   0.645   1.357  0.0301  0.0716 -0.0564
26581W        W33181   8.448   1.346   0.441  0.1262 -0.2632 -0.1202
26582W        W33182  18.999   4.190   4.420  0.0949  0.1967 -0.0406
26583W        W33183  21.472   0.710  14.784  0.0355  0.0199 -0.2549
26584W        W33184   3.840   4.527   8.158 -0.1334  0.1696  0.0805
26585W        W33185  17.675   2.014  32.756 -0.0839 -0.1019  0.1246
26586W        W33186  14.011   2.019  26.109 -0.1300  0.1963 -0.2510
26587W        W33187  21.730   0.472  26.713  0.1732  0.2698  0.4054
26588W        W33188  19.590   6.006  26.252  0.0116  0.0853  0.2564
26589W        W33189   9.950   3.274  33.844 -0.1554  0.1284 -0.2642
26590W        W33190   0.428   5.764   9.864 -0.1670 -0.3652 -0.0356
26591W        W33191  25.976   3.300  33.991  0.0566 -0.1464 -0.0043
26592W        W33192  17.663   5.992  34.301  0.0153 -0.2097  0.2857
26593W        W33193  13.558   1.592  24.523 -0.2270 -0.0999 -0.2870
26594W        W33194   2.532   4.023   5.432  0.1338 -0.2691  0.1333
26595W        W33195   0.320   1.986  14.561 -0.0959 -0.0131 -0.1214
26596W        W33196  16.459   0.066  35.925 -0.2339 -0.0259  0.0007
26597W        W33197   9.918   5.651  23.898  0.2205 -0.3037  0.0757
26598W        W33198  23.926   3.449  25.660 -0.0621 -0.0479 -0.2043
26599W        W33199  21.363   2.837  36.165  0.3819 -0.3252  0.2895
26600W        W33200  19.727   3.998  21.037  0.0327  0.0286  0.0457
26601W        W33201  25.111   6.134   1.645 -0.0053  0.0235 -0.2852
26602W        W33202   1.113   0.878  34.094  0.6621  0.0136  0.1742
26603W        W33203   6.056   1.760  31.873  0.0153 -0.1065 -0.2561
26604W        W33204   8.180   1.680  13.695 -0.1659 -0.0726  0.0763
26605W        W33205   7.362   2.950  24.838 -0.2390 -0.1452  0.1535
26606W        W33206  20.346   6.565  21.040  0.0436 -0.1410 -0.0736
26607W        W33207   9.183   3.669  32.042 -0.0918 -0.0182 -0.0885
26608W        W33208  12.778   4.079   1.494  0.0796 -0.0428 -0.1444
26609W        W33209  13.253   3.033   9.258 -0.0163  0.0312 -0.1965
26610W        W33210  25.967   0.250  13.380 -0.0206 -0.0169 -0.0740
26611W        W33211  23.101   1.686  24.315  0.0469  0.0990  0.5088
26612W        W33212  22.121   4.636   9.948  0.1477 -0.0009  0.3433
26613W        W33213  17.758   5.855   5.614 -0.1277 -0.1210  0.0158
26614W        W33214   7.930   0.680  20.866  0.0975 -0.1048  0.0386
26615W        W33215   4.385   4.700  20.316 -0.3560  0.0073 -0.3319
26616W        W33216   6.299   4.337  21.042 -0.0312  0.1595  0.0719
26617W        W33217   9.482   6.102  30.303 -0.0336 -0.0179  0.0620
26618W        W33218   1.769   5.050   4.601  0.2464  0.1939 -0.1871
26619W        W33219  13.924   1.122  15.314  0.2525  0.2078 -0.1399
26620W        W33220   1.274   6.189  34.708 -0.1175 -0.3737 -0.1957
26621W        W33221   7.355   5.232  33.215  0.0104 -0.1331  0.1901
26622W        W33222   4.018   5.545   9.315  0.3867 -0.2582 -0.0472
26623W        W33223   8.843   4.883   2.778  0.2770  0.0053  0.0208
26624W        W33224   6.383   5.725   5.969  0.0075 -0.1296 -0.4665
26625W        W33225  10.841   0.247  12.813  0.0802  0.0500  0.1000
26626W        W33226   6.147   0.467  13.983  0.2321 -0.0292 -0.1652
26627W        W33227   2.011   1.999  32.247 -0.0708  0.2771 -0.1002
26628W        W33228  20.782   0.676  31.091  0.1076  0.0662 -0.4783
26629W        W33229  17.267   5.550   8.248  0.2683 -0.0178 -0.3035
26630W        W33230  14.555   3.197   1.040 -0.1133 -0.2323 -0.4090
26631W        W33231  17.583   1.727  26.344  0.1594 -0.1898 -0.0316
26632W        W33232  11.659   3.158  22.773 -0.3202  0.0372  0.1765
26633W        W33233   1.152   5.737   1.003 -0.3585 -0.0543 -0.1076
26634W        W33234   1.842   6.317  24.662  0.0249 -0.4145  0.1363
26635W        W33235   8.091   5.423  20.741  0.3025 -0.1610 -0.0532
26636W        W33236   7.277   0.353  24.946 -0.0443  0.3127 -0.1290
26637W        W33237  24.323   1.951   3.025  0.0975 -0.3061 -0.2174
26638W        W33238  25.698   5.694  11.787 -0.3499 -0.0087  0.1491
26639W        W33239   0.185   3.659   6.318 -0.3631 -0.4157  0.1461
26640W        W33240  18.841   3.202   4.565 -0.2528 -0.1749 -0.0202
26641W        W33241  26.206   0.492  29.306 -0.2030 -0.0468 -0.1217
26642W        W33242   8.969   1.550  34.787  0.1869  0.3787  0.0727
26643W        W33243  13.781   5.560  25.752 -0.1438  0.0178 -0.2539
26644W        W33244  24.803   1.130  23.577  0.2136  0.0247  0.2599
26645W        W33245  15.103   4.019  29.529 -0.0423  0.2049  0.2737
26646W        W33246  17.676   0.312  25.198  0.3269 -0.0802  0.0542
26647W        W33247  16.311   6.443   1.516 -0.1670  0.0758  0.0847
26648W        W33248   8.407   5.267  28.508 -0.3126 -0.2060  0.0075
26649W        W33249  18.474   3.026  31.918 -0.2197 -0.0408  0.1581
26650W        W33250  21.995   1.776   3.736 -0.2506 -0.0223 -0.0690
26651W        W33251  12.933   2.276  12.947  0.1128  0.0535  0.1942
26652W        W33252  24.928   4.078  29.881  0.0675  0.1064  0.0695
26653W        W33253  24.635   2.714  20.893 -0.0173  0.1417  0.0806
26654W        W33254   2.483   5.409  27.293  0.0585 -0.0576  0.2595
26655W        W33255  23.387   5.289  33.673 -0.3539  0.0726 -0.2021
26656W        W33256  20.834   4.626  34.906 -0.0529 -0.1000 -0.2904
26657W        W33257   5.582   3.919   1.478 -0.1829 -0.1299  0.0087
26658W        W33258   6.280   4.381  20.568 -0.2978  0.0964  0.3941
26659W        W33259   5.939   0.208  27.655  0.3002  0.0978  0.1455
26660W        W33260  20.135   4.602  10.386 -0.1678  0.1109 -0.1394
26661W        W33261   9.136   2.149  30.177 -0.1870 -0.2086 -0.1133
26662W        W33262  20.575   3.554  29.853  0.2128 -0.0466  0.2871
26663W        W33263   0.284   3.557   3.494  0.0717 -0.2276 -0.0593
26664W        W33264   8.315   3.911  27.640 -0.0273 -0.2705 -0.1386
26665W        W33265  20.152   1.006   2.392 -0.2100 -0.0220  0.1446
26666W        W33266  10.545   1.921  28.756 -0.2106  0.0278  0.0407
26667W        W33267  15.624   6.063  30.777  0.2023  0.2610 -0.1280
26668W        W33268   2.242   2.029  23.717  0.2663  0.1665 -0.0753
26669W        W33269  13.476   3.394   4.791  0.0309 -0.0229 -0.0356
26670W        W33270   2.825   6.310  30.180  0.0803  0.2112  0.0761
26671W        W33271   8.631   4.695  23.288  0.1824 -0.0723  0.1799
26672W        W33272   4.992   1.354  28.999  0.1109  0.0054  0.0003
26673W        W33273  13.513   1.266   4.203 -0.1912  0.1467 -0.1303
26674W        W33274  13.025   5.478  24.899  0.2505  0.1427  0.0593
26675W        W33275  14.099   1.137   6.057  0.0317  0.2117  0.0622
26676W        W33276  19.366   6.332  25.059 -0.1248  0.2570 -0.3614
26677W        W33277  16.860   2.541  24.481 -0.1864  0.1799  0.0241
26678W        W33278  16.397   2.564  26.190 -0.1186 -0.1734  0.0703
26679W        W33279  21.698   6.153  24.147  0.1337 -0.3592 -0.1850
26680W        W33280  15.601   6.594   6.664 -0.2121 -0.4401  0.1135
26681W        W33281  21.500   3.527  34.676 -0.0566  0.1398 -0.4245
26682W        W33282  18.601   2.598   8.898 -0.2740  0.1971  0.3339
26683W        W33283  26.048   5.631   0.679 -0.0301 -0.2027 -0.2330
26684W        W33284   6.979   6.313   5.701  0.3522 -0.0601  0.0281
26685W        W33285   5.765   5.193  12.404 -0.0839 -0.1616  0.1830
26686W        W33286   5.188   3.565   2.844 -0.1419 -0.0462 -0.0287
26687W        W33287   1.202   2.352  32.494 -0.1492 -0.1960  0.1507
26688W        W33288  23.871   5.881  29.480  0.1353 -0.0317 -0.3343
26689W        W33289  14.782   1.246  15.243  0.0972  0.2913 -0.1791
26690W        W33290   3.671   0.393  32.621  0.2752  0.1419 -0.0339
26691W        W33291   8.299   5.778  29.688  0.2518 -0.1213  0.2357
26692W        W33292  20.664   3.760  28.242  0.0180  0.4728 -0.2176
26693W        W33293   4.496   0.761  11.296 -0.1011 -0.0485  0.1357
26694W        W33294  22.362   3.089  33.795  0.0963 -0.0760  0.4213
26695W        W33295   8.180   2.765  12.082  0.3941  0.0751 -0.2832
26696W        W33296   0.721   4.890   5.142  0.0460  0.0722 -0.1671
26697W        W33297  12.572   2.532   1.387  0.1247  0.1937  0.1083
26698W        W33298  11.681   5.309  25.255 -0.1640 -0.1479 -0.0146
26699W        W33299  15.927   4.155   1.868 -0.1580 -0.2478 -0.2254
26700W        W33300  22.828   0.075   3.567 -0.0639 -0.1713 -0.0758
26701W        W33301  22.108   3.561  27.797 -0.0385  0.2744 -0.0334
26702W        W33302  21.551   5.408   9.887 -0.0372 -0.1227 -0.1068
26703W        W33303   3.189   4.460  25.216  0.1030 -0.1350  0.2243
26704W        W33304  21.064   2.631   6.685  0.0827  0.2305 -0.5337
26705W        W33305  12.596   6.153  20.911 -0.0932  0.1142  0.1922
26706W        W33306  20.795   1.842  24.024 -0.2764 -0.0841 -0.0932
26707W        W33307   8.185   5.429  23.076 -0.0619 -0.1915  0.0032
26708W        W33308  13.187   1.553  13.592  0.0979  0.1503 -0.0994
26709W        W33309  20.333   5.248  20.468 -0.0616  0.1183 -0.0863
26710W        W33310  14.771   0.263   2.896 -0.1906  0.1572 -0.0783
26711W        W33311  24.372   0.467  23.119  0.0989 -0.0098  0.1840
26712W        W33312  25.336   2.783  31.169  0.0998 -0.2503 -0.0658
26713W        W33313  24.648   1.800  33.449  0.1506  0.2036  0.3675
26714W        W33314   0.959   4.576   7.287 -0.5574 -0.0519 -0.0356
26715W        W33315   3.378   2.358  21.292 -0.2729  0.0099 -0.2467
26716W        W33316   9.683   4.173  10.294  0.2786 -0.2088  0.1784
26717W        W33317   3.033   4.023  27.797 -0.1177  0.1303 -0.1312
26718W        W33318  25.611   5.633   9.235  0.2537 -0.2163 -0.0866
26719W        W33319  11.487   4.303  12.572  0.0228  0.1550 -0.0833
26720W        W33320  11.485   2.772  21.859 -0.0966  0.0557 -0.3192
26721W        W33321  17.382   4.117  12.118 -0.2624  0.3239  0.1821
26722W        W33322   3.921   6.311  14.594 -0.2052  0.1114  0.0325
26723W        W33323   6.475   4.889   5.811  0.1121 -0.1346  0.0094
26724W        W33324   5.125   0.148  25.167  0.0232  0.1363  0.0697
26725W        W33325  20.329   4.990   7.154 -0.0290  0.1136  0.2644
26726W        W33326  10.208   2.206   1.341 -0.0942  0.0888 -0.0939
26727W        W33327  18.875   5.008   0.048  0.0377 -0.0419  0.0126
26728W        W33328  24.594   0.987   5.171 -0.0531 -0.2578 -0.0596
26729W        W33329  17.943   5.488  34.296  0.1645  0.1681  0.0250
26730W        W33330  17.666   3.445  21.477  0.0494 -0.0332  0.0580
26731W        W33331   2.170   3.068   3.033 -0.1139  0.1806  0.1844
26732W        W33332  15.793   1.316  22.156  0.1738 -0.1589 -0.0777
26733W        W33333   5.667   4.853  29.259 -0.0354  0.1125 -0.0554
26734W        W33334   9.745   2.288  14.568  0.0882  0.1312 -0.2264
26735W        W33335  10.398   5.877  21.008 -0.3828  0.3371  0.2688
26736W        W33336   1.768   2.375  34.604  0.1744  0.1081 -0.0047
26737W        W33337   1.611   2.267  11.409  0.2204  0.0649  0.0326
26738W        W33338   5.184   5.439   8.100  0.2586  0.0676  0.3101
26739W        W33339  22.501   3.063  31.115 -0.1233  0.1006 -0.0932
26740W        W33340  18.642   5.533  20.283 -0.1564  0.2232 -0.0693
26741W        W33341  19.633   1.571  12.751  0.3033  0.1382 -0.2484
26742W        W33342  12.086   4.461   0.373  0.1821 -0.2789  0.1133
26743W        W33343   8.373   5.520  30.120 -0.1518  0.0913  0.0158
26744W        W33344   1.957   5.729  21.281 -0.1756  0.1581  0.3202
26745W        W33345  17.057   1.700  10.540  0.0001  0.0321 -0.1190
26746W        W33346  14.548   1.410   2.005 -0.1259 -0.1784 -0.0812
26747W        W33347   7.366   3.605  34.607  0.0591 -0.2917 -0.2994
26748W        W33348  16.543   3.354  35.342  0.3267 -0.1727 -0.1820
26749W        W33349  22.312   3.183   8.362  0.0837  0.1154 -0.0692
26750W        W33350   1.921   5.692  23.535  0.1785  0.1088  0.0437
26751W        W33351  25.721   2.890  12.237  0.0004  0.1413  0.2605
26752W        W33352   1.279   5.291  35.239  0.0385  0.2539  0.1070
26753W        W33353  15.241   5.001   5.444 -0.5268 -0.5472  0.0900
26754W        W33354  16.433   0.367  27.732  0.0674 -0.1040  0.0535
26755W        W33355  24.188   3.541  25.124  0.0131 -0.1060  0.2961
26756W        W33356  16.994   5.547   8.950  0.1406  0.2429  0.0548
26757W        W33357  15.339   1.538  30.500 -0.2418  0.0524  0.1453
26758W        W33358  10.545   0.372   3.073 -0.0137 -0.1278  0.0508
26759W        W33359  11.378   0.550  34.119 -0.3248 -0.0546  0.1215
26760W        W33360   5.766   4.178   6.641  0.0173  0.0591 -0.2433
26761W        W33361  24.561   5.816  23.429 -0.3217  0.1277  0.4093
26762W        W33362   0.832   5.362  27.838  0.1864  0.1114 -0.1184
26763W        W33363   4.740   4.862  30.440 -0.0716 -0.0137  0.4546
26764W        W33364   7.836   4.883   3.812 -0.0337  0.0977 -0.0299
26765W        W33365  24.421   5.312  26.843  0.0652  0.1709 -0.1608
26766W        W33366  19.511   3.257   0.878 -0.2072 -0.2078  0.0085
26767W        W33367  21.420   0.442  21.692 -0.0391 -0.2866 -0.1267
26768W        W33368  18.425   2.428  23.562 -0.3397 -0.0599 -0.0688
26769W        W33369  11.039   0.294   0.329  0.3074 -0.2778 -0.1149
26770W        W33370  24.417   2.674  31.505  0.0269 -0.0764  0.2367
26771W        W33371  14.279   3.253  10.962  0.2858 -0.1766 -0.0323
26772W        W33372  12.980   3.015   0.746 -0.0586  0.0799  0.0393
26773W        W33373  10.516   6.409  35.430  0.2535 -0.2453 -0.2493
26774W        W33374  19.595   3.406  31.523 -0.0898 -0.0618  0.0430
26775W        W33375  26.190   6.236  32.709  0.2828 -0.2073 -0.2672
26776W        W33376  23.754   5.924  32.927 -0.0902 -0.2439  0.0141
26777W        W33377   6.220   1.347  26.422  0.0528  0.0245  0.0522
26778W        W33378  20.531   2.590  36.144 -0.2416 -0.1059  0.0419
26779W        W33379  23.075   2.674   1.918  0.0298 -0.2453  0.0518
26780W        W33380   5.598   6.274  22.757  0.4174  0.0004 -0.2558
26781W        W33381  15.013   0.697  14.458  0.1623 -0.2484  0.2655
26782W        W33382  18.835   0.757  27.302  0.0884  0.1602  0.2804
26783W        W33383   0.663   1.609  26.576  0.2651 -0.0872  0.2090
26784W        W33384   0.780   1.650  23.359 -0.0816  0.2983 -0.0721
26785W        W33385  14.941   0.315  28.718 -0.0595 -0.2255  0.0632
26786W        W33386  20.937   6.088  22.856  0.0328 -0.0277 -0.2214
26787W        W33387  14.857   6.504  13.010  0.2744  0.1805  0.3196
26788W        W33388   8.418   1.158  32.397  0.3084 -0.1309 -0.1437
26789W        W33389  16.388   1.985   1.955  0.2039 -0.0108  0.0921
26790W        W33390  13.937   0.903  15.865 -0.1211  0.1958 -0.5051
26791W        W33391  15.414   6.243  22.605  0.1409 -0.3322 -0.0187
26792W        W33392  18.620   5.957   0.302  0.0178 -0.0748  0.0053
26793W        W33393  15.784   4.595  31.424  0.1386 -0.0174  0.3351
26794W        W33394  22.073   4.684   2.969  0.2924 -0.0036  0.0559
26795W        W33395  10.854   2.112   3.627  0.3302 -0.0062  0.2862
26796W        W33396  10.221   4.794  35.898  0.0447 -0.2637  0.1700
26797W        W33397  21.507   3.641   6.306  0.2905  0.3358 -0.0097
26798W        W33398  19.580   2.579  32.785  0.0500 -0.0292  0.2623
26799W        W33399  20.877   1.666  33.509 -0.5957 -0.1597  0.3663
26800W        W33400   6.916   1.804  34.735  0.1012  0.0346  0.0947
26801W        W33401   9.902   2.041  26.188  0.0158  0.2367  0.0265
26802W        W33402   6.861   0.724  27.167 -0.2254  0.3139  0.0774
26803W        W33403  17.549   3.698   0.254  0.1543  0.0412 -0.1735
26804W        W33404   7.164   0.700   8.071  0.0690 -0.0852  0.0450
26805W        W33405   5.157   5.221  34.896 -0.1632 -0.1352 -0.3345
26806W        W33406  22.971   5.905  31.637 -0.1031 -0.2459  0.1423
26807W        W33407  18.853   2.990  34.281  0.0039 -0.1134 -0.1570
26808W        W33408   4.995   1.670  28.248  0.0401  0.0528  0.0269
26809W        W33409   3.846   1.531   5.279  0.1155 -0.2384 -0.0174
26810W        W33410  16.991   1.189  33.900  0.1467 -0.1099 -0.0193
26811W        W33411  22.248   6.261  33.907 -0.1382 -0.0440  0.1612
26812W        W33412   8.986   1.625   5.178 -0.1670 -0.0972  0.4492
26813W        W33413  19.582   2.305  13.989  0.1352  0.0265 -0.3083
26814W        W33414  11.496   6.308  15.403  0.1560 -0.0250 -0.2338
26815W        W33415  19.730   0.302  33.438  0.2673  0.0102  0.4312
26816W        W33416  24.001   5.467   9.904 -0.1579 -0.1443  0.1698
26817W        W33417  14.662   0.532   9.490  0.2811  0.1041  0.1749
26818W        W33418   6.580   1.671   0.877 -0.3277  0.0210 -0.1268
26819W        W33419  22.937   4.362  10.947 -0.2110 -0.0324 -0.0574
26820W        W33420  21.271   4.151  28.670 -0.0658 -0.0994 -0.1210
26821W        W33421   2.114   6.569   0.395  0.0266 -0.2508  0.1063
26822W        W33422   5.451   0.183   1.842  0.0659 -0.1317 -0.1837
26823W        W33423   3.537   4.080  33.559  0.2119 -0.2847 -0.1109
26824W        W33424  15.366   5.506  20.985 -0.0535 -0.1211 -0.1473
26825W        W33425   5.643   1.615   2.497 -0.0714  0.1774 -0.0053
26826W        W33426  19.572   6.570   3.852 -0.0701 -0.3007 -0.0995
26827W        W33427  19.667   1.158   4.900  0.1292 -0.0459 -0.1894
26828W        W33428  22.702   1.132  32.587  0.1878 -0.3561 -0.2114
26829W        W33429   0.955   2.577  13.454  0.0328 -0.1668  0.0455
26830W        W33430  24.706   2.320  25.474 -0.4229  0.1521 -0.1141
26831W        W33431  12.355   4.036  34.957  0.3982  0.0355 -0.4024
26832W        W33432   7.339   4.421  11.826 -0.0909 -0.0674 -0.0390
26833W        W33433  25.952   5.295  13.892 -0.0116  0.1343 -0.2283
26834W        W33434  25.529   2.864  10.687 -0.0621  0.0676 -0.0634
26835W        W33435  13.676   4.689   3.727  0.1339  0.0337 -0.0304
26836W        W33436  19.933   6.224   7.910 -0.0561 -0.0114  0.0953
26837W        W33437  23.233   6.346  26.850 -0.1477 -0.2361  0.1332
26838W        W33438  20.837   2.237  22.701  0.0706  0.0886 -0.0258
26839W        W33439   0.911   3.785   4.588  0.1698  0.3694 -0.0932
26840W        W33440  24.078   2.799  29.858 -0.0057  0.3077 -0.0250
26841W        W33441  24.979   5.160  28.911  0.2238 -0.0899 -0.0453
26842W        W33442   1.654   1.884  34.260  0.1763  0.1031  0.2310
26843W        W33443   4.506   1.158   8.266 -0.1412 -0.2198  0.1687
26844W        W33444  16.585   3.166  15.569  0.1109 -0.1130  0.0363
26845W        W33445  24.856   4.475   6.395 -0.0604 -0.0172  0.0969
26846W        W33446   2.184   4.221  31.013  0.1382  0.2766  0.0731
26847W        W33447   8.174   4.072   7.339  0.1902  0.0983 -0.0578
26848W        W33448  14.252   3.745  11.736  0.3147  0.0734  0.0972
26849W        W33449   6.567   0.156   3.213  0.1772 -0.0923 -0.0068
26850W        W33450  21.595   0.058  24.073 -0.3174  0.1481 -0.1047
26851W        W33451  18.995   3.576  12.192 -0.0497 -0.0745  0.0619
26852W        W33452  23.872   6.159  15.088 -0.0997  0.1043 -0.0313
26853W        W33453  17.105   4.040  33.866 -0.0468 -0.2265 -0.2571
26854W        W33454  26.174   1.981  13.848 -0.0525 -0.0572 -0.1567
26855W        W33455  17.306   3.185  33.637 -0.0033 -0.0568 -0.0030
26856W        W33456  10.668   4.467  12.900  0.0784  0.2369  0.0065
26857W        W33457  14.721   6.191   9.898  0.0784 -0.1459  0.1446
26858W        W33458   2.181   1.336  13.922 -0.0804  0.0098 -0.0344
26859W        W33459  10.781   6.073   9.878  0.0056  0.0106 -0.2392
26860W        W33460   6.816   4.999  32.563  0.0382 -0.1388 -0.0329
26861W        W33461  21.235   4.171   8.662 -0.0134  0.0499  0.1089
26862W        W33462  20.624   0.596  34.336  0.0855 -0.1578  0.0458
26863W        W33463  20.343   5.671  30.312  0.1665 -0.0598  0.0228
26864W        W33464  14.211   0.153  10.857 -0.0306  0.0993 -0.0611
26865W        W33465   7.941   5.539  33.480 -0.1532  0.0012  0.4495
26866W        W33466  12.451   1.768  10.553  0.0214 -0.2654 -0.0204
26867W        W33467  20.040   3.762   9.988 -0.0205 -0.0480  0.1315
26868W        W33468   7.583   1.903  26.468  0.0790  0.2248 -0.3099
26869W        W33469   1.691   2.445  13.559  0.2203 -0.1171 -0.1864
26870W        W33470  13.252   6.570   8.394  0.0913 -0.0732 -0.2402
26871W        W33471   7.837   0.362   1.507 -0.0263  0.1719  0.4206
26872W        W33472   3.076   6.345  13.305 -0.4164  0.1097 -0.0683
26873W        W33473  18.985   0.633   1.859  0.2196 -0.1064  0.0360
26874W        W33474  15.303   6.360  34.561 -0.1544 -0.1859 -0.5267
26875W        W33475  12.900   6.181  32.442  0.1880 -0.0552 -0.0744
26876W        W33476  16.921   3.565  31.201 -0.2261 -0.0416 -0.0966
26877W        W33477  12.681   5.579  13.031  0.1566  0.3750  0.0252
26878W        W33478  19.805   3.221  32.217  0.0639  0.1290 -0.1794
26879W        W33479  24.079   2.228   4.006  0.1377  0.0949  0.0155
26880W        W33480  24.509   4.302  34.061  0.0467  0.0471 -0.2089
26881W        W33481  15.280   4.774   3.382  0.1349 -0.2636  0.2748
26882W        W33482  16.857   2.159  21.653 -0.0882 -0.2005  0.0871
26883W        W33483   2.434   3.762  13.538  0.0910  0.2068  0.1118
26884W        W33484   4.307   1.731   8.694  0.0275 -0.3899 -0.0624
26885W        W33485   1.616   5.510  35.968  0.2419  0.0808 -0.0092
26886W        W33486  24.165   0.458  28.731 -0.0225  0.1059  0.2470
26887W        W33487  13.555   4.391  26.532 -0.0088  0.0765 -0.3824
26888W        W33488   2.571   2.712  35.343  0.0060 -0.2623 -0.1935
26889W        W33489  14.191   5.698  30.742 -0.0260 -0.1735 -0.1601
26890W        W33490  19.506   4.188  22.221  0.2554  0.0245 -0.1495
26891W        W33491   5.366   5.033  13.832  0.2944  0.0255 -0.1680
26892W        W33492  23.704   1.824  12.492  0.0311 -0.1206 -0.2386
26893W        W33493   7.366   0.309   3.359  0.0672 -0.1125  0.1223
26894W        W33494   8.937   4.632  29.223 -0.1673  0.2761  0.1634
26895W        W33495   8.596   3.052  11.232  0.0237 -0.1178 -0.0930
26896W        W33496  21.232   4.933   3.182  0.0465 -0.0781  0.0268
26897W        W33497  15.389   5.145  34.192 -0.2678 -0.2866  0.0403
26898W        W33498   3.830   5.086  33.729  0.0436 -0.1039 -0.1183
26899W        W33499   6.162   1.332  22.049 -0.0783  0.2954  0.3363
26900W        W33500  16.927   0.929  30.912  0.1024  0.2099  0.2338
26901W        W33501  14.716   4.506  26.898 -0.3167  0.1066  0.0399
26902W        W33502  20.110   2.885  30.329 -0.0650  0.1367 -0.4484
26903W        W33503  21.477   3.699  23.713 -0.4033  0.1557 -0.2938
26904W        W33504   8.397   3.020   5.120 -0.2841  0.0771  0.2044
26905W        W33505   9.590   1.846   3.891  0.0979 -0.1196  0.0018
26906W        W33506   6.250   3.202   7.798 -0.2559 -0.2402  0.0670
26907W        W33507  11.386   0.339   1.381 -0.0557  0.1159 -0.1147
26908W        W33508  25.427   4.405   8.434 -0.1845  0.2524  0.1131
26909W        W33509   7.475   3.523  33.876 -0.2624  0.2299  0.0038
26910W        W33510  17.835   3.444  22.416  0.2837  0.2394  0.2286
26911W        W33511  10.373   2.704  31.010 -0.0923  0.0235  0.0672
26912W        W33512  11.032   0.595  30.099 -0.1039  0.0711  0.1740
26913W        W33513  15.596   2.427   5.206  0.1050  0.2765 -0.3978
26914W        W33514   3.632   3.950   8.694  0.1965 -0.0141  0.2829
26915W        W33515  11.432   6.174   0.176  0.0951  0.0390 -0.2038
26916W        W33516  19.319   4.728   1.184 -0.3103  0.0786 -0.0023
26917W        W33517  21.883   2.794  24.966 -0.0456  0.0311  0.2422
26918W        W33518  20.124   3.891  32.391 -0.0371 -0.2799  0.3098
26919W        W33519  15.243   2.486   9.867  0.2082 -0.1746 -0.2850
26920W        W33520  13.382   0.016  22.774 -0.1061 -0.4116 -0.1253
26921W        W33521   2.888   5.737  33.755 -0.0302 -0.0522 -0.0077
26922W        W33522   4.823   1.223  22.025 -0.0921  0.0148 -0.1511
26923W        W33523   4.324   3.935   2.319  0.0359 -0.0192 -0.1034
26924W        W33524   5.323   1.866   4.384 -0.0066 -0.1262 -0.1798
26925W        W33525  17.464   4.789  20.177 -0.4216 -0.2641 -0.2767
26926W        W33526  11.372   2.717  25.873  0.1200 -0.0845  0.0665
26927W        W33527  21.090   5.630  14.153  0.0459 -0.0989 -0.2369
26928W        W33528  15.145   2.923  27.128  0.1029 -0.3124  0.0759
26929W        W33529  18.461   1.806  15.843 -0.4856 -0.2728 -0.0385
26930W        W33530  14.077   1.778   2.015 -0.0693  0.0544 -0.1787
26931W        W33531   9.667   3.115  21.670  0.0591  0.4565  0.2017
26932W        W33532  15.727   0.927   0.244 -0.0042 -0.0108 -0.1239
26933W        W33533  16.404   0.743  24.783  0.0449 -0.1313  0.0852
26934W        W33534   0.749   0.899  21.203  0.0514  0.0988  0.0536
26935W        W33535   4.230   0.339  21.152  0.0686  0.1433 -0.4133
26936W        W33536  19.493   0.387  27.840  0.1420  0.2091 -0.5886
26937W        W33537  25.080   2.387  26.181  0.2607  0.4279 -0.1149
26938W        W33538  16.034   1.464  32.335 -0.1408  0.1834 -0.0647
26939W        W33539   1.848   4.977  13.447 -0.1930 -0.1915  0.3473
26940W        W33540   9.761   4.068  33.155  0.2923 -0.0542 -0.2384
26941W        W33541  11.807   4.302  24.233  0.2128  0.0442  0.2505
26942W        W33542  15.547   4.335  29.674 -0.1262  0.1588 -0.1303
26943W        W33543  14.436   5.473  20.929 -0.0402  0.1988  0.0002
26944W        W33544  18.020   6.587  23.841  0.0413 -0.2549 -0.0531
26945W        W33545   8.154   4.493  25.441 -0.1670 -0.1770 -0.1393
26946W        W33546  10.882   3.077  21.273 -0.3541  0.1643  0.1938
26947W        W33547  22.520   4.221  13.544 -0.0911 -0.0243 -0.2203
26948W        W33548  15.604   4.384  23.364 -0.0142  0.1081 -0.1904
26949W        W33549  12.612   3.139  34.811  0.2813 -0.0231  0.2925
26950W        W33550   1.682   2.731  11.381 -0.2349 -0.4031 -0.0382
26951W        W33551   0.493   5.220  22.909 -0.0997 -0.1452  0.1277
26952W        W33552  10.317   1.669  21.987  0.1197  0.0902 -0.1296
26953W        W33553   0.183   2.149  11.395 -0.1556 -0.2339 -0.0644
26954W        W33554   5.154   0.803  24.170  0.0383 -0.3106  0.0257
26955W        W33555  22.014   2.046   2.503  0.4390 -0.0178  0.4278
26956W        W33556  16.750   3.893  31.534  0.1886  0.2656 -0.0995
26957W        W33557  15.476   0.658  32.507 -0.1983 -0.1984 -0.1659
26958W        W33558   3.166   2.958   8.186  0.0505  0.1603 -0.1182
26959W        W33559  19.850   3.713   4.212 -0.3032 -0.0059 -0.0023
26960W        W33560   7.972   0.367  25.031 -0.2627 -0.1342  0.0364
26961W        W33561  17.336   6.421  14.200 -0.1014 -0.0132 -0.0225
26962W        W33562  25.198   5.843  12.125 -0.0755 -0.1297  0.1915
26963W        W33563   9.003   3.433   2.485  0.1062 -0.1255  0.1919
26964W        W33564   5.786   2.643  29.204 -0.0285  0.1278 -0.0179
26965W        W33565   1.512   4.729  30.601 -0.1228 -0.2296 -0.2223
26966W        W33566   3.859   6.165  14.049  0.1186 -0.1793  0.0397
26967W        W33567   7.875   4.298   7.713  0.3180  0.1196  0.2655
26968W        W33568  19.444   1.928   1.513 -0.2321 -0.3627 -0.1850
26969W        W33569  16.211   3.886  32.883 -0.0956 -0.2716  0.0942
26970W        W33570  16.720   0.550  12.973  0.2525  0.1219 -0.0361
26971W        W33571  23.556   0.828  24.082  0.1360 -0.0705  0.0459
26972W        W33572  15.043   3.777  26.636  0.0093 -0.2807 -0.0683
26973W        W33573  12.799   5.842   3.612  0.1205  0.3651  0.0793
26974W        W33574   8.449   6.023   6.663  0.0963 -0.0471  0.2455
26975W        W33575   8.690   1.740  23.536  0.2901  0.0580 -0.0931
26976W        W33576  21.376   3.145  26.823 -0.0971 -0.0533 -0.0101
26977W        W33577   3.395   4.301   9.665  0.1417  0.1988 -0.0598
26978W        W33578  17.508   4.953  26.264  0.2517 -0.1824  0.1004
26979W        W33579   2.241   4.029   6.639  0.0218  0.2031  0.1527
26980W        W33580  13.240   3.904   2.538 -0.1549 -0.2400 -0.1481
26981W        W33581  23.381   4.870   8.810  0.0069  0.4600 -0.0299
26982W        W33582   6.566   3.975  31.673  0.0664 -0.3320  0.0554
26983W        W33583  13.204   3.671  26.818 -0.1563 -0.0605  0.2492
26984W        W33584   1.634   1.182  21.356 -0.2137 -0.0777 -0.0058
26985W        W33585  16.697   0.844   0.018 -0.1371 -0.2187  0.2391
26986W        W33586  17.978   3.439   3.946 -0.0832 -0.0118  0.3949
26987W        W33587   5.544   4.118  10.990 -0.2428  0.4301 -0.0381
26988W        W33588   7.396   4.246   9.330 -0.1024  0.0569  0.0081
26989W        W33589   5.278   0.380  33.475 -0.0801 -0.2642 -0.0697
26990W        W33590  11.960   5.135  34.127  0.2113 -0.0812 -0.0876
26991W        W33591  25.959   3.695  26.079 -0.1485  0.0825  0.1747
26992W        W33592  11.581   3.061  35.542 -0.2422  0.3393  0.2892
26993W        W33593  26.139   0.842  11.494 -0.3503  0.3362  0.1087
26994W        W33594  15.408   1.868  26.741  0.0829 -0.1062 -0.1736
26995W        W33595  20.014   1.840  31.105 -0.0560  0.1444  0.0527
26996W        W33596  18.308   5.514  33.965 -0.0827  0.1128  0.0095
26997W        W33597  21.565   4.429  35.236  0.0249 -0.0144  0.0405
26998W        W33598   1.692   0.673  10.524  0.0593  0.1643  0.3498
26999W        W33599  18.381   1.743  34.890 -0.1196 -0.2157  0.2817
27000W        W33600  23.930   5.886  26.314  0.0997 -0.2269  0.0562
27001W        W33601   6.093   4.945  26.283 -0.0999 -0.0954 -0.0579
27002W        W33602   0.283   2.442   9.531 -0.0452  0.2005 -0.0197
27003W        W33603  18.439   4.319  32.560 -0.2207  0.0064 -0.0911
27004W        W33604   4.937   4.402   7.777  0.1099 -0.0471  0.3143
27005W        W33605   8.749   3.025  35.649  0.0759  0.0822 -0.1342
27006W        W33606  17.867   5.576  22.686 -0.0086 -0.1218  0.0618
27007W        W33607   2.749   6.351   0.886 -0.5077 -0.4232  0.1341
27008W        W33608  21.009   0.802  13.340  0.0309  0.0495 -0.3849
27009W        W33609  20.105   5.065  35.834 -0.0882  0.1294  0.1171
27010W        W33610  23.151   1.896   1.280  0.0030  0.0471  0.2720
27011W        W33611  23.852   5.349  24.079  0.2369 -0.0856  0.0104
27012W        W33612   6.255   5.553  12.927  0.0385  0.1140  0.0912
27013W        W33613  11.791   0.965   9.968 -0.3102 -0.0031  0.1207
27014W        W33614  20.618   0.744  33.464 -0.1442  0.2532 -0.0734
27015W        W33615  18.374   2.595  33.662 -0.0106  0.1157  0.0527
27016W        W33616  12.110   4.851  27.439  0.1974  0.0690  0.1683
27017W        W33617   4.989   5.467  14.582  0.0243  0.4264  0.4966
27018W        W33618  23.734   5.963   8.721 -0.1293  0.0259 -0.3958
27019W        W33619  12.958   5.892  28.683  0.0470  0.1556  0.0109
27020W        W33620   1.683   3.683  10.019 -0.1570 -0.0200 -0.2168
27021W        W33621  22.012   3.685  23.944  0.0441  0.3243  0.1613
27022W        W33622   5.465   0.331   4.885 -0.0902 -0.0419  0.2683
27023W        W33623   5.064   1.012  29.728  0.3167  0.1099  0.0089
27024W        W33624  16.329   3.833  11.794  0.1732  0.1101 -0.2373
27025W        W33625  16.113   4.540  11.990  0.1207  0.1307  0.1331
27026W        W33626  25.263   6.352   3.875 -0.1679  0.0113  0.2249
27027W        W33627  11.859   2.213  24.872  0.1349  0.0764  0.0966
27028W        W33628  15.694   3.886  33.624  0.2260 -0.2671  0.0429
27029W        W33629  10.199   1.240  20.337  0.0685  0.0156 -0.0685
27030W        W33630   2.544   3.279   5.461 -0.1145  0.2188  0.0767
27031W        W33631  24.308   0.245   1.116 -0.1917  0.2509  0.0859
27032W        W33632  14.984   6.473  28.465  0.1090  0.1038 -0.0650
27033W        W33633  12.406   4.211  22.842  0.0297  0.4614  0.1292
27034W        W33634  15.914   0.960   3.275  0.2521  0.4148 -0.1444
27035W        W33635  23.034   2.303   3.318 -0.0553  0.0756 -0.1546
27036W        W33636   0.810   5.209  31.198  0.2640  0.0700  0.0773
27037W        W33637  13.475   6.092  30.381 -0.2545  0.2588  0.2906
27038W        W33638  10.587   3.329  28.038 -0.1769  0.2310 -0.2593
27039W        W33639   1.826   4.428   3.220 -0.0891  0.0606  0.2454
27040W        W33640   9.712   1.368   8.670 -0.1216 -0.0611 -0.0768
27041W        W33641  21.163   5.986   1.214 -0.2361  0.0983 -0.3668
27042W        W33642  20.596   4.892  27.436 -0.2777 -0.2860  0.3120
27043W        W33643   8.676   2.476  13.673  0.0462 -0.0367 -0.1482
27044W        W33644  13.669   3.626  30.259  0.1733  0.1717  0.0675
27045W        W33645  25.421   3.385  22.793 -0.0929 -0.0483 -0.0427
27046W        W33646  13.055   2.171   1.371 -0.2526 -0.4727  0.0431
27047W        W33647   7.525   5.803  30.171  0.0700  0.0428  0.0020
27048W        W33648  21.318   5.779  35.157  0.0070 -0.0300 -0.2800
27049W        W33649   1.081   3.490  29.219 -0.1308 -0.1163 -0.2524
27050W        W33650  15.185   3.954  29.046  0.0489 -0.1079 -0.0732
27051W        W33651  12.314   5.439   7.277  0.2719  0.1492  0.0729
27052W        W33652   9.000   6.257   9.217 -0.0729  0.2690  0.0459
27053W        W33653   6.063   4.210  34.067 -0.2419  0.2714  0.2243
27054W        W33654   8.128   4.876   0.125 -0.1184  0.3038 -0.0578
27055W        W33655   6.868   2.267  22.496  0.4589  0.1314 -0.1724
27056W        W33656   4.796   1.936  32.967  0.0910  0.3406  0.3012
27057W        W33657  17.938   1.480   5.915 -0.1216  0.0781  0.0651
27058W        W33658   0.803   2.451  35.770 -0.1117 -0.0043  0.0849
27059W        W33659   4.156   2.648  32.408  0.0055  0.1554 -0.3528
27060W        W33660  25.827   4.796  30.953  0.1483 -0.0350 -0.1689
27061W        W33661   4.168   4.099  13.099 -0.0829 -0.1549 -0.4680
27062W        W33662  19.665   5.738  28.828 -0.1697 -0.0811 -0.5517
27063W        W33663  25.212   1.195  23.178  0.1572  0.0264  0.0873
27064W        W33664  10.310   2.870   4.058 -0.0693 -0.4526 -0.1257
27065W        W33665  22.032   4.161  21.809 -0.1381  0.0193 -0.0059
27066W        W33666  18.638   0.167   1.178 -0.0774  0.0249  0.2378
27067W        W33667  17.169   0.671  34.536 -0.2042 -0.1813 -0.0017
27068W        W33668   4.171   2.106  22.474 -0.1974  0.2372 -0.1517
27069W        W33669   9.387   5.308   0.623 -0.1576  0.2114  0.0769
27070W        W33670  20.207   3.331   6.268 -0.0766  0.0788  0.1890
27071W        W33671  23.177   3.999  33.063 -0.2389 -0.2262 -0.3714
27072W        W33672  21.714   4.952   6.592 -0.0188  0.2180  0.0979
27073W        W33673   7.758   1.268   4.338  0.1061  0.0430  0.2879
27074W        W33674   3.163   3.437  21.067  0.0318  0.0955  0.0003
27075W        W33675  13.101   4.857   7.987 -0.2011 -0.0325 -0.1363
27076W        W33676  11.176   1.540  11.058 -0.3375 -0.0455 -0.1432
27077W        W33677   8.530   2.054  10.427 -0.3742 -0.0675  0.0456
27078W        W33678  12.774   3.500  30.554 -0.1443 -0.0260 -0.0818
27079W        W33679  14.331   1.551   3.293  0.0537  0.1042 -0.2068
27080W        W33680  18.304   5.931   9.031 -0.1449 -0.1127  0.0826
27081W        W33681  10.580   5.898   0.241  0.1763 -0.1446 -0.2595
27082W        W33682  18.947   5.871  29.939  0.0694 -0.0591  0.2318
27083W        W33683  12.222   4.703  22.624 -0.0179  0.0854  0.1955
27084W        W33684  10.702   3.988  22.057  0.1859  0.2724 -0.0411
27085W        W33685  11.195   1.316  21.927 -0.0862 -0.0545 -0.1335
27086W        W33686  12.653   2.194  34.096  0.0994  0.3518  0.1253
27087W        W33687  25.174   4.220  33.463  0.1702  0.0693 -0.1004
27088W        W33688  20.205   5.897  31.737  0.2871  0.0806  0.1092
27089W        W33689   9.748   2.555  24.383 -0.0600 -0.0101  0.3975
27090W        W33690   8.902   0.932   3.474  0.1514 -0.2146  0.1555
27091W        W33691  19.642   4.566   3.576  0.1448  0.0605 -0.2263
27092W        W33692  22.837   5.242  25.015 -0.0736  0.0014  0.1319
27093W        W33693  20.744   5.477  28.818 -0.0147 -0.3391  0.0080
27094W        W33694   8.817   4.133   3.027  0.0080 -0.2646  0.0772
27095W        W33695   4.159   0.355  24.986  0.0735 -0.1659 -0.2024
27096W        W33696   6.382   0.954  30.797  0.2371 -0.0808 -0.1920
27097W        W33697   9.941   1.730  10.550 -0.0193  0.2757  0.0708
27098W        W33698  21.735   3.530  13.754 -0.0872 -0.3356 -0.0274
27099W        W33699  15.083   3.750  34.890 -0.1693  0.0995 -0.1411
27100W        W33700  12.355   5.271  35.077 -0.0421  0.0475  0.0841
27101W        W33701  25.866   0.523  14.160  0.0642  0.0749  0.1559
27102W        W33702  16.775   5.412  13.021 -0.2662 -0.3549  0.0508
27103W        W33703   4.864   2.489  35.653  0.2946 -0.1027  0.1276
27104W        W33704  18.811   3.571  11.162 -0.0587  0.0692 -0.0609
27105W        W33705  26.354   5.611  29.718 -0.0812 -0.2426 -0.0566
27106W        W33706   2.536   2.278  24.945  0.1453  0.1254 -0.3297
27107W        W33707   9.681   3.304  10.332 -0.0303  0.1214 -0.1405
27108W        W33708   0.013   4.813  27.908  0.3044 -0.1296  0.1209
27109W        W33709   6.887   4.039  11.962 -0.0568  0.0831  0.1916
27110W        W33710  14.592   5.907  29.715  0.0546  0.1611 -0.2732
27111W        W33711  10.407   5.781  29.850  0.1483  0.0569 -0.0935
27112W        W33712   3.045   5.820  28.052 -0.0147  0.0730  0.1349
27113W        W33713  20.989   2.782   6.174 -0.1933  0.0397 -0.0840
27114W        W33714   8.791   0.036  12.589 -0.1233 -0.0864  0.1151
27115W        W33715  16.314   3.007  14.638 -0.1178 -0.3137 -0.1579
27116W        W33716  12.687   5.438  11.263  0.1551  0.1737 -0.1422
27117W        W33717  18.882   5.728   6.319  0.2611 -0.3624  0.0310
27118W        W33718   0.410   3.149  10.844  0.1077  0.0107 -0.1329
27119W        W33719  22.670   3.961  29.208  0.0563 -0.0617 -0.0983
27120W        W33720  12.123   4.353  12.414  0.0974 -0.0876  0.1467
27121W        W33721   4.149   2.820  25.995 -0.1199  0.1047  0.4001
27122W        W33722  21.833   0.929  10.200 -0.1598  0.0434  0.0489
27123W        W33723  12.102   4.183   3.531 -0.2845 -0.0422  0.0011
27124W        W33724   2.503   0.975   2.965 -0.1081 -0.1899 -0.0021
27125W        W33725  23.903   4.033  21.451  0.2661 -0.0928 -0.0996
27126W        W33726  12.650   2.332   9.092  0.1705 -0.1705 -0.0572
27127W        W33727  24.510   5.911  25.077  0.1504 -0.3107  0.3012
27128W        W33728   8.054   5.667   8.879 -0.0004 -0.0124 -0.1771
27129W        W33729  17.332   0.250  20.809 -0.1522 -0.0495 -0.1430
27130W        W33730  23.316   6.386  22.533 -0.2149 -0.0739 -0.1573
27131W        W33731  18.393   0.386   9.504 -0.0701 -0.2158 -0.1139
27132W        W33732  25.169   0.140   6.051 -0.0044 -0.0372 -0.0969
27133W        W33733  24.765   5.283  28.109  0.1756 -0.0034  0.2191
27134W        W33734   8.769   2.307  15.533  0.3077  0.1976  0.0254
27135W        W33735  16.841   4.900   2.686  0.1307  0.1441 -0.0219
27136W        W33736  21.511   5.041  31.499 -0.0798  0.2009 -0.2283
27137W        W33737   9.245   2.099  33.086  0.1172  0.2068  0.1875
27138W        W33738  12.761   3.136   3.054 -0.2913  0.0019 -0.0906
27139W        W33739  23.810   2.870  27.578 -0.1938  0.1077 -0.1315
27140W        W33740  15.220   5.194   6.016 -0.0615  0.1098 -0.0114
27141W        W33741   2.740   2.898  26.267 -0.0744  0.4624 -0.0309
27142W        W33742  21.430   4.225  12.656  0.1561 -0.2210  0.0138
27143W        W33743   6.809   1.236  11.067 -0.2103  0.2762  0.1593
27144W        W33744  21.921   1.882   4.811 -0.0481  0.0733  0.2239
27145W        W33745  18.922   2.376  13.280 -0.0723 -0.1311  0.1092
27146W        W33746   5.726   2.645  27.544  0.0973  0.0766  0.1432
27147W        W33747   6.671   4.229  29.944  0.0987 -0.4037  0.1907
27148W        W33748   0.704   2.599  24.954  0.3331  0.0977  0.1020
27149W        W33749  16.932   4.896  23.577  0.1060  0.2745 -0.0983
27150W        W33750  13.465   2.708  11.205 -0.4182  0.1702 -0.0064
27151W        W33751  23.700   5.392  23.187 -0.2616  0.0573  0.1739
27152W        W33752  12.567   1.380  26.204  0.2456  0.2332  0.2618
27153W        W33753   1.535   2.024  30.442  0.1229  0.0451  0.2016
27154W        W33754  16.453   3.848  21.741  0.0520 -0.0440 -0.1229
27155W        W33755  17.679   1.851  10.207 -0.3024 -0.0037 -0.0103
27156W        W33756  21.835   2.633   3.598 -0.0350  0.0262  0.0911
27157W        W33757   6.695   5.975   6.974 -0.2351  0.1356 -0.3136
27158W        W33758  14.239   1.201   7.049  0.3232 -0.0464 -0.2197
27159W        W33759  19.180   3.349   1.380  0.0199  0.1437 -0.0887
27160W        W33760  11.873   2.978  13.168  0.0810  0.4030  0.1409
27161W        W33761   1.647   2.913  32.611 -0.0304 -0.0924 -0.1013
27162W        W33762  13.832   3.577  33.504  0.1516 -0.2097 -0.0242
27163W        W33763   3.927   0.939  10.909 -0.1718 -0.0739  0.0223
27164W        W33764   1.205   2.017  23.349 -0.2159  0.0849  0.2075
27165W        W33765   6.330   5.699  10.281  0.0154 -0.1105 -0.0589
27166W        W33766  13.594   0.371  14.071 -0.0135 -0.1879 -0.0400
27167W        W33767   2.564   3.840  11.558 -0.1126 -0.1314  0.1744
27168W        W33768  16.577   4.535  25.055  0.0383 -0.0759  0.0607
27169W        W33769  10.207   2.293  26.625  0.1725  0.1484 -0.1949
27170W        W33770  18.636   4.271  27.602 -0.0506 -0.0004 -0.2769
27171W        W33771  20.453   3.048  22.504  0.0139  0.0146 -0.0465
27172W        W33772   7.261   1.875   1.475 -0.0235  0.1311 -0.1880
27173W        W33773  20.220   1.670  26.417 -0.0447 -0.1336 -0.0220
27174W        W33774  23.621   6.275   9.995  0.1467  0.0570  0.1103
27175W        W33775   5.879   5.981  13.045 -0.2594 -0.0575 -0.1723
27176W        W33776   9.287   2.141  31.895 -0.1079  0.0686  0.0586
27177W        W33777  12.003   2.932  22.317  0.2419  0.0523  0.2089
27178W        W33778   4.096   0.384  32.308 -0.0596 -0.1141 -0.0148
27179W        W33779  16.806   2.244  34.913  0.0477  0.2917 -0.0585
27180W        W33780   9.151   3.653  12.945  0.0486  0.0582 -0.0033
27181W        W33781  18.100   3.119  12.203 -0.0873  0.1712 -0.0964
27182W        W33782   1.616   1.990  13.579  0.2409  0.2842 -0.4149
27183W        W33783  18.705   0.357   3.160  0.0948  0.4296 -0.1676
27184W        W33784  19.699   0.177   2.228 -0.1299  0.1693 -0.2243
27185W        W33785  15.928   2.479   6.044  0.1101 -0.2809 -0.2092
27186W        W33786   8.639   3.949  34.690  0.1865 -0.1422  0.2713
27187W        W33787   3.278   5.771   0.784 -0.0263 -0.0886  0.1307
27188W        W33788  14.737   4.127  29.032  0.2064 -0.0626  0.1502
27189W        W33789   8.900   6.013   5.209  0.0777  0.4220  0.0082
27190W        W33790  19.067   3.812   9.062  0.1219  0.0072 -0.3712
27191W        W33791   3.565   2.658   1.300 -0.4663 -0.0341 -0.0670
27192W        W33792  17.783   2.147  26.458  0.1893 -0.3185 -0.1036
27193W        W33793  23.151   4.951  31.418 -0.0226 -0.0497  0.0468
27194W        W33794   6.787   0.902  13.114  0.0158  0.0563  0.0350
27195W        W33795  24.475   2.365  32.287  0.0107 -0.3538 -0.1142
27196W        W33796   0.099   4.741   2.528  0.1920  0.1862  0.0300
27197W        W33797   8.973   1.970  10.206  0.3270  0.0949  0.1191
27198W        W33798  10.418   6.441   8.690  0.0028 -0.0081  0.3804
27199W        W33799   8.739   3.007  33.786 -0.2931  0.0050 -0.0279
27200W        W33800  16.122   5.457  30.389 -0.1280  0.2198  0.0852
27201W        W33801   2.923   4.501  12.255  0.4610 -0.0607  0.0578
27202W        W33802  18.645   6.268  20.594 -0.1798  0.1019 -0.0798
27203W        W33803  15.917   6.336  20.791  0.1565  0.1017 -0.1356
27204W        W33804  19.226   2.314   1.308 -0.3854  0.1413  0.0249
27205W        W33805  22.315   5.893  33.578 -0.0106 -0.0653  0.3690
27206W        W33806   5.910   1.714  21.278 -0.1084 -0.0579 -0.0517
27207W        W33807  13.325   0.858   1.333 -0.0327 -0.2651 -0.0160
27208W        W33808  14.711   5.869  13.115  0.0504 -0.0403 -0.0458
27209W        W33809  19.759   2.105  25.971  0.0248  0.0158 -0.1983
27210W        W33810  10.190   0.119   9.531 -0.0230 -0.2074 -0.3687
27211W        W33811  17.481   3.218  25.062 -0.1570 -0.1078 -0.2095
27212W        W33812   7.050   6.279  30.771  0.1429 -0.3427 -0.2034
27213W        W33813   3.942   2.071   8.953 -0.0905  0.1903  0.0014
27214W        W33814  12.542   5.069  27.171 -0.1581 -0.1731 -0.0945
27215W        W33815  14.052   2.908  25.810 -0.2695 -0.2868  0.2485
27216W        W33816  19.654   3.871   5.579 -0.0982 -0.2899 -0.1468
27217W        W33817  18.758   6.606  35.535 -0.3086  0.3478  0.2037
27218W        W33818  17.628   1.171  25.590  0.1757 -0.0040  0.2371
27219W        W33819   8.033   3.936  26.848  0.0326 -0.2866  0.0838
27220W        W33820   3.480   0.703   0.743  0.3833 -0.0021  0.0893
27221W        W33821  13.193   6.078   2.368  0.0061 -0.1925  0.1276
27222W        W33822   5.831   2.872   9.330  0.3737  0.1602  0.1844
27223W        W33823  19.278   3.335   7.298  0.0899 -0.0125  0.1196
27224W        W33824  11.246   1.677   6.482 -0.1495 -0.1997  0.0543
27225W        W33825  13.506   0.809   3.511 -0.1198 -0.0729 -0.3189
27226W        W33826  13.856   1.790  13.020 -0.2201  0.0023 -0.1640
27227W        W33827  24.244   0.576   2.747  0.0566 -0.1549  0.1471
27228W        W33828  11.229   0.867  30.593 -0.0907  0.0057 -0.3347
27229W        W33829   0.263   3.687  13.371  0.2536 -0.0500 -0.2920
27230W        W33830  13.791   2.438  24.909 -0.1183  0.0693  0.1472
27231W        W33831   3.544   1.943  11.481  0.0263  0.1327 -0.1361
27232W        W33832   3.398   3.001   5.460 -0.0955 -0.1918 -0.1895
27233W        W33833   7.480   0.182  34.164  0.1232  0.6040 -0.0846
27234W        W33834  10.644   6.444  33.819 -0.0383  0.0135  0.1219
27235W        W33835  11.082   1.548  22.993  0.1111 -0.1485 -0.1527
27236W        W33836  17.841   6.281  24.512 -0.1838  0.0695  0.0735
27237W        W33837  21.958   5.729  14.655 -0.1873 -0.0566  0.0416
27238W        W33838   7.815   3.868  30.699 -0.1204 -0.0277 -0.1008
27239W        W33839  21.436   3.145  32.490 -0.2487 -0.0641  0.2677
27240W        W33840   7.307   4.907   4.410 -0.0012 -0.2408  0.0227
27241W        W33841   0.298   2.717  10.676 -0.2249 -0.1227 -0.0774
27242W        W33842   2.399   2.689   9.356 -0.0181  0.0225 -0.2039
27243W        W33843  18.829   5.431  11.516 -0.2583  0.0437  0.1532
27244W        W33844   0.074   5.565   4.985  0.0183 -0.0613 -0.2513
27245W        W33845  25.411   4.283  21.951  0.3018 -0.0367 -0.2116
27246W        W33846   9.999   6.376  12.352 -0.1806  0.1562  0.1715
27247W        W33847   4.515   4.615   8.035  0.1387  0.0789 -0.0413
27248W        W33848  23.733   3.936   5.314 -0.0111 -0.1973  0.0038
27249W        W33849  16.965   4.737   4.990 -0.0545  0.0214 -0.0992
27250W        W33850  20.424   0.062   5.493 -0.2773 -0.0144 -0.1609
27251W        W33851  17.942   2.053   3.304 -0.3354  0.0047  0.3538
27252W        W33852   3.723   1.727   1.407 -0.0184 -0.1691  0.3834
27253W        W33853   0.575   3.467   8.808 -0.1296  0.2498 -0.0858
27254W        W33854   0.924   3.764  24.164 -0.0647  0.0312 -0.3428
27255W        W33855  23.503   3.555   7.148  0.2274  0.0279 -0.2986
27256W        W33856  15.010   5.077  28.066 -0.0717  0.3575  0.2020
27257W        W33857  18.566   0.192  30.996  0.1470 -0.0564 -0.1334
27258W        W33858   2.443   1.518  14.960  0.0052  0.2308 -0.1639
27259W        W33859  10.417   5.365  28.192  0.0553 -0.0081  0.0148
27260W        W33860   6.516   3.046  34.890 -0.1245  0.0912  0.0248
27261W        W33861   8.251   4.564   7.401  0.3548 -0.0230 -0.3261
27262W        W33862  10.461   1.635  29.190  0.2325  0.0250 -0.1134
27263W        W33863  20.660   3.577  15.102 -0.1834  0.1766 -0.1864
27264W        W33864   9.417   4.509  29.004  0.1419 -0.1202 -0.0082
27265W        W33865   4.598   1.100  22.560  0.0733  0.2704 -0.0800
27266W        W33866  18.127   1.433  25.451 -0.1505 -0.1155  0.1883
27267W        W33867   2.495   4.371   8.000 -0.1358  0.0862  0.1655
27268W        W33868  14.090   1.602   8.892 -0.1396  0.0941 -0.1927
27269W        W33869  15.627   2.468   9.565 -0.1066  0.1514 -0.2795
27270W        W33870   2.988   1.137   8.499 -0.1033  0.0272  0.1063
27271W        W33871   9.040   0.761   7.414  0.0002 -0.2850  0.4396
27272W        W33872   9.245   1.070  35.672  0.0376 -0.3236 -0.0913
27273W        W33873  21.914   4.690  34.908 -0.1039  0.2551  0.2945
27274W        W33874   4.355   6.387  25.784 -0.1455 -0.0328 -0.1130
27275W        W33875  14.966   5.864  15.057  0.0578 -0.1999 -0.0489
27276W        W33876   5.276   4.349   1.451 -0.1269 -0.0309 -0.1652
27277W        W33877  20.914   6.277  30.722 -0.1267 -0.0135 -0.1442
27278W        W33878   3.621   4.519   4.513  0.1230 -0.0379 -0.0415
27279W        W33879   7.387   2.863  11.438 -0.1231  0.0998  0.0157
27280W        W33880  20.692   5.032  32.714 -0.3103 -0.2375 -0.1396
27281W        W33881  17.046   0.447   6.450  0.0574 -0.0272 -0.2506
27282W        W33882   2.838   0.562  28.570  0.0453 -0.0224  0.3309
27283W        W33883  24.784   5.301  11.451 -0.1842 -0.2130 -0.0217
27284W        W33884  22.113   4.372  11.680 -0.2928  0.0699  0.1488
27285W        W33885   4.799   1.849  27.391  0.0086 -0.1596  0.4356
27286W        W33886   2.922   2.699   7.379  0.0246 -0.1578 -0.0179
27287W        W33887  18.364   6.436   6.125 -0.0180  0.2563  0.1370
27288W        W33888   5.450   6.501   0.473 -0.0671  0.0335 -0.1372
27289W        W33889   7.327   1.532   5.488  0.3403  0.1130  0.1736
27290W        W33890  22.969   4.774  15.377  0.2775 -0.2890 -0.0688
27291W        W33891  23.062   0.504   5.378 -0.0486  0.0187 -0.2109
27292W        W33892  18.468   1.567  10.500 -0.0944  0.0708 -0.0648
27293W        W33893   0.432   1.347  33.404  0.1352  0.0907  0.1374
27294W        W33894  11.446   5.073  14.744  0.0428  0.1977  0.2003
27295W        W33895  11.286   5.335   4.182 -0.0650  0.0129  0.0175
27296W        W33896   1.595   5.278  30.830 -0.1880 -0.0303 -0.1222
27297W        W33897   7.676   4.035  23.718  0.0402  0.1638 -0.1672
27298W        W33898   0.573   1.703  25.175  0.0361 -0.0772 -0.1677
27299W        W33899   1.754   3.584   3.317 -0.3151  0.1574  0.1348
27300W        W33900   6.529   3.476  34.071  0.0436 -0.0277 -0.0518
27301W        W33901  15.555   6.569   2.608  0.0385 -0.2509 -0.0093
27302W        W33902  21.314   2.819   1.603 -0.0669  0.0684  0.1047
27303W        W33903   9.456   5.930  11.043  0.1759  0.0273  0.1230
27304W        W33904   5.515   1.576   7.855  0.1351  0.4373  0.2418
27305W        W33905  16.938   3.781  30.725  0.1865  0.2258 -0.0860
27306W        W33906  17.344   6.496  21.191 -0.1814 -0.0518 -0.3251
27307W        W33907  12.370   5.049  24.289  0.2693  0.0088  0.0121
27308W        W33908  14.987   5.956   6.304  0.0350 -0.4431  0.0575
27309W        W33909   1.522   0.202  27.132 -0.1303 -0.2385  0.2780
27310W        W33910  18.190   1.127  26.330  0.0182  0.2852  0.2426
27311W        W33911  14.940   3.529  33.118 -0.0402  0.0027 -0.0647
27312W        W33912  13.259   0.271  20.531  0.3530 -0.0621 -0.1111
27313W        W33913  23.835   1.688  32.796 -0.0460  0.3476  0.2573
27314W        W33914   3.221   4.377  33.119 -0.1928  0.3134 -0.1196
27315W        W33915  17.088   2.452   2.489  0.1183  0.0506  0.1515
27316W        W33916   4.667   4.245  10.437 -0.1278 -0.1446  0.0062
27317W        W33917   9.260   1.800   9.385  0.0344 -0.0302 -0.1745
27318W        W33918  22.184   2.248  26.820 -0.0331 -0.0051 -0.1379
27319W        W33919  10.990   1.114   1.798  0.4588  0.2091 -0.1920
27320W        W33920  25.968   6.154  32.252  0.0988  0.1125 -0.2714
27321W        W33921   9.223   4.144  33.497 -0.3103  0.0894  0.1928
27322W        W33922   9.783   1.078   4.958 -0.1334 -0.2868  0.1049
27323W        W33923   2.247   3.704  26.829  0.0946 -0.4326  0.2329
27324W        W33924   9.804   2.690   2.821  0.1980  0.1746 -0.1355
27325W        W33925   3.415   1.202  12.935  0.1132  0.0256  0.3827
27326W        W33926   5.516   5.952  33.636  0.0211  0.0635 -0.1577
27327W        W33927  16.996   1.449  20.938  0.1048 -0.2081  0.0288
27328W        W33928  10.665   6.411   1.119  0.1438  0.0821  0.3226
27329W        W33929   9.608   1.401   2.396  0.1872  0.2679  0.1090
27330W        W33930   7.738   3.308  27.278 -0.1781 -0.0404 -0.0581
27331W        W33931  23.743   2.440  28.961 -0.0755  0.0629 -0.2378
27332W        W33932  12.182   4.005  24.561 -0.2855 -0.0977  0.0194
27333W        W33933  10.231   6.112   1.068  0.2585 -0.0046  0.1881
27334W        W33934  24.502   6.209  26.978  0.0134  0.1350 -0.0816
27335W        W33935   6.881   5.377  14.820  0.0589  0.0144  0.2027
27336W        W33936  17.765   6.278   0.384  0.0364 -0.2681 -0.2361
27337W        W33937  19.308   1.963   0.877 -0.0840 -0.0047 -0.0218
27338W        W33938  16.856   6.220  33.037  0.0077  0.0093  0.0967
27339W        W33939  10.595   1.005  32.341 -0.1734  0.0604  0.0896
27340W        W33940   3.701   6.556  34.363  0.5171  0.2259 -0.1388
27341W        W33941  22.116   3.066   5.679  0.3767  0.0985  0.0708
27342W        W33942   9.308   4.481   1.130  0.1960  0.2065 -0.0146
27343W        W33943  12.521   2.719  11.158  0.2718 -0.0208 -0.1830
27344W        W33944  20.714   1.984  28.607  0.0640 -0.0113 -0.0971
27345W        W33945  25.287   1.806   5.696  0.0978 -0.0773  0.0401
27346W        W33946   3.112   0.934  33.290  0.1797  0.1132 -0.2033
27347W        W33947  22.670   5.280   8.617 -0.2599 -0.2843  0.2402
27348W        W33948  24.479   1.729   0.246  0.1339  0.0632  0.0307
27349W        W33949  20.503   5.836  26.565  0.2922  0.1269  0.0501
27350W        W33950   0.040   2.914  29.921 -0.2053  0.1497 -0.2243
27351W        W33951  23.285   6.088  30.040  0.1699  0.0900 -0.2357
27352W        W33952  15.586   0.012  33.161  0.2677  0.0024 -0.0378
27353W        W33953  10.772   2.461  23.872  0.0865  0.2105  0.0651
27354W        W33954  14.708   4.509  10.508  0.1321 -0.2497 -0.0202
27355W        W33955  24.218   3.349   2.798 -0.2919  0.0620 -0.1303
27356W        W33956   0.087   1.208  33.070 -0.4150 -0.0453  0.2002
27357W        W33957  14.830   1.699  10.699  0.0576 -0.0940  0.0273
27358W        W33958   8.195   3.222  24.203  0.3668  0.0318  0.2524
27359W        W33959  19.694   3.623   3.737 -0.0475 -0.0263  0.2243
27360W        W33960   5.496   2.976  25.062 -0.0243 -0.0627 -0.0828
27361W        W33961  24.168   4.049  32.539  0.1994  0.1408 -0.1005
27362W        W33962  14.970   3.303  27.984 -0.1912  0.0422 -0.3268
27363W        W33963   1.961   0.529   7.322  0.1003 -0.1385  0.3458
27364W        W33964   9.411   6.282  27.000 -0.1292 -0.3160  0.0925
27365W        W33965   8.223   5.929  32.151 -0.0822 -0.0106 -0.1737
27366W        W33966  21.661   3.251  24.285 -0.2022 -0.1718  0.0918
27367W        W33967   8.124   5.603   0.426  0.1018  0.0820 -0.2965
27368W        W33968   3.387   4.039  34.576 -0.1570 -0.0056 -0.2929
27369W        W33969   5.496   5.518  15.243  0.2064  0.1334  0.2034
27370W        W33970  17.730   3.673   6.806 -0.0834 -0.1862 -0.3378
27371W        W33971  24.447   6.320  33.670 -0.1357  0.3102  0.1624
27372W        W33972  16.244   5.964  23.498 -0.2611 -0.0960 -0.0438
27373W        W33973   9.901   4.031   5.615 -0.0600 -0.2792 -0.0098
27374W        W33974  14.223   4.803   8.244  0.3820 -0.1158 -0.1281
27375W        W33975  24.400   0.480  33.455 -0.2185  0.0494  0.0462
27376W        W33976   9.048   2.016  35.693 -0.3104  0.2505 -0.3179
27377W        W33977  21.025   5.972  23.792  0.0529  0.0735 -0.0096
27378W        W33978  14.176   5.888   0.635 -0.3524  0.0069 -0.1293
27379W        W33979  16.349   3.149  13.475  0.0611 -0.1239 -0.0941
27380W        W33980  12.973   4.954  30.784 -0.1784  0.0577  0.1112
27381W        W33981  17.738   1.386  33.343 -0.2500  0.2737 -0.2552
27382W        W33982  11.959   5.715  23.725 -0.1762 -0.1396 -0.1590
27383W        W33983   2.983   1.313  34.245 -0.1010  0.3138 -0.0468
27384W        W33984   7.667   5.233  14.895  0.2915  0.1521  0.2515
27385W        W33985   2.085   1.374  11.567 -0.2639 -0.2274 -0.2140
27386W        W33986  16.124   2.933  32.239 -0.0305  0.1334  0.1439
27387W        W33987   1.382   0.571  26.833 -0.0521 -0.2010 -0.0816
27388W        W33988   3.993   3.946  25.005 -0.0760 -0.4673 -0.2043
27389W        W33989   1.263   2.084  30.059 -0.1463 -0.2798  0.1751
27390W        W33990   7.587   5.555  35.992 -0.0840 -0.1544 -0.2073
27391W        W33991   1.033   6.141  25.681  0.1470  0.0045 -0.2513
27392W        W33992   8.878   4.547  28.231  0.1754 -0.0183  0.0576
27393W        W33993   2.114   4.814  32.132 -0.0174 -0.2289  0.0193
27394W        W33994  12.574   4.360  25.879 -0.2138  0.0573  0.1223
27395W        W33995   9.027   6.596  33.171  0.1990  0.4306  0.0884
27396W        W33996  20.149   1.772  12.780  0.1222  0.2362  0.4303
27397W        W33997   7.587   1.824  23.240 -0.1913 -0.1342  0.1471
27398W        W33998   5.387   6.266  10.319 -0.0270  0.0307  0.0024
27399W        W33999   2.537   4.300   8.500  0.1042 -0.1177 -0.2066
27400W        W34000  18.130   6.229  13.749  0.2376  0.1316 -0.0365
27401W        W34001   3.685   4.824   0.012 -0.0474 -0.0864  0.1196
27402W        W34002   5.803   1.909  35.154  0.1732  0.0879  0.0336
27403W        W34003  19.827   0.023  28.009  0.1436 -0.0580 -0.0635
27404W        W34004  24.519   3.059   8.828  0.0650  0.1379 -0.1434
27405W        W34005  22.953   1.100  10.401  0.1377 -0.0678 -0.1852
27406W        W34006  16.177   4.235  24.661 -0.3879 -0.0120 -0.3740
27407W        W34007  14.552   2.624  30.200  0.2099 -0.4175 -0.0543
27408W        W34008   5.103   5.012   2.848 -0.0539  0.3345  0.0497
27409W        W34009  17.636   2.288  10.528  0.0700  0.1235  0.1445
27410W        W34010  14.131   4.521  30.012 -0.0650 -0.1797 -0.1084
27411W        W34011   6.828   3.120  23.106 -0.0645  0.1179 -0.2277
27412W        W34012  14.596   4.255   0.674 -0.1051 -0.3099 -0.1340
27413W        W34013   8.812   5.954  33.858 -0.1007 -0.1777  0.1761
27414W        W34014  23.336   3.972  21.345  0.1433 -0.0000 -0.1858
27415W        W34015  12.749   3.577  13.928  0.0331 -0.1807  0.1107
27416W        W34016  10.038   2.476   9.111  0.1737  0.0182  0.0396
27417W        W34017  16.856   2.073  23.634 -0.0667  0.1312 -0.1569
27418W        W34018   8.032   5.685  23.501  0.1917  0.1505 -0.0552
27419W        W34019  18.262   3.786  28.184  0.1721  0.0337  0.3509
27420W        W34020   6.952   2.765  22.435  0.1983  0.2338 -0.1088
27421W        W34021  13.730   3.400  24.597  0.1297  0.1503  0.0446
27422W        W34022   7.545   4.893  23.831  0.1062  0.3061  0.0141
27423W        W34023  13.061   5.555  21.327 -0.1446  0.2515  0.1072
27424W        W34024   2.392   2.253   3.521  0.1285 -0.0138 -0.3984
27425W        W34025   2.059   6.136   3.613 -0.0472 -0.2508 -0.0199
27426W        W34026  14.223   4.020  32.593  0.1603  0.2656  0.2358
27427W        W34027  21.434   3.792   8.003  0.3139 -0.1289  0.0198
27428W        W34028  15.332   1.931  21.752  0.0195 -0.0098  0.1881
27429W        W34029  15.508   1.604   7.760 -0.0158 -0.1444  0.2157
27430W        W34030  23.874   5.144   2.352 -0.1574 -0.0238 -0.3388
27431W        W34031  11.379   6.568   4.267 -0.0925 -0.1547  0.0254
27432W        W34032   3.524   4.259  31.640  0.1436  0.0471 -0.3021
27433W        W34033  25.248   2.212  10.059  0.0223  0.1541  0.2064
27434W        W34034  26.090   5.533  10.477 -0.1370  0.1113  0.2698
27435W        W34035  15.786   4.550  25.828 -0.2937  0.0674 -0.0060
27436W        W34036  23.107   1.763  21.919  0.1214 -0.1047  0.1518
27437W        W34037  15.253   0.262  34.783  0.2748  0.1094 -0.0327
27438W        W34038  25.459   0.027  22.385  0.1707 -0.0341  0.1127
27439W        W34039   1.557   5.628   8.968  0.0290  0.2288 -0.1700
27440W        W34040   2.089   2.148  10.959 -0.2430 -0.1369  0.0445
27441W        W34041   7.921   3.224   7.418 -0.1969  0.2443  0.0794
27442W        W34042  25.905   5.487   6.149 -0.0438 -0.0390  0.0795
27443W        W34043   4.272   0.037  14.529  0.0041  0.0977 -0.2417
27444W        W34044   0.887   4.749  31.349  0.1550  0.1170  0.0595
27445W        W34045  12.730   4.150   4.495 -0.2309  0.1115 -0.0934
27446W        W34046  23.162   6.083  10.056  0.5063 -0.0442 -0.0206
27447W        W34047   9.872   3.730   7.386 -0.0394  0.2581  0.3003
27448W        W34048  21.083   4.695  34.297 -0.1797  0.1263 -0.1213
27449W        W34049   1.912   2.472   8.978  0.3504  0.0790  0.1874
27450W        W34050   1.471   3.155  28.468 -0.1603  0.0850 -0.2241
27451W        W34051  14.625   3.027  35.972  0.1560 -0.2190 -0.0548
27452W        W34052   5.695   1.880   6.540 -0.1497 -0.1172  0.2310
27453W        W34053  13.217   6.587  22.274 -0.3781 -0.2134  0.1229
27454W        W34054   4.390   4.959  23.100 -0.0072 -0.1663  0.0703
27455W        W34055   1.517   1.752  11.540  0.0149  0.1990 -0.2245
27456W        W34056   2.812   4.567   3.540  0.2946  0.1813 -0.1217
27457W        W34057  10.385   5.071  25.592 -0.1534 -0.1197  0.0954
27458W        W34058  20.133   3.500   7.996  0.0759 -0.1640 -0.0464
27459W        W34059  11.683   1.555  26.259  0.1010  0.0016  0.1769
27460W        W34060   7.036   2.619  23.421 -0.1435  0.0368 -0.0064
27461W        W34061   0.278   0.524  34.492 -0.1427  0.0312  0.3472
27462W        W34062  13.748   3.548  13.700  0.1580 -0.1986  0.0143
27463W        W34063  12.913   4.866  25.017 -0.1538  0.1356 -0.0704
27464W        W34064   2.738   3.131   3.969  0.2976 -0.2669  0.0079
27465W        W34065  22.085   4.399  35.314 -0.4696 -0.2762  0.1043
27466W        W34066  15.899   5.077  35.956  0.0429  0.1376 -0.2727
27467W        W34067  11.306   6.112  10.375  0.0436 -0.3372 -0.0216
27468W        W34068  18.578   1.476   1.673  0.0633 -0.1656  0.1429
27469W        W34069   3.905   1.093  10.425 -0.0117  0.0643  0.0216
27470W        W34070  26.387   2.244  22.127 -0.2059 -0.2263  0.1030
27471W        W34071   9.246   1.513   5.732 -0.0720 -0.1576 -0.0760
27472W        W34072  21.763   0.396  14.578 -0.0111  0.2755  0.2195
27473W        W34073  10.180   2.417   4.598 -0.2325 -0.1865  0.0659
27474W        W34074  11.927   6.501  27.952 -0.0818  0.0900 -0.0249
27475W        W34075   0.299   4.086   8.088  0.0152 -0.5067 -0.0011
27476W        W34076   8.365   1.710   6.202 -0.2811 -0.0032  0.3161
27477W        W34077   1.137   4.610   4.779  0.1757  0.3351 -0.1391
27478W        W34078  14.352   1.680   3.760  0.2149  0.0454  0.0665
27479W        W34079   8.680   2.388  35.516 -0.3339  0.0165  0.3993
27480W        W34080  21.089   5.930  20.521  0.0003 -0.0278 -0.1718
27481W        W34081  12.287   1.156   4.301  0.0588  0.3465 -0.1064
27482W        W34082  17.715   0.215  28.582 -0.0852 -0.0079 -0.0999
27483W        W34083   0.709   4.728   7.725  0.1098 -0.0812 -0.3845
27484W        W34084   9.692   5.812  23.352  0.2971 -0.0500  0.0526
27485W        W34085   6.951   4.363  30.358 -0.6193 -0.1440  0.0027
27486W        W34086  20.442   2.615  21.930  0.2897 -0.0750 -0.0351
27487W        W34087  12.266   0.643   5.924 -0.0594 -0.0405  0.1394
27488W        W34088   4.822   0.402   6.451  0.2915  0.3537  0.2487
27489W        W34089   0.559   1.553  22.821 -0.3409  0.0340  0.2075
27490W        W34090  13.984   4.934   1.708  0.3522 -0.2354  0.1759
27491W        W34091   4.862   1.233  12.899  0.0182  0.2997  0.0817
27492W        W34092  22.863   1.232  22.971  0.2315 -0.2842  0.1811
27493W        W34093  10.488   5.626  33.002  0.1987  0.1072 -0.4857
27494W        W34094  14.675   6.133   6.995  0.3423 -0.2856  0.1665
27495W        W34095   0.755   1.191  11.784 -0.2373 -0.2848  0.0783
27496W        W34096   7.867   4.233  22.691  0.0433 -0.1541  0.1863
27497W        W34097  15.646   3.189   8.200 -0.0707  0.0854  0.2114
27498W        W34098  12.826   1.669  23.337  0.3379 -0.2304 -0.1714
27499W        W34099  23.755   4.875   3.208 -0.2398 -0.3072 -0.1764
27500W        W34100   3.192   3.591  33.579  0.0679  0.0065 -0.1208
27501W        W34101  17.908   0.233  33.145 -0.1070 -0.2099 -0.2018
27502W        W34102  17.887   2.833  33.691  0.2467 -0.2238  0.3141
27503W        W34103  17.340   5.355  26.429 -0.0918 -0.1888 -0.1315
27504W        W34104  16.438   6.286   5.231 -0.2099  0.1687  0.2379
27505W        W34105  23.813   6.329  10.481  0.1761 -0.2487  0.1212
27506W        W34106  24.865   5.214  32.575 -0.0965 -0.1035  0.2594
27507W        W34107   6.553   6.342   3.389 -0.2292 -0.1271  0.2106
27508W        W34108  16.999   4.723  33.610 -0.0063 -0.3680 -0.3059
27509W        W34109  19.798   5.486  24.700 -0.1410 -0.1721 -0.0418
27510W        W34110  24.145   6.456   5.133 -0.1264 -0.0235  0.1849
27511W        W34111   4.186   3.479  25.109 -0.0354  0.1225 -0.1258
27512W        W34112  22.645   0.520  30.196 -0.1856  0.2172 -0.0378
27513W        W34113  25.862   3.208   4.885  0.0503 -0.0279 -0.1760
27514W        W34114  25.165   3.411  23.839 -0.1327 -0.0735  0.0113
27515W        W34115  25.376   5.030   2.756  0.1253  0.1386 -0.2082
27516W        W34116  26.254   3.877  10.499  0.1648 -0.0263 -0.0706
27517W        W34117   8.055   2.815  10.610 -0.2420  0.0285  0.4104
27518W        W34118   9.558   2.524  32.083 -0.0242  0.0652  0.0037
27519W        W34119  18.178   5.177   3.902  0.1405  0.1321  0.2151
27520W        W34120  21.630   4.874  20.554 -0.1032 -0.0471  0.0741
27521W        W34121   5.962   1.748  22.368 -0.1977  0.4435  0.1031
27522W        W34122   7.654   6.270  30.147 -0.2272 -0.0142  0.0835
27523W        W34123  21.691   3.268  21.166 -0.1525 -0.2256  0.1979
27524W        W34124  18.749   5.901   1.712 -0.1564 -0.0411  0.1493
27525W        W34125   6.199   0.391  28.587  0.1909  0.0431 -0.0238
27526W        W34126   9.343   0.072  25.626 -0.0155  0.3438  0.2523
27527W        W34127   7.700   1.241  35.019 -0.2426 -0.0531  0.0288
27528W        W34128  13.857   3.853   3.690  0.1083  0.1768 -0.2237
27529W        W34129   0.885   1.248  22.988 -0.1449 -0.0153  0.3121
27530W        W34130  11.985   1.157   9.278  0.1359  0.1493  0.3277
27531W        W34131   2.434   4.612  33.605 -0.0615  0.0013 -0.0901
27532W        W34132  24.522   1.373  30.109  0.1139  0.0586  0.1287
27533W        W34133  24.269   1.306   8.588  0.0825  0.0294  0.1256
27534W        W34134   2.135   3.564  12.250 -0.0388  0.0897 -0.0465
27535W        W34135   7.476   5.634   3.893 -0.1154  0.1515  0.1484
27536W        W34136  22.959   2.673  14.559  0.3252 -0.0814 -0.0435
27537W        W34137   3.461   1.827  27.485  0.0547  0.4497 -0.2278
27538W        W34138  26.266   4.701  25.859  0.0752 -0.1873  0.1921
27539W        W34139   6.597   6.565   6.925 -0.2297  0.0109  0.0237
27540W        W34140  17.742   1.183   5.098 -0.2133 -0.1230 -0.1169
27541W        W34141   6.694   6.606  20.917  0.1222 -0.1719  0.3545
27542W        W34142  21.408   6.382  13.401  0.2012  0.0657  0.2803
27543W        W34143  17.707   2.921  23.261 -0.1229 -0.1699  0.0426
27544W        W34144   2.527   5.752  31.495  0.0559 -0.2705  0.1944
27545W        W34145   3.837   4.882  29.738 -0.2129 -0.1418 -0.1498
27546W        W34146  24.947   4.605  29.629 -0.1043 -0.0505 -0.0802
27547W        W34147  20.293   0.690  26.257 -0.0650  0.0635 -0.0566
27548W        W34148   1.650   1.001   2.080  0.0435  0.0135  0.2608
27549W        W34149   7.620   1.759  35.295 -0.0873 -0.3607  0.2313
27550W        W34150  19.049   6.284  14.295  0.2212  0.3120  0.2017
27551W        W34151   1.565   4.796  19.713  0.0217  0.1271 -0.2147
27552W        W34152  25.028   6.465  22.287  0.1849  0.0973 -0.1515
27553W        W34153  18.677   3.403  25.340  0.2127 -0.1342 -0.4470
27554W        W34154  18.111   5.703  21.753  0.0223 -0.0363  0.1424
27555W        W34155  13.856   2.696   0.649 -0.0583  0.3594  0.0010
27556W        W34156  13.521   1.639  11.778  0.2636  0.0019  0.0173
27557W        W34157   1.306   2.012   0.663  0.2272  0.0573 -0.0082
27558W        W34158  22.276   4.782   9.479 -0.1094 -0.1752  0.1417
27559W        W34159  20.514   5.525  34.037  0.1030 -0.0128 -0.2441
27560W        W34160   5.921   3.058  31.566  0.0972 -0.0342  0.1462
27561W        W34161  11.303   6.163   7.137 -0.1704  0.2140  0.0244
27562W        W34162  11.806   5.452   1.737  0.1534  0.0606 -0.0989
27563W        W34163  12.782   3.409  10.446 -0.1234  0.1774  0.3376
27564W        W34164  18.401   0.169   3.513 -0.0802 -0.1249  0.1230
27565W        W34165  15.281   4.949  13.769 -0.3122  0.1078  0.0344
27566W        W34166  26.181   4.169   5.451  0.0719 -0.2211  0.0475
27567W        W34167  26.158   5.173  10.012 -0.2648 -0.0579 -0.1160
27568W        W34168   6.530   5.235  27.709  0.2967  0.0836 -0.2541
27569W        W34169   8.830   6.505   9.663 -0.1442 -0.2173 -0.0990
27570W        W34170  10.307   4.328  35.532  0.3331 -0.1108  0.1180
27571W        W34171  22.764   5.502  12.884 -0.2669 -0.2616 -0.1333
27572W        W34172   3.843   6.435  12.993  0.0545 -0.2307  0.0816
27573W        W34173   7.973   4.266  29.587 -0.0179  0.1639  0.0237
27574W        W34174  19.617   0.270  35.082 -0.0013 -0.1510 -0.1221
27575W        W34175  25.586   6.416   6.611 -0.2804 -0.0947 -0.0590
27576W        W34176  25.814   5.131   0.525  0.0796 -0.0864 -0.0170
27577W        W34177  22.658   0.256  14.622  0.2223 -0.1169 -0.4703
27578W        W34178   3.453   0.061  33.355  0.3624  0.0204 -0.0264
27579W        W34179   4.258   1.165  32.806  0.1044 -0.0165 -0.1997
27580W        W34180  15.968   1.213  11.975  0.0546  0.1362 -0.0280
27581W        W34181  18.931   2.970  26.353 -0.0370 -0.2756 -0.0323
27582W        W34182  18.694   3.939  31.706 -0.1129  0.0471 -0.1243
27583W        W34183   1.643   5.584  12.716  0.1560  0.2110  0.0510
27584W        W34184   1.114   5.297  20.373  0.1150 -0.2322  0.0017
27585W        W34185  22.850   6.131  15.036 -0.0048 -0.0413 -0.3894
27586W        W34186  10.041   2.568   2.432  0.0481 -0.1898 -0.1000
27587W        W34187   6.208   6.172  31.853  0.0723 -0.0209 -0.2335
27588W        W34188  22.178   0.823  15.296 -0.1028  0.1327  0.6263
27589W        W34189   6.907   4.505   4.450 -0.2635  0.1746 -0.1123
27590W        W34190  16.840   4.137  12.562 -0.2358 -0.0093  0.0168
27591W        W34191   3.625   0.722  10.525  0.3295  0.2261  0.1553
27592W        W34192  11.890   2.828  10.553 -0.1850 -0.1986 -0.2833
27593W        W34193   0.539   1.479  22.336  0.2853  0.1910  0.4001
27594W        W34194   6.865   5.214  14.265 -0.1452  0.0758 -0.1258
27595W        W34195  24.370   5.958  11.769 -0.1958  0.1852  0.1037
27596W        W34196  17.170   3.368  35.339  0.0184 -0.1245 -0.1244
27597W        W34197   6.065   0.984   2.933 -0.1234  0.0647 -0.0919
27598W        W34198  13.055   0.190   2.882  0.3812 -0.0665 -0.0986
27599W        W34199   3.541   0.395  36.079 -0.0492 -0.0981  0.1989
27600W        W34200  23.349   3.028  24.837  0.0894 -0.1003  0.1683
27601W        W34201   5.059   5.410  10.768  0.3928  0.0356 -0.0826
27602W        W34202   1.700   5.828   3.865  0.1850  0.0152  0.0863
27603W        W34203  20.730   6.403   3.524  0.2471 -0.0490  0.1391
27604W        W34204  15.667   2.609   6.656 -0.2626 -0.1640 -0.1011
27605W        W34205   1.125   0.330   6.642 -0.0319  0.0270 -0.0929
27606W        W34206  18.465   4.619  27.286  0.0905 -0.0664 -0.0181
27607W        W34207  24.393   5.479  27.304 -0.4810 -0.1334 -0.0193
27608W        W34208  23.890   2.831   7.643  0.0796  0.1865  0.1570
27609W        W34209  19.049   0.306   8.100  0.1445  0.1518  0.3585
27610W        W34210   9.107   0.335  23.734 -0.2696  0.3446 -0.1984
27611W        W34211  13.577   5.688   3.177 -0.3124 -0.2511 -0.1220
27612W        W34212  17.450   1.878  30.057  0.1238 -0.1544 -0.0391
27613W        W34213  12.150   3.431  21.519 -0.0693  0.2294 -0.2454
27614W        W34214   1.476   4.897   4.956 -0.3472  0.1144  0.4086
27615W        W34215  24.409   4.955  28.214 -0.0091  0.2560 -0.0375
27616W        W34216   4.167   0.900  25.040  0.0469 -0.2205 -0.0181
27617W        W34217   2.988   2.523   2.302  0.0541 -0.0927 -0.1528
27618W        W34218   7.152   4.595  13.843 -0.0901 -0.1473 -0.1015
27619W        W34219   0.690   2.452  31.823  0.0482  0.4328  0.0829
27620W        W34220   2.069   1.126  20.930  0.0256  0.0301  0.0350
27621W        W34221  16.975   5.726   6.644 -0.1528  0.0839  0.0202
27622W        W34222   7.393   5.971   3.494  0.0706 -0.3275 -0.0818
27623W        W34223  26.048   6.560  22.052 -0.2528  0.0583  0.0197
27624W        W34224  12.989   5.347  26.937  0.0284 -0.2585  0.0253
27625W        W34225  13.579   3.933  14.052  0.1974 -0.0754 -0.0170
27626W        W34226  21.519   2.716  32.141  0.4028 -0.3392  0.0554
27627W        W34227  11.968   0.020  25.832 -0.0447 -0.1782  0.1699
27628W        W34228  19.974   0.690   0.678  0.2807  0.0595  0.1968
27629W        W34229   7.335   0.767  10.381  0.1442  0.0916 -0.3267
27630W        W34230  21.939   5.528  36.003 -0.0357 -0.1677  0.0074
27631W        W34231   7.505   5.585   5.526 -0.0460  0.0071  0.3600
27632W        W34232  11.231   3.777  11.304  0.3285 -0.0584  0.0452
27633W        W34233  22.420   1.066   8.968 -0.0341 -0.2360 -0.2856
27634W        W34234   8.513   0.650  26.345  0.3520  0.2112 -0.0051
27635W        W34235   4.042   2.403  21.699 -0.0622  0.4060  0.0606
27636W        W34236   7.962   2.827  32.686 -0.0519 -0.1900  0.1035
27637W        W34237   7.411   5.164  22.080  0.1829  0.1614 -0.1363
27638W        W34238  17.579   2.476   4.995 -0.0569 -0.2238  0.1319
27639W        W34239  17.316   3.456   0.727  0.1398  0.1141  0.1246
27640W        W34240  20.743   1.441   3.465  0.2378  0.0669 -0.0398
27641W        W34241  12.868   5.462  24.293 -0.1253 -0.6909  0.2656
27642W        W34242   5.378   2.092  32.192  0.0353  0.0925 -0.1656
27643W        W34243   2.191   0.800   6.944  0.0265 -0.1761 -0.0152
27644W        W34244  11.053   4.192  23.371  0.1691 -0.3620  0.0437
27645W        W34245  25.969   3.383   1.541  0.3554 -0.0863  0.0250
27646W        W34246  26.230   0.787   3.520  0.1394 -0.0994 -0.4271
27647W        W34247   4.827   3.868  27.224 -0.1167  0.1616  0.1554
27648W        W34248   1.607   5.684  31.371 -0.1330  0.1134  0.0392
27649W        W34249   6.235   1.197  24.643  0.1108  0.2128 -0.1765
27650W        W34250   7.368   4.712   5.243  0.1145 -0.0782  0.0344
27651W        W34251   5.249   0.297  32.550  0.2433  0.0577  0.0620
27652W        W34252  21.916   5.816  34.986  0.1535 -0.0427 -0.0654
27653W        W34253  11.255   3.542  12.519  0.1112  0.1791 -0.0769
27654W        W34254   2.834   2.842  29.992 -0.0123 -0.1892  0.0715
27655W        W34255  25.501   4.529  35.961 -0.4236  0.0235 -0.1016
27656W        W34256  14.131   0.880   8.812 -0.0387 -0.1337  0.2944
27657W        W34257  19.734   2.598   7.799  0.2791 -0.4105 -0.0081
27658W        W34258   0.887   2.234   9.316  0.1003  0.1510  0.3043
27659W        W34259   7.220   0.875   6.273 -0.0635  0.0537  0.1051
27660W        W34260  14.610   1.590  34.197  0.0340 -0.0151  0.0608
27661W        W34261  26.078   5.179  22.348 -0.1325 -0.0822 -0.2600
27662W        W34262  16.641   1.233   5.895 -0.0837 -0.3033  0.1402
27663W        W34263   3.673   3.573  33.747 -0.1531  0.1776 -0.0246
27664W        W34264  25.160   0.165   5.474 -0.0609  0.1273 -0.2026
27665W        W34265  22.760   4.022   3.738 -0.0646 -0.0011 -0.1837
27666W        W34266  16.400   4.454  30.922  0.1565  0.2734 -0.3241
27667W        W34267   0.387   5.883   2.875 -0.2125 -0.1043  0.1396
27668W        W34268   2.730   1.322  33.317 -0.0238 -0.1375 -0.0510
27669W        W34269   6.540   2.706  23.193 -0.1705  0.0424  0.4079
27670W        W34270  10.631   2.641  21.223  0.0397  0.0553 -0.1328
27671W        W34271  23.616   1.428  31.457 -0.0679 -0.1637  0.0910
27672W        W34272  24.868   4.992   1.935  0.2889  0.1344 -0.3253
27673W        W34273   0.183   0.337  30.993  0.0271  0.2048 -0.2968
27674W        W34274   7.438   1.932  30.341  0.0571  0.0311  0.1550
27675W        W34275   5.735   6.199  34.398  0.1623 -0.1329 -0.1452
27676W        W34276   1.577   0.821  14.482 -0.0484  0.0534 -0.0056
27677W        W34277  20.776   0.170   4.629 -0.1561 -0.0502  0.0645
27678W        W34278  21.433   2.549   7.029  0.1431  0.0725 -0.0670
27679W        W34279   3.429   6.463  35.874 -0.1041 -0.0290 -0.2584
27680W        W34280   5.221   5.113  11.141 -0.1972 -0.1230 -0.0905
27681W        W34281  20.642   3.893   3.639  0.2119 -0.1006 -0.0115
27682W        W34282  12.890   0.445  10.660  0.1127  0.4675  0.1200
27683W        W34283  12.590   0.114  23.824  0.1671  0.0025 -0.1410
27684W        W34284   3.320   2.810  33.627  0.2064  0.0946  0.0431
27685W        W34285  22.053   6.290  29.392 -0.0941  0.0849 -0.0904
27686W        W34286  12.630   6.587  23.019 -0.1300 -0.3328  0.1119
27687W        W34287   5.432   4.483  16.013  0.1274  0.1526 -0.1260
27688W        W34288   5.617   2.518  10.545 -0.2326  0.0925  0.0036
27689W        W34289   4.507   1.765  20.713  0.0304  0.1174  0.0943
27690W        W34290  11.566   3.313  12.171  0.2904 -0.0080  0.2720
27691W        W34291  18.843   4.888   5.973  0.2168 -0.1282 -0.0175
27692W        W34292   9.414   3.612  29.299  0.0265 -0.1258  0.2344
27693W        W34293  10.825   2.421  34.572 -0.0482  0.1146 -0.0015
27694W        W34294   9.016   1.261  27.670 -0.0188  0.1005 -0.0965
27695W        W34295   3.547   4.086  14.515  0.2673  0.0764 -0.0396
27696W        W34296  10.325   2.421   1.859  0.1174 -0.2073 -0.0572
27697W        W34297   7.228   4.733  27.514 -0.1941 -0.0091  0.1515
27698W        W34298  23.255   0.859  21.375 -0.1039  0.3705  0.1085
27699W        W34299  26.167   2.358  30.043  0.0321  0.1729  0.2727
27700W        W34300   2.030   1.075  12.844  0.0282  0.3219 -0.0197
27701W        W34301   0.869   1.887   4.497 -0.1418 -0.0328  0.0010
27702W        W34302   4.186   0.689  22.430  0.1425 -0.0100  0.0348
27703W        W34303   9.270   0.805  29.186  0.1573 -0.3384  0.3207
27704W        W34304   9.036   5.769   4.133 -0.1073  0.0747  0.0459
27705W        W34305  25.796   6.005   1.275 -0.1793  0.4285  0.0248
27706W        W34306   9.729   1.792  23.933 -0.0974  0.0742  0.0022
27707W        W34307  11.095   6.494  34.649 -0.1780  0.2281  0.0739
27708W        W34308  19.611   3.691   7.215  0.0938 -0.0342  0.0014
27709W        W34309   6.595   2.672  32.048 -0.0857 -0.2742 -0.0064
27710W        W34310  25.146   6.350   5.109 -0.0818 -0.0546  0.0204
27711W        W34311  24.441   3.057   5.731 -0.2226  0.0225 -0.2214
27712W        W34312  17.686   0.336  27.674  0.1031  0.3375  0.0467
27713W        W34313   1.623   3.000  14.433 -0.1686 -0.0550  0.4848
27714W        W34314   1.663   1.977  32.613  0.1316 -0.0319 -0.0062
27715W        W34315   0.116   4.577   8.317  0.0168 -0.2397 -0.1396
27716W        W34316   4.139   6.363   7.471 -0.2585 -0.0130  0.1938
27717W        W34317  10.263   4.504  28.965 -0.0496 -0.0491  0.0953
27718W        W34318  14.532   1.306   6.587 -0.0104 -0.0868  0.0494
27719W        W34319   6.651   5.780  28.505  0.2870 -0.0289  0.1403
27720W        W34320  13.826   2.233  30.168 -0.2412  0.1865 -0.0026
27721W        W34321   0.566   4.789  22.596 -0.0176  0.1264 -0.0957
27722W        W34322  17.843   1.099  13.257 -0.0075  0.1125 -0.2268
27723W        W34323   3.925   2.877   3.308 -0.1833 -0.0134 -0.1193
27724W        W34324  16.970   3.174   2.157 -0.4240 -0.0187 -0.1236
27725W        W34325  25.560   5.919   2.622  0.2240  0.0742 -0.0698
27726W        W34326   9.048   4.167   8.366  0.2131  0.0398  0.0261
27727W        W34327  18.781   5.382  14.515 -0.0668 -0.1260 -0.2119
27728W        W34328  16.196   2.052  33.938 -0.2558  0.1104  0.0027
27729W        W34329  22.504   5.885  12.031  0.1869 -0.1542  0.4026
27730W        W34330   1.134   1.983  22.576  0.0942  0.1864 -0.0103
27731W        W34331  14.286   1.875  11.354 -0.0544 -0.1561  0.0435
27732W        W34332  12.405   3.108  26.866 -0.2757 -0.0949 -0.1050
27733W        W34333  19.331   0.940   7.324 -0.0811  0.1447  0.2090
27734W        W34334   4.399   3.600  10.361  0.4639  0.0816  0.0503
27735W        W34335   9.080   6.238  35.781  0.1592  0.0216 -0.1889
27736W        W34336  24.483   1.567   7.067  0.0143  0.0219 -0.1795
27737W        W34337   2.259   3.381  27.899  0.1535 -0.1607 -0.0810
27738W        W34338   7.881   1.577   2.162 -0.1644 -0.2811  0.0421
27739W        W34339  25.869   5.771  10.854 -0.1343 -0.1257  0.1488
27740W        W34340  15.770   0.899  22.472 -0.4831  0.2086 -0.2732
27741W        W34341  18.267   0.235  22.089  0.1743  0.1065  0.1557
27742W        W34342   6.798   1.403  25.586  0.2937 -0.4304 -0.2496
27743W        W34343  13.520   5.137   9.445  0.0101  0.0862 -0.3303
27744W        W34344  20.926   5.025  34.624 -0.1863  0.0305  0.0529
27745W        W34345  13.478   2.201  21.645 -0.0069 -0.2191 -0.1459
27746W        W34346  11.741   5.649  25.634 -0.1008 -0.2530 -0.1666
27747W        W34347  23.974   1.262  20.906 -0.1273 -0.1019 -0.0673
27748W        W34348  18.478   5.848  10.219  0.0544  0.1308 -0.2544
27749W        W34349   1.113   0.082  23.675  0.1101 -0.1560 -0.0343
27750W        W34350  13.356   5.816  12.003  0.1444  0.0622  0.0620
27751W        W34351  13.476   5.859  12.875 -0.0407  0.5289  0.2639
27752W        W34352   9.580   3.612   1.183  0.2149 -0.3551  0.2381
27753W        W34353   8.597   5.784  27.246 -0.0872 -0.1043 -0.1778
27754W        W34354   0.947   0.297  35.582 -0.0213 -0.1254  0.0375
27755W        W34355  25.097   2.886  11.983 -0.1352  0.1356  0.0138
27756W        W34356  21.671   1.407  35.466  0.1656  0.2123  0.3118
27757W        W34357   9.257   2.522   6.668 -0.3742  0.0636 -0.1600
27758W        W34358  24.067   5.506  12.804  0.3493 -0.0089 -0.1273
27759W        W34359  18.009   0.753  31.795 -0.0926  0.0021  0.1593
27760W        W34360  17.629   3.920  22.489  0.2757 -0.1820 -0.1403
27761W        W34361  26.022   5.440  25.227  0.1779  0.3590  0.0824
27762W        W34362   3.726   4.785  10.045  0.0136  0.2965  0.0399
27763W        W34363   4.693   6.090  25.473 -0.0792 -0.0729  0.0131
27764W        W34364   1.943   5.385  14.996 -0.0528  0.2715 -0.0145
27765W        W34365  14.264   0.267   1.434 -0.0413 -0.0054 -0.2535
27766W        W34366  13.602   1.756  10.758 -0.1514  0.1419 -0.3055
27767W        W34367   0.004   4.040  21.830  0.1202  0.1709 -0.3817
27768W        W34368   5.736   6.447  34.812 -0.1508 -0.0826  0.0017
27769W        W34369  14.143   4.984  27.214  0.4334  0.0965 -0.2330
27770W        W34370  16.035   3.477  23.393  0.1001 -0.1208  0.0738
27771W        W34371   4.099   2.005   8.329 -0.2444 -0.2667  0.0633
27772W        W34372  21.517   2.078   2.573  0.1644 -0.2280 -0.2068
27773W        W34373  20.905   5.289   4.006  0.1141 -0.2482 -0.2044
27774W        W34374  18.288   1.426  14.617 -0.1349  0.0393 -0.2279
27775W        W34375   1.976   4.344  31.720  0.1047  0.2407 -0.3090
27776W        W34376   3.751   6.005   9.407  0.2189 -0.4034 -0.2629
27777W        W34377   9.772   4.410  22.339 -0.0318  0.2056  0.0394
27778W        W34378   2.477   3.862   4.816  0.4391  0.0231 -0.0828
27779W        W34379   2.364   5.280  13.770 -0.0601 -0.2894  0.2530
27780W        W34380  13.539   5.047  28.605  0.0117  0.2629  0.3600
27781W        W34381  10.586   2.222  24.869 -0.0345 -0.3290  0.2084
27782W        W34382  13.001   1.772  11.764  0.1070  0.1451  0.1100
27783W        W34383  20.610   5.538  33.449  0.0430  0.1980 -0.2524
27784W        W34384  19.894   4.353   3.119 -0.0659  0.2156 -0.2544
27785W        W34385  16.885   4.341   8.366  0.1173  0.0283  0.0216
27786W        W34386  13.210   3.693  30.493  0.1115 -0.0559 -0.0473
27787W        W34387  10.748   5.846  33.373  0.2082 -0.0951 -0.1096
27788W        W34388   9.755   0.445  33.456  0.0911 -0.0604  0.3748
27789W        W34389   7.449   0.323  31.212 -0.0083 -0.1212  0.0354
27790W        W34390   4.159   3.256   0.287  0.2492  0.1052  0.1969
27791W        W34391   8.824   1.470  32.149  0.1681  0.1678  0.1636
27792W        W34392  22.026   2.522  15.279  0.1637  0.1886  0.2539
27793W        W34393  12.531   3.849  10.305  0.0003  0.3118 -0.2585
27794W        W34394  19.543   6.514   7.685 -0.0241 -0.1198  0.3059
27795W        W34395  11.645   3.743   2.283 -0.0701  0.2752  0.1377
27796W        W34396   0.848   5.836  28.173 -0.1264  0.0903 -0.3340
27797W        W34397  19.914   6.555  33.093 -0.1118 -0.1062  0.3072
27798W        W34398   5.069   2.251   7.612 -0.2022  0.0911  0.0335
27799W        W34399   4.680   1.954  35.930  0.0761  0.3011 -0.2614
27800W        W34400   6.015   1.447   6.712  0.1123  0.2621  0.0031
27801W        W34401  17.436   2.573  28.556  0.1832 -0.1949 -0.1411
27802W        W34402   6.851   0.149  25.902  0.1115  0.1691  0.1995
27803W        W34403  10.675   6.189  14.167  0.0602 -0.0533  0.0142
27804W        W34404   5.348   1.160   9.174  0.1969  0.0813  0.0275
27805W        W34405   2.809   0.714  12.202  0.1361 -0.1039 -0.3740
27806W        W34406   9.503   4.431  30.506  0.0596 -0.2576  0.2469
27807W        W34407  22.674   6.368  22.826 -0.0744  0.0833  0.0245
27808W        W34408   4.074   5.082  12.784 -0.5501 -0.0103 -0.0721
27809W        W34409   2.485   5.481  20.559 -0.1741 -0.1681  0.1427
27810W        W34410  24.236   1.327  30.726  0.0654  0.0497  0.3778
27811W        W34411  19.402   0.653   9.452 -0.1061 -0.1035  0.0951
27812W        W34412  21.756   2.134  21.773  0.2298  0.0035 -0.2331
27813W        W34413   0.678   0.526   8.910  0.0983 -0.1001  0.0081
27814W        W34414  15.986   3.333  14.942  0.2499  0.3027 -0.0590
27815W        W34415  24.401   0.744  31.904  0.4202 -0.1932  0.0120
27816W        W34416   8.091   1.935   4.110  0.3096  0.0313  0.0037
27817W        W34417  16.190   1.718  14.674  0.1142 -0.0740 -0.1648
27818W        W34418  20.651   4.872  24.990  0.0625 -0.1400  0.1143
27819W        W34419  17.505   5.017   5.525  0.0548  0.3052 -0.0149
27820W        W34420  23.414   6.391  25.568 -0.1048  0.1149 -0.1312
27821W        W34421   7.824   1.158   7.400  0.0918  0.2908 -0.1890
27822W        W34422  14.075   4.951  29.756  0.1122  0.1880 -0.1421
27823W        W34423   6.699   3.785  35.120  0.6242  0.0144  0.0859
27824W        W34424   5.752   4.114   5.158  0.0164 -0.2263 -0.1412
27825W        W34425  10.986   3.515   4.220  0.1323  0.2248  0.0007
27826W        W34426   2.740   1.079   3.425 -0.1266  0.0959 -0.1790
27827W        W34427  21.192   5.058  33.975 -0.5188  0.1451  0.1062
27828W        W34428  26.207   0.976  21.078  0.0696  0.0088  0.1501
27829W        W34429  22.886   0.312  34.582  0.2122  0.0124 -0.2585
27830W        W34430  24.690   4.079  33.642  0.1290 -0.2574 -0.0569
27831W        W34431  15.638   1.167   7.553  0.2999  0.0320 -0.0180
27832W        W34432  15.458   4.824   1.200  0.0996 -0.1224  0.0204
27833W        W34433  21.236   1.396   2.419  0.1027  0.0336 -0.1317
27834W        W34434  18.373   5.590  11.344  0.1569  0.2724  0.1334
27835W        W34435  17.849   4.496  19.821  0.1757  0.0188 -0.1138
27836W        W34436  11.360   1.402   8.631  0.1846 -0.0976  0.3252
27837W        W34437  18.494   6.136  31.221 -0.0580 -0.0782  0.1005
27838W        W34438   2.301   1.084   2.090  0.1133  0.0707  0.1684
27839W        W34439  23.601   5.721  20.714  0.1560 -0.0280 -0.1740
27840W        W34440  25.168   1.812  28.697 -0.1120  0.0347  0.2358
27841W        W34441  13.839   0.012   4.068  0.0019 -0.3943 -0.1521
27842W        W34442   3.693   1.967  25.601  0.0146 -0.0975  0.3472
27843W        W34443  12.022   2.219  31.115  0.1503  0.0205 -0.0231
27844W        W34444   6.206   0.235  29.428 -0.4290 -0.0474 -0.2158
27845W        W34445   4.156   1.132  11.320  0.0478  0.1816 -0.0808
27846W        W34446   9.723   5.286  20.412 -0.0222  0.0161 -0.0297
27847W        W34447  23.208   4.134  11.279 -0.1771 -0.0733 -0.4064
27848W        W34448   6.648   0.086  10.708 -0.2653  0.1009 -0.1049
27849W        W34449   6.582   1.181   5.343 -0.4909 -0.1131  0.2903
27850W        W34450  16.522   2.839  35.380 -0.0018 -0.1038  0.0984
27851W        W34451  17.502   4.409  22.306 -0.0485  0.1399 -0.0500
27852W        W34452   5.043   0.070   5.787 -0.0980  0.1310  0.1081
27853W        W34453   2.328   2.344  27.827 -0.0339 -0.0039  0.1095
27854W        W34454  26.360   5.528   1.970  0.1306 -0.3840 -0.0949
27855W        W34455  10.166   4.231   4.027  0.2369  0.0997  0.0378
27856W        W34456  16.331   1.252  35.316  0.1939 -0.3751  0.2026
27857W        W34457   1.849   2.337   4.042  0.1245  0.3491 -0.0015
27858W        W34458  24.426   2.894   0.344  0.5543  0.0359 -0.1981
27859W        W34459  21.601   4.340  22.995 -0.1986 -0.0601  0.2858
27860W        W34460   1.487   2.530  14.763  0.0974  0.1041  0.1309
27861W        W34461  12.055   1.711   8.646 -0.1074 -0.1732 -0.2696
27862W        W34462   0.394   1.899   1.910 -0.1445 -0.0467 -0.1592
27863W        W34463   8.004   3.154   4.794  0.2170 -0.0465  0.0598
27864W        W34464  18.365   5.350  24.135 -0.1275  0.0701 -0.0538
27865W        W34465  23.853   2.549  21.461 -0.3318  0.0584  0.0316
27866W        W34466  18.446   2.188  10.869 -0.3358  0.2943  0.0238
27867W        W34467   6.578   4.982  14.627 -0.2301 -0.3426  0.0765
27868W        W34468  20.469   5.175  25.963  0.0560  0.0492 -0.2941
27869W        W34469   3.885   0.960   7.416 -0.1072  0.0129 -0.0873
27870W        W34470  17.857   3.915  10.087  0.1851  0.3175  0.0394
27871W        W34471  16.609   5.865   0.406 -0.2124 -0.1447  0.2832
27872W        W34472  16.771   4.107  31.072 -0.0888  0.1758  0.3623
27873W        W34473  16.709   0.977  28.347 -0.0894 -0.1833  0.2394
27874W        W34474  11.395   2.837  34.101  0.3550  0.0492 -0.0876
27875W        W34475  20.132   5.861   2.915 -0.1144  0.1003 -0.1958
27876W        W34476  13.672   4.591  28.430 -0.2351  0.2523  0.1175
27877W        W34477  21.256   2.035  31.570 -0.0482  0.0486  0.1209
27878W        W34478   8.149   2.042   3.535 -0.1105 -0.1170 -0.0540
27879W        W34479  25.360   1.497  20.808 -0.1962 -0.0570 -0.1124
27880W        W34480  18.815   2.731   7.723 -0.1891 -0.1035 -0.2398
27881W        W34481   3.054   6.377  14.579 -0.0244  0.3889  0.0467
27882W        W34482   7.833   4.181  27.265 -0.0233  0.0590  0.0973
27883W        W34483  21.435   4.490   6.609 -0.0235 -0.0523  0.0871
27884W        W34484  10.283   2.042  21.648  0.5833 -0.0400  0.1580
27885W        W34485  21.503   1.753   3.874 -0.0242  0.2006 -0.2428
27886W        W34486  18.674   2.831  33.169  0.1148  0.0804  0.1253
27887W        W34487  10.869   1.659   7.865  0.0541  0.0218 -0.3191
27888W        W34488  14.901   1.331  28.403  0.2144 -0.0952  0.0034
27889W        W34489  14.023   4.834  36.142  0.0813 -0.0364 -0.0677
27890W        W34490  19.275   2.928   9.262  0.0045  0.0067 -0.1020
27891W        W34491   3.121   2.129  34.819 -0.1251 -0.2322 -0.1983
27892W        W34492   2.995   6.571  33.509 -0.1733  0.1056  0.0301
27893W        W34493  13.941   0.294  23.729  0.1073  0.0298 -0.1616
27894W        W34494  14.548   4.942   7.906 -0.0159  0.2813 -0.0570
27895W        W34495   3.234   5.015  22.285 -0.0135  0.0637  0.4504
27896W        W34496  22.453   3.287  28.026 -0.0850 -0.1051 -0.1155
27897W        W34497  14.699   0.591  14.905  0.4304 -0.2725  0.0417
27898W        W34498  25.941   0.887   1.010  0.0875  0.0323  0.0099
27899W        W34499  12.887   0.531  23.176 -0.2701  0.2159 -0.1356
27900W        W34500  18.370   5.087   6.554  0.3086 -0.0531 -0.0468
27901W        W34501   5.878   5.569  31.064 -0.0345 -0.0674 -0.0815
27902W        W34502   0.242   5.048  34.383  0.2033 -0.0760  0.2114
27903W        W34503  15.134   2.232   5.517 -0.3742 -0.0002  0.3052
27904W        W34504  12.981   2.730  11.419  0.0248 -0.0269 -0.5170
27905W        W34505  20.943   0.973  31.882 -0.2052  0.0710 -0.1031
27906W        W34506  20.813   0.128  32.649  0.2599  0.0794 -0.0289
27907W        W34507   1.892   4.491  25.362 -0.0300 -0.2630  0.1114
27908W        W34508   9.260   4.002  35.478 -0.1703 -0.0385  0.3195
27909W        W34509  11.398   2.612  33.312  0.0350 -0.1342  0.2132
27910W        W34510  11.107   3.730  14.947 -0.1712  0.2285  0.0402
27911W        W34511   4.608   1.836  27.921 -0.1689  0.1110 -0.0185
27912W        W34512  16.345   2.492  10.627 -0.3184 -0.0317 -0.1408
27913W        W34513   0.322   2.265  10.231 -0.3773  0.1268 -0.4637
27914W        W34514  20.808   4.202  10.857  0.0294  0.0833 -0.0034
27915W        W34515  15.504   1.794   3.141 -0.1997 -0.0995 -0.0016
27916W        W34516  13.086   1.634  23.797  0.0670 -0.3031  0.0247
27917W        W34517   7.560   1.313  35.513 -0.3304  0.2273 -0.2465
27918W        W34518  22.843   2.306   0.273  0.1760  0.4056 -0.1127
27919W        W34519  18.136   1.204  23.253  0.0839 -0.1223  0.1402
27920W        W34520  11.982   3.042  36.120 -0.1963  0.0684 -0.1196
27921W        W34521  15.090   1.330   9.114 -0.1762 -0.0409 -0.0056
27922W        W34522   9.942   2.954   4.848  0.1135  0.0689 -0.1851
27923W        W34523   8.686   0.082  31.017  0.1211  0.0668 -0.1280
27924W        W34524   8.841   0.188   2.399 -0.1727  0.0681  0.0577
27925W        W34525   5.520   4.115  23.373 -0.0623  0.0056 -0.0978
27926W        W34526  16.369   1.041   8.897  0.0637 -0.0160 -0.0320
27927W        W34527   6.046   4.355   0.707  0.1634 -0.2371  0.0602
27928W        W34528  25.016   2.357  28.716 -0.0767  0.0401 -0.1334
27929W        W34529  21.341   4.127  22.657  0.0117 -0.2135  0.1453
27930W        W34530  23.712   4.985  29.695  0.2578  0.1294 -0.0921
27931W        W34531  23.794   1.593  34.587  0.1541 -0.2041 -0.0398
27932W        W34532   9.783   2.168  22.747  0.0690  0.1326 -0.0652
27933W        W34533   3.060   5.880  29.671 -0.2734  0.2471 -0.1953
27934W        W34534  15.166   1.174   6.338 -0.0842  0.0354  0.0380
27935W        W34535  26.430   2.134   9.833 -0.0602  0.5936  0.0496
27936W        W34536   3.544   1.182  33.039 -0.0796  0.5557 -0.2349
27937W        W34537   7.730   1.378  15.180 -0.2420 -0.0463  0.0574
27938W        W34538   8.569   2.029  27.250 -0.2055  0.0089  0.1236
27939W        W34539  12.575   6.266  12.378  0.0111  0.1218 -0.1793
27940W        W34540   2.289   2.699  30.054  0.2191  0.1635 -0.1582
27941W        W34541   8.732   1.909  14.637 -0.0312  0.0274  0.2738
27942W        W34542  14.569   4.237  14.783  0.1556 -0.1097 -0.2136
27943W        W34543  15.793   1.678   7.099  0.3226  0.2730 -0.2753
27944W        W34544   2.395   5.458  11.311  0.2025  0.0295 -0.1773
27945W        W34545  10.375   3.768  10.869 -0.2176 -0.2584  0.1021
27946W        W34546  12.160   1.871  35.237 -0.1137  0.1665  0.1033
27947W        W34547  25.481   5.778  34.611  0.1552  0.2141 -0.2128
27948W        W34548   6.183   4.482   2.026  0.0653  0.1611 -0.3490
27949W        W34549  16.368   3.417  25.073  0.0047 -0.1086 -0.3488
27950W        W34550   3.653   2.908  12.325  0.1666  0.1100  0.0837
27951W        W34551  18.145   3.151   6.308  0.1375 -0.2042 -0.2335
27952W        W34552   2.657   4.888  14.632 -0.0099 -0.0911  0.4718
27953W        W34553   9.333   2.111  15.245 -0.0757 -0.2831 -0.1772
27954W        W34554   9.474   3.406   2.809 -0.0741  0.0437  0.0709
27955W        W34555   0.045   6.007  21.138 -0.2276 -0.2163 -0.0306
27956W        W34556  13.913   4.223   6.712 -0.0658  0.0142  0.0440
27957W        W34557   0.230   5.555   0.963 -0.1624 -0.2553  0.1462
27958W        W34558   4.866   6.260   7.485 -0.3803  0.0884  0.2155
27959W        W34559  14.846   0.806  12.853 -0.5807 -0.1783  0.1624
27960W        W34560  15.871   2.534  10.778 -0.3183  0.1928 -0.1614
27961W        W34561   5.713   0.167   5.287 -0.0749 -0.2448 -0.2109
27962W        W34562   6.577   0.373  34.561  0.0749  0.2130 -0.2650
27963W        W34563   9.384   0.937  25.038  0.2420  0.0179  0.0049
27964W        W34564   6.378   2.214  31.998 -0.0700  0.1098 -0.2888
27965W        W34565  12.660   6.533  25.425  0.0860 -0.2870  0.2110
27966W        W34566  17.204   2.314   8.083 -0.0300 -0.4611  0.0069
27967W        W34567  24.297   4.647  32.002 -0.1475 -0.1687  0.0612
27968W        W34568   2.846   1.376  12.854 -0.0168  0.0060 -0.0419
27969W        W34569  21.538   3.306   3.687  0.0766  0.0207  0.0339
27970W        W34570  11.543   0.635  28.146  0.1177  0.1766  0.1376
27971W        W34571   9.344   0.584  28.329  0.0733 -0.1076 -0.1735
27972W        W34572   0.664   1.231  35.240  0.0427  0.2363 -0.1347
27973W        W34573   9.128   3.140   9.009  0.0379  0.0899 -0.3133
27974W        W34574   6.191   6.355  21.565  0.3161  0.3620  0.2070
27975W        W34575  13.154   4.832  15.159 -0.0475 -0.0199 -0.1660
27976W        W34576  17.872   4.233  22.833 -0.0328 -0.0997  0.2435
27977W        W34577  20.881   6.426  24.891 -0.1186 -0.2177 -0.2909
27978W        W34578   6.665   4.928   2.599 -0.4773  0.0529 -0.0158
27979W        W34579   3.878   0.993  29.900  0.4639  0.3010  0.1208
27980W        W34580  11.352   2.663  24.038 -0.2088  0.2071  0.2024
27981W        W34581   5.330   5.283  24.222  0.1036  0.2014  0.5712
27982W        W34582   6.272   2.050  36.051  0.0706 -0.2887  0.1637
27983W        W34583   8.817   3.501  12.108  0.0312 -0.3912 -0.0584
27984W        W34584   2.228   5.311  13.282 -0.1147  0.1572 -0.1462
27985W        W34585  21.908   1.137  34.100 -0.0924 -0.2915  0.1200
27986W        W34586   0.887   5.892   1.469 -0.0124  0.0413  0.1385
27987W        W34587  22.798   4.368  24.621 -0.2492 -0.1834 -0.2290
27988W        W34588   0.156   4.377  31.432  0.2894  0.1556  0.0155
27989W        W34589  15.192   2.002  27.561 -0.4646 -0.0010 -0.0686
27990W        W34590  15.506   4.640  22.293 -0.1341  0.0621 -0.1079
27991W        W34591   7.924   1.639  12.406 -0.1278 -0.1194  0.3881
27992W        W34592   1.961   4.502  27.424  0.0772  0.0889 -0.1755
27993W        W34593  16.876   5.887  35.352 -0.1249  0.0197  0.2667
27994W        W34594   4.623   1.437  28.706  0.1274 -0.1678 -0.0557
27995W        W34595  11.854   6.093  12.139 -0.0464  0.4032 -0.0156
27996W        W34596  16.509   5.885   6.146 -0.2697 -0.1587  0.1507
27997W        W34597  26.135   4.821  20.796 -0.0775 -0.3608  0.1012
27998W        W34598   6.351   0.155  24.760 -0.1986  0.0626  0.3923
27999W        W34599  11.139   5.301  31.971 -0.1598  0.2092 -0.0561
28000W        W34600  13.398   4.018   5.518  0.0751 -0.1403 -0.1560
28001W        W34601   7.329   0.359  21.317  0.0006  0.1590  0.0577
28002W        W34602   8.294   3.884  10.647  0.1359 -0.1113  0.1285
28003W        W34603   9.731   3.657  25.075  0.0050  0.2376  0.1758
28004W        W34604  25.481   3.505   2.747 -0.1355  0.2803  0.0506
28005W        W34605  25.867   3.435   9.359 -0.2792 -0.0949 -0.0321
28006W        W34606  14.614   5.586   0.852  0.2014 -0.2980  0.2722
28007W        W34607   4.812   0.601   2.679  0.0357  0.0129 -0.0372
28008W        W34608   3.949   4.313  32.593  0.2414 -0.0303 -0.0461
28009W        W34609  21.083   0.495   6.677 -0.0991  0.1213 -0.2065
28010W        W34610  19.866   0.652   4.781 -0.1605 -0.1264 -0.0817
28011W        W34611   1.101   4.539   4.119  0.2782  0.1067 -0.1757
28012W        W34612   5.864   4.879   0.080  0.1698  0.0723 -0.4586
28013W        W34613  16.608   1.484  29.335  0.2623 -0.0001 -0.1639
28014W        W34614  15.567   3.252  34.215  0.0874 -0.2726 -0.0320
28015W        W34615  19.005   5.752  10.163  0.0103  0.0561 -0.0566
28016W        W34616  18.979   1.926  13.534  0.1645 -0.0862 -0.2422
28017W        W34617  22.466   4.658  22.509  0.1836  0.0115  0.1294
28018W        W34618  22.994   3.211   3.367  0.0395 -0.1038 -0.1457
28019W        W34619   1.785   5.859   0.144  0.3308  0.2234 -0.0771
28020W        W34620   1.180   2.982   7.999 -0.1008  0.1606 -0.0378
28021W        W34621  18.740   0.020  11.754 -0.0541  0.1134  0.1207
28022W        W34622  14.756   4.471  13.340 -0.1281 -0.0428  0.0915
28023W        W34623  11.866   5.690  33.580 -0.1151  0.0127 -0.2291
28024W        W34624   3.016   3.607   4.287 -0.1041 -0.3652  0.2693
28025W        W34625  13.574   3.625   2.246  0.2010 -0.3665 -0.2768
28026W        W34626  12.534   1.004  23.740  0.0376 -0.0027 -0.2511
28027W        W34627   1.812   6.268  12.052  0.0372  0.0760 -0.1643
28028W        W34628   7.031   5.624  13.452  0.3820 -0.0385  0.1004
28029W        W34629   6.051   1.715  31.235 -0.0768  0.0044 -0.0836
28030W        W34630  18.030   4.354  35.096  0.0738 -0.0003  0.0233
28031W        W34631   4.208   0.254  26.207  0.0366  0.1287 -0.0759
28032W        W34632  26.271   6.098  28.958 -0.1574  0.1341 -0.1517
28033W        W34633  24.416   1.799  24.695  0.0873  0.0256 -0.0876
28034W        W34634  11.410   6.579  21.932 -0.1139 -0.0617 -0.0733
28035W        W34635   9.393   2.037  27.023 -0.4043 -0.1088 -0.0560
28036W        W34636  25.034   2.385   9.123  0.1477  0.0419  0.1010
28037W        W34637  16.373   3.442   9.793 -0.2124 -0.1364  0.0279
28038W        W34638   4.770   5.543   9.092 -0.0004  0.2227  0.0016
28039W        W34639   7.814   1.078  11.393  0.2879 -0.1462 -0.1747
28040W        W34640   9.346   2.423  28.174  0.0610  0.0888  0.2414
28041W        W34641  22.289   2.078   9.487 -0.0669 -0.1488 -0.1104
28042W        W34642  21.655   3.001  34.420 -0.0376 -0.0351  0.0562
28043W        W34643  20.934   3.189  26.956  0.1256  0.1044  0.2509
28044W        W34644   4.654   5.094  35.257 -0.1691 -0.1236  0.0675
28045W        W34645   1.262   1.247   4.011  0.1341  0.5206  0.0226
28046W        W34646  12.509   1.654   3.548 -0.3300  0.1669 -0.2901
28047W        W34647  22.209   2.850   2.501  0.2199 -0.2072 -0.1830
28048W        W34648   1.341   1.219  29.742  0.0244  0.1259 -0.1267
28049W        W34649  20.039   3.978  23.468  0.3959 -0.1777  0.3393
28050W        W34650   7.258   5.017  14.058 -0.0200 -0.0235  0.0939
28051W        W34651  15.454   4.049  30.741 -0.0400  0.2073  0.4597
28052W        W34652   8.521   0.961  30.276  0.0445 -0.3531  0.0858
28053W        W34653   5.611   5.475  14.247  0.1040  0.1499  0.2103
28054W        W34654   2.649   0.284   4.121  0.0499 -0.0011 -0.1205
28055W        W34655  14.318   3.863  33.874 -0.2514 -0.0711  0.0529
28056W        W34656   5.325   3.842  26.898  0.0828 -0.2108  0.0041
28057W        W34657   4.671   5.203  21.774  0.1532  0.0209  0.2959
28058W        W34658  16.163   5.663  20.605 -0.0306 -0.0238 -0.1474
28059W        W34659   5.004   1.845  25.692 -0.3107  0.1566  0.0660
28060W        W34660  12.966   0.054  34.735  0.1521  0.2796  0.3301
28061W        W34661   4.694   2.160  34.872  0.3272  0.2205  0.1623
28062W        W34662  12.455   5.534  26.913  0.0525 -0.0734  0.1726
28063W        W34663  17.806   4.176   6.911  0.0313 -0.1243  0.1606
28064W        W34664  22.173   2.385  22.064  0.2121 -0.2314 -0.0762
28065W        W34665   2.084   1.858   3.340 -0.3573  0.0253 -0.3730
28066W        W34666  21.580   5.808  22.234 -0.1199  0.1184  0.3880
28067W        W34667   3.160   4.644  12.654  0.1691  0.1236 -0.0946
28068W        W34668   1.744   0.541   8.551  0.0725  0.1879 -0.1207
28069W        W34669   5.715   5.812   9.266 -0.0874 -0.0066 -0.2125
28070W        W34670  26.294   0.477   2.489 -0.1106  0.3861 -0.3205
28071W        W34671  22.700   1.179  14.084 -0.1559 -0.0352 -0.1931
28072W        W34672  20.119   5.288  12.667  0.1192  0.2031 -0.0818
28073W        W34673   4.613   2.477   2.624 -0.0649 -0.2936  0.0033
28074W        W34674   9.803   4.814  32.436  0.1554  0.2241 -0.0188
28075W        W34675  20.890   4.997  26.165 -0.0408 -0.0406  0.0582
28076W        W34676  25.273   6.290  35.001  0.3039 -0.2252  0.1185
28077W        W34677   4.509   1.578   0.068  0.1096 -0.0902 -0.0427
28078W        W34678   9.651   2.238   4.181  0.0123  0.0407  0.2627
28079W        W34679   2.441   6.563  12.628 -0.3205 -0.1192  0.1173
28080W        W34680  19.216   4.141   0.162 -0.1778  0.1939  0.3434
28081W        W34681  24.607   0.880   9.746  0.0211 -0.1818 -0.0993
28082W        W34682  10.094   1.245  12.126 -0.0855 -0.1422 -0.0508
28083W        W34683   0.515   2.171  22.496 -0.1371  0.0602 -0.0530
28084W        W34684  11.932   4.619  15.558 -0.0178  0.3019 -0.2490
28085W        W34685  14.435   3.179   9.991 -0.0544  0.1112  0.1115
28086W        W34686   1.091   2.230  28.703 -0.0459  0.1071 -0.1098
28087W        W34687   9.592   5.240   7.280 -0.3605  0.1178 -0.0253
28088W        W34688  18.356   2.343   7.190  0.0653 -0.0979  0.0719
28089W        W34689  20.080   6.531  31.516 -0.0053  0.1179 -0.0443
28090W        W34690  22.403   3.966  27.768  0.2590 -0.2352 -0.4075
28091W        W34691   2.987   0.916   7.254  0.0665  0.2060 -0.1280
28092W        W34692   2.371   1.496  10.232  0.0115 -0.0975  0.0041
28093W        W34693  21.982   3.620  28.763  0.5888 -0.1217 -0.1889
28094W        W34694  26.040   0.379  31.035  0.2915 -0.0398  0.0130
28095W        W34695  10.226   5.598   0.008  0.1166  0.2630 -0.2809
28096W        W34696  13.860   3.706  28.552  0.0062 -0.0025  0.0515
28097W        W34697  13.190   5.282   0.561  0.0393 -0.0580  0.3356
28098W        W34698  10.486   5.616   1.984  0.0780 -0.0741  0.0689
28099W        W34699  10.397   2.237  26.157  0.4391 -0.3137 -0.0053
28100W        W34700   3.848   0.847  23.280 -0.2830  0.0263 -0.0254
28101W        W34701   4.395   1.431  22.895 -0.2043 -0.1923  0.1303
28102W        W34702   3.404   2.546  27.761 -0.2004  0.2432  0.1687
28103W        W34703  15.572   5.892   8.304  0.0312  0.1391  0.0885
28104W        W34704  16.152   2.404  24.573 -0.2268 -0.2237 -0.1744
28105W        W34705  18.371   0.860  25.900 -0.2529 -0.0139  0.0924
28106W        W34706   8.229   1.242   7.693  0.1243 -0.0514 -0.0157
28107W        W34707  15.804   3.683  24.350 -0.0235  0.1707  0.1544
28108W        W34708  12.828   2.088  28.760 -0.1961 -0.0015  0.2276
28109W        W34709  12.893   1.296   3.445 -0.1802  0.3808  0.2208
28110W        W34710  14.423   2.359  24.609 -0.0563 -0.1367  0.0157
28111W        W34711  18.795   0.812   8.681 -0.1298  0.2965  0.0071
28112W        W34712  14.660   2.402  15.927  0.1630 -0.3817  0.2328
28113W        W34713   7.895   0.319   0.599 -0.0951 -0.1229 -0.0573
28114W        W34714   2.025   1.705  33.406  0.0985 -0.3427  0.0024
28115W        W34715   0.109   5.255  29.174 -0.1579  0.3629  0.0818
28116W        W34716  24.964   3.976  13.551  0.0015  0.0082  0.0551
28117W        W34717  11.296   1.359  32.305  0.0192  0.1377  0.0748
28118W        W34718   0.796   0.093   8.748  0.0093  0.0166  0.0650
28119W        W34719   2.172   1.788  24.403 -0.2175 -0.0995 -0.0868
28120W        W34720  10.990   0.689  13.171 -0.1548 -0.1542 -0.0776
28121W        W34721  25.867   0.652   8.065  0.1904  0.0643  0.1043
28122W        W34722  24.203   3.925   6.234 -0.0072 -0.1239 -0.1536
28123W        W34723  15.116   1.608  14.864  0.3615  0.2356  0.0295
28124W        W34724  17.356   6.175  32.893 -0.1150  0.0349 -0.2250
28125W        W34725  12.059   5.695  29.133 -0.0514 -0.1056 -0.2774
28126W        W34726  26.172   4.831  32.891  0.1906 -0.0434  0.0723
28127W        W34727   0.476   1.598  21.837 -0.0889  0.3166 -0.1434
28128W        W34728  10.492   1.810  31.576 -0.2751  0.0370  0.0056
28129W        W34729  23.602   1.900   7.561  0.0150  0.1114  0.3373
28130W        W34730  14.591   5.973  28.254  0.1020 -0.1204  0.4433
28131W        W34731   8.675   4.952   0.795 -0.1011  0.0628 -0.1607
28132W        W34732  10.694   2.905   6.800  0.2614 -0.0586  0.0543
28133W        W34733  23.953   4.365  32.916 -0.1768 -0.1350  0.5766
28134W        W34734   1.606   1.537  35.496  0.1597  0.2982 -0.2241
28135W        W34735  22.489   0.034  20.987 -0.1470  0.1179 -0.1352
28136W        W34736  25.453   5.237  30.136 -0.2434  0.0155 -0.2900
28137W        W34737   2.525   0.473  11.791 -0.0233  0.3347 -0.0810
28138W        W34738  19.518   5.367  30.520  0.1296  0.1880 -0.0313
28139W        W34739  12.654   1.172   2.296  0.1537  0.0162  0.2151
28140W        W34740  23.578   5.646  35.993 -0.1538 -0.2545 -0.0007
28141W        W34741  18.142   1.562   2.578  0.3100 -0.2023  0.0210
28142W        W34742  13.081   5.238  14.105  0.0938  0.0136  0.4254
28143W        W34743  21.640   3.470  10.304  0.2117 -0.0387  0.2287
28144W        W34744   9.152   6.169   4.444 -0.1474  0.1125  0.1705
28145W        W34745  24.930   5.059  22.947  0.0204  0.1101 -0.0120
28146W        W34746  14.671   1.616   0.747  0.1736 -0.2335 -0.2703
28147W        W34747   7.162   3.328  30.442  0.3166 -0.0033  0.0286
28148W        W34748   7.119   6.250   7.819  0.1586  0.2536 -0.0347
28149W        W34749   9.063   3.714  22.220 -0.4108  0.1389 -0.2554
28150W        W34750  13.997   5.310   1.370  0.0488  0.0295  0.0152
28151W        W34751   1.899   4.596   0.124  0.1552  0.1096  0.0118
28152W        W34752  14.323   6.309  10.814 -0.0698 -0.0625 -0.0527
28153W        W34753   4.003   0.865   8.295  0.0390  0.0138 -0.3014
28154W        W34754   3.701   0.950  27.470  0.0492  0.1698 -0.0542
28155W        W34755   0.299   1.302  11.894 -0.3766  0.2009 -0.3049
28156W        W34756   3.663   1.421  13.822  0.0474  0.2779  0.3299
28157W        W34757  12.240   1.484  11.485 -0.1944  0.2703  0.1938
28158W        W34758  25.108   2.308  21.279 -0.5080  0.1891 -0.1738
28159W        W34759  17.625   1.344   8.899  0.1776  0.1278 -0.5634
28160W        W34760  17.525   6.085  13.792 -0.1652 -0.2179  0.2043
28161W        W34761   2.851   3.548  35.007  0.1363  0.2704  0.0511
28162W        W34762  23.074   4.591   7.558 -0.1189  0.0961 -0.2003
28163W        W34763   4.170   6.409  21.710 -0.1388 -0.2094 -0.1520
28164W        W34764  17.730   4.046  31.332 -0.0583 -0.0669 -0.1180
28165W        W34765  16.774   4.410  28.298  0.2371 -0.0030  0.1669
28166W        W34766   4.725   5.496   0.837  0.3766 -0.1557  0.0833
28167W        W34767  22.543   5.878  29.626 -0.0543  0.1417  0.1285
28168W        W34768   4.580   5.184  32.196  0.0030  0.2514 -0.1546
28169W        W34769   9.000   1.256  23.684 -0.1576  0.3146  0.1408
28170W        W34770  13.325   6.391   6.640  0.0481 -0.1733 -0.0420
28171W        W34771   5.127   3.747  22.346 -0.2482 -0.1808  0.1992
28172W        W34772  25.134   3.895  20.516 -0.0786  0.1865 -0.1354
28173W        W34773  15.992   1.160  29.610 -0.0410 -0.0356  0.0808
28174W        W34774  24.054   6.065  32.522 -0.1831 -0.0481 -0.1318
28175W        W34775   3.947   5.423   7.609 -0.3262  0.0850 -0.0687
28176W        W34776  16.052   5.021  22.883 -0.1905  0.0377  0.2551
28177W        W34777  21.733   1.535   8.200  0.0303  0.1761  0.2615
28178W        W34778  16.294   0.221  31.956  0.0703 -0.2115  0.2633
28179W        W34779  14.697   3.192  31.633 -0.1306  0.1920  0.0337
28180W        W34780  17.450   1.077   6.890  0.0130  0.2079 -0.2314
28181W        W34781  10.159   5.442  25.817  0.2406 -0.0379  0.1928
28182W        W34782  16.518   1.918  27.923  0.0970 -0.0035 -0.3610
28183W        W34783  13.602   3.058   4.382 -0.0904 -0.0106  0.0101
28184W        W34784   1.752   4.274  26.994  0.1242 -0.1121 -0.0512
28185W        W34785  23.871   0.178  10.651 -0.0919 -0.1591  0.0100
28186W        W34786   2.948   3.497   6.895 -0.0144  0.0457  0.1545
28187W        W34787   5.772   0.012   1.318 -0.1267 -0.2810 -0.0168
28188W        W34788   9.963   5.770  27.232 -0.0075  0.1249  0.1019
28189W        W34789   1.346   2.453  11.752  0.1979 -0.3070 -0.0415
28190W        W34790   0.032   1.663  32.166 -0.0065 -0.1693 -0.0525
28191W        W34791  24.322   2.788  27.691  0.2913  0.0707  0.0078
28192W        W34792  22.904   6.106   5.138  0.1525 -0.2384  0.1643
28193W        W34793   5.314   6.512  20.039 -0.2556  0.1078 -0.0496
28194W        W34794   8.990   2.587  31.313  0.0768  0.2910  0.2660
28195W        W34795   9.253   2.527  10.862 -0.0176 -0.1225 -0.1645
28196W        W34796  18.855   6.535  24.996  0.1191  0.0912  0.1354
28197W        W34797  18.353   2.706   1.089 -0.3531  0.1877  0.0511
28198W        W34798   8.135   1.281  11.131  0.0698  0.3261 -0.2015
28199W        W34799  15.132   5.111   1.430 -0.0596 -0.0676  0.2665
28200W        W34800   6.020   6.598  12.276  0.0294 -0.2138 -0.0728
28201W        W34801  11.509   6.303  30.036  0.1819  0.0134  0.1627
28202W        W34802  20.656   4.889  26.940 -0.0501  0.0575 -0.1940
28203W        W34803  24.370   4.047  34.550  0.0669  0.5337  0.1447
28204W        W34804   3.858   1.852   5.701  0.1176 -0.3443 -0.2035
28205W        W34805  16.974   3.802   0.951 -0.2570 -0.0392  0.0094
28206W        W34806  14.238   6.521  27.952  0.0433 -0.2554 -0.0736
28207W        W34807   7.769   1.155  13.994 -0.2156  0.0590  0.3417
28208W        W34808  18.481   0.695   7.422 -0.1734  0.3088 -0.0301
28209W        W34809  11.604   6.306  25.041 -0.2656  0.1857 -0.0382
28210W        W34810   1.024   4.301  34.840 -0.1227  0.1208  0.0848
28211W        W34811  19.521   1.732   3.336  0.1172 -0.1337 -0.2786
28212W        W34812  15.913   5.509  10.428  0.0132  0.0614  0.0539
28213W        W34813   1.275   0.082  20.072  0.1269 -0.3016 -0.0913
28214W        W34814   5.309   3.493  34.827 -0.0867  0.0049 -0.0342
28215W        W34815   9.524   1.786   1.939 -0.3873 -0.0141  0.2095
28216W        W34816   4.287   1.138   1.178  0.1260  0.2772 -0.0978
28217W        W34817  25.428   6.116  11.803  0.0261 -0.1841  0.1496
28218W        W34818   9.304   0.680  22.183 -0.2554 -0.3143  0.3214
28219W        W34819  19.377   2.524  10.212  0.0399  0.0468  0.1065
28220W        W34820   8.869   1.098   7.773 -0.0318  0.1628  0.2702
28221W        W34821   3.871   0.336  33.148 -0.3572 -0.0949  0.3225
28222W        W34822  11.810   4.254  29.101  0.0321  0.1284 -0.1341
28223W        W34823   8.773   5.923  14.466 -0.1432  0.1194  0.1909
28224W        W34824  14.493   2.700  13.943  0.0608 -0.0440 -0.0063
28225W        W34825   9.429   0.027  31.155 -0.1806 -0.1012 -0.2686
28226W        W34826  24.100   1.018  15.619 -0.1244 -0.0650  0.1776
28227W        W34827  17.292   2.010  21.518  0.0785  0.0829 -0.1579
28228W        W34828   9.281   6.106  31.201 -0.0513 -0.2144  0.1676
28229W        W34829  22.300   5.459   9.185  0.1584  0.2571  0.0041
28230W        W34830  21.435   1.563  27.142  0.1464 -0.0746  0.0217
28231W        W34831   2.457   0.561   6.065 -0.0113  0.1479 -0.1018
28232W        W34832  21.805   5.094  13.955 -0.0142 -0.1798  0.0301
28233W        W34833   9.065   3.125   4.449  0.1705 -0.3784  0.0398
28234W        W34834   1.870   5.532  32.473 -0.0135 -0.0187  0.0641
28235W        W34835  17.774   0.647  28.283  0.1218  0.1127 -0.2308
28236W        W34836   6.636   6.565  33.646 -0.0231  0.3395 -0.3237
28237W        W34837   5.016   1.765  26.912 -0.0177  0.0867 -0.1763
28238W        W34838  23.367   2.643   7.714  0.0356  0.0481  0.1216
28239W        W34839  18.479   2.347   9.289 -0.1620 -0.0276  0.2790
28240W        W34840   4.331   4.449   5.807 -0.2666  0.1248  0.5015
28241W        W34841  17.968   2.377  32.642 -0.1682 -0.0617  0.1830
28242W        W34842   4.233   3.700  12.184 -0.5274 -0.0565 -0.0328
28243W        W34843  23.007   1.565   8.403 -0.3015 -0.0608  0.2149
28244W        W34844  14.163   0.060  29.217  0.1893  0.0102  0.1715
28245W        W34845   1.845   0.787   7.739  0.2200 -0.1460  0.4395
28246W        W34846  19.956   6.131  12.745 -0.1312  0.0684 -0.3188
28247W        W34847   2.534   6.079  32.798  0.0238  0.2344 -0.2588
28248W        W34848  16.179   6.540  11.291  0.3160 -0.0873 -0.1705
28249W        W34849  12.792   0.206   8.226  0.0663 -0.2321 -0.1446
28250W        W34850  20.864   1.213  23.151 -0.1317  0.0333 -0.4025
28251W        W34851   0.274   0.949  21.126 -0.2346 -0.0130  0.1060
28252W        W34852  20.033   0.457  33.047 -0.0857  0.0967  0.2837
28253W        W34853  18.219   0.445   7.895  0.1128 -0.2253 -0.0357
28254W        W34854  24.463   1.894  20.593  0.1159 -0.0216  0.1632
28255W        W34855  14.801   2.743   3.061 -0.0026 -0.1571 -0.1822
28256W        W34856  20.809   3.570  31.026  0.4445  0.1680  0.0837
28257W        W34857   1.874   2.933  33.063 -0.0727  0.2114 -0.2885
28258W        W34858   3.377   0.376  23.824 -0.0367 -0.0085 -0.1500
28259W        W34859   0.562   3.728   9.237 -0.3332 -0.1154 -0.0604
28260W        W34860  17.168   6.348  23.103  0.1642  0.2787 -0.1654
28261W        W34861   8.758   2.482   5.901 -0.0365  0.1205  0.1208
28262W        W34862  21.792   4.592   9.485  0.1525 -0.2197 -0.0701
28263W        W34863   3.811   4.364  22.426  0.1451 -0.0510  0.2429
28264W        W34864  25.151   5.531   2.885 -0.0471  0.1165  0.2164
28265W        W34865  14.848   4.435   6.668 -0.1761 -0.0642 -0.0959
28266W        W34866  15.539   3.717   0.664  0.2152 -0.0650 -0.1464
28267W        W34867   3.120   4.479   1.687 -0.2593 -0.1901  0.0098
28268W        W34868  16.940   2.294  15.688 -0.1521  0.0489 -0.1867
28269W        W34869   7.064   0.393  34.358  0.1303  0.0291 -0.1697
28270W        W34870   1.851   1.619  21.948 -0.1689  0.0859 -0.0184
28271W        W34871  10.749   3.922  29.784  0.0010 -0.1230  0.1289
28272W        W34872   0.402   2.154   3.692 -0.0107  0.1290 -0.1491
28273W        W34873   8.269   2.783   9.397  0.2153 -0.1891 -0.1507
28274W        W34874   9.961   0.127  33.166 -0.0559  0.1688 -0.1077
28275W        W34875  19.551   4.402  31.724 -0.2235 -0.2048 -0.0733
28276W        W34876   3.855   2.560   2.380  0.2473  0.1109 -0.1401
28277W        W34877  19.419   0.675   6.666  0.2993  0.1552  0.1283
28278W        W34878   6.673   2.368  32.495  0.0074 -0.0921  0.1742
28279W        W34879   8.208   6.015  25.491  0.2820  0.3428  0.1208
28280W        W34880  18.833   1.101  31.714  0.2885  0.2119  0.0208
28281W        W34881   5.969   5.307  23.234  0.0727 -0.0096  0.3035
28282W        W34882  20.454   2.259  34.246  0.3634 -0.2838 -0.2091
28283W        W34883  12.255   0.161  33.140  0.2468  0.1664  0.0599
28284W        W34884  11.897   5.082   5.535 -0.1727  0.2151  0.1178
28285W        W34885  10.910   3.592  28.304 -0.4381  0.1258 -0.0373
28286W        W34886  25.609   0.133  34.782 -0.1515  0.2001 -0.0080
28287W        W34887  24.766   3.021  36.159 -0.1198 -0.0317  0.0399
28288W        W34888  19.553   0.616  26.919 -0.0142  0.0393 -0.0249
28289W        W34889   0.849   1.057  10.518 -0.2838 -0.1253 -0.0339
28290W        W34890  13.167   6.518   1.054 -0.2798 -0.0915  0.1311
28291W        W34891  10.563   1.334   4.531  0.0015  0.1848 -0.1540
28292W        W34892   7.131   3.846  31.619  0.2305  0.3327 -0.2102
28293W        W34893  20.074   4.838  34.458 -0.0348  0.1766  0.1059
28294W        W34894  16.234   5.099  10.415  0.1292 -0.1152  0.0246
28295W        W34895   7.242   1.509  26.780 -0.1294 -0.1809 -0.0521
28296W        W34896   7.966   3.705  22.657 -0.1145 -0.0746 -0.1068
28297W        W34897  15.846   4.634   9.748 -0.1818 -0.0947  0.3399
28298W        W34898  15.100   3.784  10.933  0.0344 -0.0321 -0.1844
28299W        W34899  22.189   4.971  26.948  0.0130  0.0971  0.2158
28300W        W34900  10.080   3.777   3.089 -0.1343  0.2240  0.0446
28301W        W34901   5.824   2.923  28.424  0.2190 -0.1032 -0.0883
28302W        W34902  15.538   1.973  11.756 -0.1267  0.1363  0.1165
28303W        W34903  25.949   3.469  25.271  0.0571  0.0972  0.3478
28304W        W34904  23.595   0.869   0.894 -0.0745  0.1561  0.0600
28305W        W34905  14.058   2.380  28.654 -0.0104  0.2698  0.1849
28306W        W34906   9.725   6.534  13.716  0.2272 -0.0821  0.0343
28307W        W34907  25.173   1.848  32.158 -0.0323 -0.1642 -0.0548
28308W        W34908  13.369   6.171  24.334  0.0764 -0.2399  0.0098
28309W        W34909  21.504   4.548  14.792 -0.1480 -0.1170 -0.1132
28310W        W34910   2.173   5.717  32.113 -0.0813  0.1650  0.3139
28311W        W34911  16.440   4.037  22.200  0.0025  0.4461 -0.1761
28312W        W34912   7.112   5.937  10.815  0.0413  0.1136  0.3073
28313W        W34913  10.345   3.034  15.435  0.2163  0.2772 -0.0853
28314W        W34914  10.037   0.234  30.019  0.0437  0.1304 -0.0673
28315W        W34915   1.052   2.008  11.387  0.1104  0.0410 -0.1676
28316W        W34916   1.505   2.771  12.212  0.2024 -0.1163 -0.3894
28317W        W34917  12.886   2.029  27.243  0.2829 -0.1428  0.0472
28318W        W34918  13.850   6.602  15.494 -0.0549  0.1916  0.0559
28319W        W34919   1.997   4.717   9.145  0.0446  0.1813  0.1525
28320W        W34920   5.342   0.595  10.576 -0.0602 -0.1445 -0.2612
28321W        W34921  25.565   1.410   3.291 -0.2196 -0.1480  0.3401
28322W        W34922   2.499   1.745  33.553  0.0358 -0.2287  0.1062
28323W        W34923  12.450   4.399  31.080  0.0549 -0.0802 -0.2511
28324W        W34924  19.482   4.188  25.751  0.0512 -0.0947  0.1193
28325W        W34925  25.347   6.218   7.371  0.1334  0.3619  0.0106
28326W        W34926   0.092   5.742   0.477  0.2368  0.0752 -0.3270
28327W        W34927  21.366   2.749  31.040  0.1932  0.0188 -0.2010
28328W        W34928  18.778   6.126  24.609  0.0666 -0.0555 -0.0199
28329W        W34929   8.654   1.315   0.931  0.0101 -0.0830 -0.2201
28330W        W34930  12.408   1.035   7.386  0.1345  0.0678 -0.1962
28331W        W34931  10.635   1.566  13.167 -0.0475 -0.0212 -0.1801
28332W        W34932  13.802   3.621  34.781 -0.0904 -0.0589  0.0151
28333W        W34933   5.704   4.315  12.058 -0.0406  0.0155  0.1344
28334W        W34934  17.183   3.164  12.583 -0.2859 -0.1032 -0.0118
28335W        W34935  18.017   3.678   4.444  0.2792 -0.0521  0.3590
28336W        W34936   9.617   0.228   2.074 -0.3172 -0.0948 -0.0303
28337W        W34937  18.746   2.304   8.003 -0.1408  0.1188 -0.2498
28338W        W34938  21.482   1.844  14.683  0.0297  0.0301 -0.1617
28339W        W34939  23.442   3.839  24.441 -0.3496 -0.0264  0.0222
28340W        W34940   6.697   4.538  11.972 -0.0385 -0.4034  0.2618
28341W        W34941   2.459   0.234  13.553 -0.0311  0.1049  0.1545
28342W        W34942  25.313   0.980   7.151  0.0052 -0.1707 -0.3337
28343W        W34943  15.389   2.866  32.629  0.2269 -0.1031 -0.1932
28344W        W34944  15.491   0.002   1.432  0.0329 -0.1877  0.2640
28345W        W34945   0.515   3.486  25.096 -0.1024 -0.0519 -0.0675
28346W        W34946  15.346   1.098  31.248 -0.2241  0.1923 -0.0700
28347W        W34947  25.257   2.825   1.312  0.1396 -0.0304  0.1342
28348W        W34948  20.940   3.220  12.017 -0.2442  0.2414  0.0228
28349W        W34949  19.972   3.180  30.778 -0.0977  0.2530  0.0330
28350W        W34950   6.614   5.298  26.307  0.2195 -0.2052  0.0551
28351W        W34951  12.148   2.570  12.940 -0.0254 -0.0109 -0.1239
28352W        W34952   4.761   3.606  11.889  0.0902 -0.1232 -0.0369
28353W        W34953  18.122   5.937  11.038 -0.1100 -0.3373 -0.2513
28354W        W34954   2.512   0.166  22.100  0.4406  0.0906 -0.0088
28355W        W34955  21.720   5.429  23.765 -0.0993  0.2035 -0.1944
28356W        W34956   6.671   3.318  14.214 -0.0734  0.1407  0.1028
28357W        W34957   9.559   1.435  25.492  0.1830 -0.2233  0.1199
28358W        W34958   5.108   4.912  30.006  0.1237  0.3539 -0.3072
28359W        W34959  23.315   2.375  10.680 -0.2015  0.1727  0.2394
28360W        W34960   6.623   4.670  30.092 -0.1725 -0.1537 -0.0500
28361W        W34961  17.229   2.757  30.728 -0.2608 -0.2807  0.1154
28362W        W34962   6.010   4.406   4.026  0.2157 -0.0332  0.2388
28363W        W34963  13.410   1.509  25.837  0.0842  0.1123  0.0229
28364W        W34964   1.500   5.376   0.234 -0.1664 -0.0954  0.1698
28365W        W34965   2.420   5.108  15.022 -0.2596 -0.0129  0.0661
28366W        W34966  18.194   4.389  22.163 -0.2511  0.0149  0.1586
28367W        W34967  15.415   3.938  22.879  0.3260  0.0994  0.0948
28368W        W34968  18.413   0.842   6.519 -0.0326 -0.0857  0.0880
28369W        W34969  14.034   2.826   8.829 -0.1259 -0.0315 -0.0502
28370W        W34970  10.200   3.590   0.950  0.2011  0.1985  0.1908
28371W        W34971  23.332   5.003  24.030 -0.4208 -0.0005  0.0038
28372W        W34972  10.416   5.568   7.539  0.2938 -0.4434 -0.0574
28373W        W34973   5.244   0.325   9.650 -0.1950  0.1951  0.1468
28374W        W34974  21.904   4.304  10.181  0.1728  0.3263  0.2827
28375W        W34975  14.734   4.914   5.452  0.2042 -0.1539 -0.1539
28376W        W34976   9.776   1.899   8.621  0.1954  0.0299  0.0473
28377W        W34977   6.099   6.020   8.066  0.2598  0.0688 -0.5327
28378W        W34978  10.885   0.484  26.674 -0.0871 -0.0050  0.0376
28379W        W34979   3.443   6.106  14.377  0.0058 -0.0875  0.0228
28380W        W34980  24.795   6.088  26.236  0.1651  0.3900  0.0351
28381W        W34981  19.463   3.587   4.496  0.2726 -0.2768 -0.0717
28382W        W34982   0.414   2.417  25.685 -0.0342  0.1735 -0.0958
28383W        W34983   3.137   6.015   5.465 -0.0033  0.1200 -0.4833
28384W        W34984  13.308   4.410  23.900 -0.0467 -0.2656 -0.0884
28385W        W34985   4.481   0.077  33.285  0.0094 -0.0217  0.1855
28386W        W34986   5.447   1.844   2.869  0.0641 -0.1545 -0.0378
28387W        W34987   6.445   3.000  20.687 -0.1756 -0.1190  0.0442
28388W        W34988  10.780   1.221  27.358 -0.0667  0.3085 -0.3921
28389W        W34989   5.954   3.225   3.115  0.2096 -0.0083 -0.1542
28390W        W34990  23.994   4.932  12.077 -0.3017 -0.1337 -0.0115
28391W        W34991  14.114   4.317  23.404 -0.0315 -0.0505 -0.0017
28392W        W34992  19.104   5.409   8.705 -0.0643  0.0332  0.1209
28393W        W34993   7.117   3.509  13.509  0.1982 -0.0557 -0.2416
28394W        W34994  17.884   1.971  33.256  0.1243  0.0346 -0.0178
28395W        W34995  17.848   5.833   6.136  0.0161 -0.1184  0.1379
28396W        W34996   4.021   1.441  31.811 -0.2202  0.1611  0.0167
28397W        W34997  15.070   4.148   5.187  0.3124  0.2583  0.1880
28398W        W34998   8.137   2.246  24.508  0.0121  0.2283  0.1340
28399W        W34999   2.736   5.240  35.016 -0.0052  0.0983 -0.1591
28400W        W35000   1.441   2.063  12.651 -0.1298  0.1058 -0.1428
28401W        W35001  23.887   3.254   5.838  0.0555  0.0547  0.1623
28402W        W35002   6.665   2.509  33.194 -0.1318  0.1374 -0.0061
28403W        W35003  17.200   2.018   7.605 -0.1470  0.0927 -0.1524
28404W        W35004  18.611   0.932  12.792  0.1668  0.0329  0.0861
28405W        W35005   9.542   3.554  28.611 -0.0635 -0.0236  0.1733
28406W        W35006  12.720   3.426  21.849 -0.1513 -0.1292 -0.2214
28407W        W35007   8.938   3.751  21.256 -0.0207 -0.0824 -0.0599
28408W        W35008  21.450   4.173  32.686  0.1723  0.0922  0.0126
28409W        W35009  22.081   2.126   5.670 -0.1080 -0.4031  0.0321
28410W        W35010  23.710   2.112   8.400 -0.0451 -0.2271  0.1148
28411W        W35011  18.593   5.163  30.525  0.0212 -0.0184 -0.4572
28412W        W35012   6.441   4.711  25.049 -0.0637 -0.2159  0.1498
28413W        W35013   6.851   2.749  12.036  0.0449 -0.0694 -0.1962
28414W        W35014  24.846   1.171  13.647  0.3311 -0.2566 -0.0861
28415W        W35015  12.464   4.500  27.618 -0.0992 -0.2639 -0.0767
28416W        W35016  25.579   6.437   6.077  0.0592 -0.0608  0.1363
28417W        W35017  19.364   1.482  23.667  0.1166 -0.2262 -0.0077
28418W        W35018  19.151   2.296   3.991  0.0047  0.0432  0.0384
28419W        W35019  14.292   5.986  23.135  0.4497  0.0270 -0.0529
28420W        W35020  11.686   0.238   5.609  0.0046  0.0291 -0.0577
28421W        W35021  17.913   5.578   0.096 -0.2277 -0.0045 -0.0215
28422W        W35022  25.956   3.355  29.084  0.0496 -0.4145  0.0739
28423W        W35023  17.255   3.653   7.937 -0.4404  0.3744 -0.2578
28424W        W35024   6.801   3.896   9.847 -0.0483 -0.0830 -0.0749
28425W        W35025  22.890   1.947  23.631 -0.3226 -0.0221  0.1419
28426W        W35026   0.166   6.599   5.748 -0.1172  0.0744  0.3276
28427W        W35027  23.723   4.080  30.395  0.3492 -0.0829 -0.0736
28428W        W35028  25.862   2.282  33.819  0.0887 -0.1968 -0.2920
28429W        W35029   3.331   0.278   8.442 -0.0240  0.1129 -0.0151
28430W        W35030   0.895   6.049  14.297  0.2489 -0.0521  0.0103
28431W        W35031  14.308   1.440  14.393  0.2745  0.0554  0.0601
28432W        W35032   3.665   5.018   4.443  0.0503 -0.1456 -0.2382
28433W        W35033  26.419   2.491  14.697  0.0994 -0.1014 -0.0206
28434W        W35034  24.817   3.651   6.529 -0.1442  0.0886 -0.1473
28435W        W35035   6.394   4.072  23.607 -0.4355  0.0484 -0.0830
28436W        W35036   3.323   1.065  20.985 -0.2945  0.2490  0.0757
28437W        W35037  10.741   3.618  12.494  0.0623  0.1592  0.2748
28438W        W35038   5.208   1.097  21.724 -0.0458  0.1239  0.3207
28439W        W35039   6.403   2.514  27.190 -0.0178 -0.0207  0.1934
28440W        W35040   8.795   5.959  30.882  0.1147 -0.1833  0.0910
28441W        W35041   7.744   4.696  31.704 -0.0017 -0.1266 -0.0136
28442W        W35042  15.992   0.797  12.621  0.1611 -0.0028  0.0035
28443W        W35043   2.434   6.410  22.444  0.1575  0.2178  0.1165
28444W        W35044  18.149   3.117  15.371  0.0433  0.1705  0.0739
28445W        W35045  24.449   1.776   4.219 -0.1170 -0.0992 -0.3829
28446W        W35046   2.747   2.044   4.460  0.0979  0.2923  0.0605
28447W        W35047  15.701   3.701  11.842 -0.1290 -0.1870 -0.3153
28448W        W35048  19.567   2.489  24.527 -0.3775  0.2703  0.4303
28449W        W35049   7.090   4.502  29.920  0.0874 -0.1521  0.3846
28450W        W35050  13.649   4.054   0.330  0.1285  0.0526 -0.2981
28451W        W35051  13.399   0.704  14.690  0.2315 -0.1430 -0.1914
28452W        W35052   4.994   0.772  28.045 -0.1111  0.1166 -0.1261
28453W        W35053   0.900   5.084  28.766 -0.1319  0.1568  0.1733
28454W        W35054   2.597   1.853  20.342 -0.2691  0.3556  0.1545
28455W        W35055   6.378   4.214   8.008 -0.4908  0.0550  0.0789
28456W        W35056  10.533   2.635  32.734 -0.0908 -0.0633 -0.0379
28457W        W35057   7.843   2.564   0.236  0.0709  0.1222  0.2327
28458W        W35058   4.164   2.347  11.218 -0.0684 -0.1471 -0.3199
28459W        W35059  25.089   0.382  11.386 -0.2465  0.0793  0.2115
28460W        W35060  16.041   5.195  25.101  0.2524  0.1243  0.2516
28461W        W35061  17.649   5.332  29.895 -0.1411  0.1136 -0.1361
28462W        W35062  21.830   5.455  14.287  0.0912 -0.3877  0.0172
28463W        W35063  24.926   3.184  30.943  0.1550 -0.1590 -0.0498
28464W        W35064   4.794   3.148  32.378 -0.2254 -0.0106  0.1904
28465W        W35065   5.691   5.791  21.287  0.1749  0.2028 -0.2215
28466W        W35066   8.270   2.688   6.684 -0.0913 -0.1738 -0.1534
28467W        W35067  24.861   1.059   6.237 -0.4336 -0.2958 -0.0265
28468W        W35068  19.660   3.203  22.580  0.0867 -0.1288 -0.0248
28469W        W35069  17.270   3.531  25.464 -0.0728 -0.4353  0.2635
28470W        W35070  24.124   6.335  21.689 -0.1070 -0.0160 -0.3259
28471W        W35071   1.818   6.232   7.180 -0.0107 -0.1456 -0.0819
28472W        W35072  18.552   5.777   4.553  0.2992 -0.0938 -0.0877
28473W        W35073  22.979   0.236  24.216 -0.1828  0.1901  0.2695
28474W        W35074   7.576   4.209   7.320  0.2568  0.1986 -0.1440
28475W        W35075   7.908   4.989   9.604  0.1958 -0.0320 -0.2108
28476W        W35076   3.160   0.488   1.594  0.1032  0.1881  0.0084
28477W        W35077   2.222   3.839  20.250  0.2039 -0.1794  0.0339
28478W        W35078  19.754   3.176   2.208 -0.1238  0.0239  0.0166
28479W        W35079  20.654   4.263  24.692 -0.3941 -0.2789  0.1421
28480W        W35080  23.730   6.275   3.813 -0.0299 -0.0171 -0.0961
28481W        W35081   3.517   2.688  31.105  0.2025  0.0401 -0.0874
28482W        W35082  17.836   2.071  30.763  0.0727  0.1463 -0.0515
28483W        W35083   5.735   4.316  34.433  0.0790  0.1775  0.0909
28484W        W35084   8.882   1.725   5.974  0.2468  0.0574 -0.1962
28485W        W35085   0.129   6.400   7.610 -0.0041 -0.0845  0.3832
28486W        W35086   9.107   6.269  21.057 -0.1272  0.2872 -0.1738
28487W        W35087  24.892   2.022  10.384  0.0102 -0.2161 -0.2314
28488W        W35088   7.362   4.760   9.612 -0.2386 -0.4536  0.1495
28489W        W35089  22.126   0.131  10.494  0.1503  0.1464  0.3359
28490W        W35090   9.177   2.144  31.260  0.0733  0.1326 -0.2604
28491W        W35091  18.873   5.810   6.824 -0.3116 -0.2348 -0.1441
28492W        W35092   7.200   6.231  30.240 -0.1447  0.0429  0.0301
28493W        W35093  20.033   4.179   6.617  0.1768 -0.0860  0.0920
28494W        W35094  13.661   3.681   7.359 -0.3638 -0.0504 -0.3657
28495W        W35095  22.861   2.116   2.780  0.0729  0.1596 -0.0779
28496W        W35096   2.318   2.907  26.026  0.0534  0.2532 -0.1163
28497W        W35097  24.040   0.261  29.145 -0.0253 -0.1719 -0.3977
28498W        W35098  15.951   4.290  23.758  0.2219 -0.1935  0.0609
28499W        W35099  25.787   5.013   6.019  0.1896  0.0443 -0.1021
28500W        W35100  25.586   5.603  26.508 -0.0020  0.2313  0.1610
28501W        W35101   8.399   0.625  27.370  0.1028  0.1050 -0.0175
28502W        W35102  26.304   2.619  27.984 -0.1411  0.2691 -0.1456
28503W        W35103  25.121   3.523   5.368 -0.0491 -0.0372  0.0351
28504W        W35104  23.150   2.609   2.616  0.0313  0.4610 -0.0415
28505W        W35105  10.556   1.844   1.409  0.3075  0.0120 -0.0825
28506W        W35106  21.674   3.041   6.735  0.0475  0.1021  0.1637
28507W        W35107  12.816   5.521  30.803 -0.1936 -0.0675 -0.1713
28508W        W35108   7.243   5.999   7.314  0.0980  0.1349 -0.1235
28509W        W35109  23.426   6.547  30.055  0.3525  0.0518  0.1908
28510W        W35110  24.855   0.209  24.429 -0.0669 -0.3007 -0.1527
28511W        W35111  20.285   0.994  13.749  0.1605 -0.1509 -0.0897
28512W        W35112  13.348   4.444  27.392 -0.0803  0.2993 -0.2156
28513W        W35113  18.875   0.532  11.530  0.1994 -0.0133  0.2599
28514W        W35114  16.561   4.283   3.972  0.2374 -0.1452 -0.0944
28515W        W35115  19.538   3.848  24.346  0.0703  0.0292 -0.0349
28516W        W35116   7.234   0.832  27.592  0.0085  0.0204 -0.1017
28517W        W35117  14.482   6.060  33.458  0.2146 -0.4189 -0.2339
28518W        W35118  26.319   4.938  33.410 -0.2072  0.1372  0.1194
28519W        W35119   4.057   3.167  12.767  0.3500  0.2913 -0.4259
28520W        W35120  10.984   4.368  14.359 -0.0970 -0.0524 -0.0884
28521W        W35121  16.426   2.186  21.068  0.0565 -0.0565 -0.0456
28522W        W35122   5.696   5.724   0.521  0.0921 -0.1166  0.0083
28523W        W35123   7.737   4.124   4.626  0.1734  0.1602 -0.1088
28524W        W35124   9.668   0.532   8.953 -0.2312 -0.1061 -0.0056
28525W        W35125  16.229   6.002  20.198 -0.0141  0.0675  0.0451
28526W        W35126   9.497   6.455  14.756  0.3413 -0.0435 -0.2381
28527W        W35127  23.153   4.691  11.236  0.1948 -0.1768 -0.1361
28528W        W35128  25.403   0.044   8.076  0.0697 -0.1159  0.0337
28529W        W35129   9.081   2.697   0.388  0.1480  0.1424 -0.1039
28530W        W35130  20.248   3.013  10.395 -0.0821  0.2686  0.0790
28531W        W35131  19.953   5.366   0.523 -0.5270  0.3778 -0.0706
28532W        W35132  14.435   2.024  23.011 -0.0760 -0.0300  0.0151
28533W        W35133   3.180   6.505   2.753 -0.3790 -0.0251  0.0412
28534W        W35134   2.655   0.559  11.309 -0.0625 -0.3248  0.0568
28535W        W35135  19.901   4.379  23.006  0.3472  0.3475 -0.2038
28536W        W35136   3.914   5.611   1.413 -0.0082  0.0659  0.4647
28537W        W35137  26.150   1.063   1.412 -0.1840  0.3654  0.0144
28538W        W35138  20.816   1.632  35.167 -0.1177 -0.1661 -0.0933
28539W        W35139  24.542   1.863   6.309  0.0360 -0.1581  0.0601
28540W        W35140  25.543   5.737  30.857  0.1712 -0.0544  0.1772
28541W        W35141   1.339   3.666  16.099 -0.0071 -0.0219 -0.0946
28542W        W35142   0.822   4.815   0.515  0.1294  0.0688 -0.0966
28543W        W35143  12.331   4.768  23.770 -0.0665 -0.3072 -0.0830
28544W        W35144   6.479   2.724   1.463 -0.1906  0.0096  0.0414
28545W        W35145  20.033   2.169  21.724 -0.4180  0.0664  0.0618
28546W        W35146   5.922   4.835   6.741 -0.0008  0.3215 -0.0884
28547W        W35147  15.399   1.943   5.226  0.0289  0.1291  0.3286
28548W        W35148  13.950   5.826  12.588  0.0799 -0.0546 -0.2693
28549W        W35149   3.710   4.337  15.435  0.0674  0.1331  0.0868
28550W        W35150   8.646   0.562  25.847 -0.0400 -0.0601  0.1153
28551W        W35151   9.692   0.499  30.911  0.0015  0.3220  0.1053
28552W        W35152  21.194   2.335   5.235  0.0316 -0.0721  0.1136
28553W        W35153  11.106   4.349   5.285  0.2865 -0.2211  0.0140
28554W        W35154   7.854   4.168  11.122  0.2402  0.0064 -0.0940
28555W        W35155  20.656   0.296  10.121  0.1112  0.2834  0.0553
28556W        W35156   1.541   5.040  12.622  0.1409  0.0604 -0.0631
28557W        W35157   3.106   0.955  32.749  0.5256 -0.0191  0.0325
28558W        W35158  15.779   0.991  33.177 -0.1737 -0.1009 -0.0122
28559W        W35159  22.106   6.049   8.087  0.1385  0.2420 -0.0902
28560W        W35160  18.460   5.186  13.698  0.0691  0.0382 -0.4029
28561W        W35161  18.690   1.291  26.877  0.0420 -0.0779 -0.2714
28562W        W35162  23.405   5.737   9.641 -0.3600 -0.1324 -0.0845
28563W        W35163  24.944   6.001  21.826  0.1133  0.2447  0.1436
28564W        W35164   9.924   4.170   8.741  0.2366  0.0332 -0.1028
28565W        W35165  24.624   2.289   9.901 -0.1146  0.2252 -0.0306
28566W        W35166   9.138   3.335   7.791 -0.1422 -0.1750 -0.1042
28567W        W35167  16.700   2.601  30.013  0.0393  0.2355 -0.1152
28568W        W35168   3.420   1.006  14.193  0.1763  0.2597  0.0514
28569W        W35169  24.929   2.790   1.681  0.0001 -0.1064 -0.4566
28570W        W35170   0.210   2.287  12.749 -0.0680 -0.2136  0.0654
28571W        W35171  19.035   4.289  22.576  0.4331  0.4317 -0.1853
28572W        W35172  20.274   5.840   6.002  0.1336 -0.1547 -0.3284
28573W        W35173  25.468   4.931  31.345 -0.0266 -0.1764 -0.2821
28574W        W35174  23.496   1.886   9.115  0.2217  0.0050 -0.0021
28575W        W35175  26.390   0.232   2.994 -0.0590  0.1182 -0.1754
28576W        W35176   9.501   1.137   0.602  0.0617 -0.2215 -0.1852
28577W        W35177  20.385   5.236  32.451  0.0435  0.0192  0.1241
28578W        W35178  11.546   5.479  32.597  0.1161  0.3313  0.0627
28579W        W35179  14.884   2.503  11.001 -0.3319 -0.2781  0.1848
28580W        W35180  16.013   1.343  31.218 -0.0539 -0.0752 -0.0350
28581W        W35181  24.073   6.383  32.897  0.0413  0.0640 -0.0713
28582W        W35182  18.214   1.872   6.908 -0.3028 -0.1323 -0.0022
28583W        W35183  20.053   4.278   0.996 -0.1226  0.2181 -0.0115
28584W        W35184  14.443   0.047  33.472 -0.1646 -0.0816  0.0857
28585W        W35185  20.619   6.523  33.209 -0.0576  0.4614  0.0457
28586W        W35186   7.644   3.968  26.093 -0.1904 -0.0834  0.1241
28587W        W35187   7.912   6.399  22.944  0.1193 -0.2071 -0.1102
28588W        W35188  21.673   0.063   7.905 -0.0456 -0.1963 -0.3102
28589W        W35189  16.088   3.240   1.035  0.2132 -0.1056 -0.0982
28590W        W35190   7.407   1.663  24.224  0.0477  0.0492  0.0190
28591W        W35191   9.307   2.979  35.587  0.0292 -0.1731  0.0095
28592W        W35192  14.725   3.752   4.562 -0.1023 -0.1173  0.1056
28593W        W35193  22.722   2.248   1.958 -0.0413 -0.2947  0.1120
28594W        W35194  13.307   0.210  13.651  0.0150  0.1012  0.1479
28595W        W35195  12.361   5.615   1.657 -0.1491  0.0178  0.1672
28596W        W35196  11.737   0.379  11.094  0.1951 -0.3331 -0.1213
28597W        W35197   1.877   5.819   4.434  0.0046 -0.0089  0.3882
28598W        W35198   2.285   4.348  26.112 -0.0181 -0.1598 -0.0215
28599W        W35199  10.424   5.218  14.051  0.0189 -0.1181 -0.0056
28600W        W35200  16.182   1.213   0.514  0.0864  0.0335 -0.0346
28601W        W35201   4.674   5.945  35.507 -0.0178 -0.0796 -0.1010
28602W        W35202  23.664   2.663   3.433  0.1661 -0.2826 -0.1157
28603W        W35203  26.307   2.788   8.016  0.1906 -0.0427  0.1393
28604W        W35204  13.173   2.634   6.764  0.1319 -0.1893  0.0150
28605W        W35205  19.126   0.662  32.595  0.0413  0.1496 -0.2965
28606W        W35206   2.428   2.694  27.367 -0.0830 -0.3569 -0.1811
28607W        W35207  13.029   4.384  22.779  0.2642 -0.1483  0.4498
28608W        W35208   8.066   1.448  31.969  0.0540  0.1524  0.1999
28609W        W35209  11.402   5.628   0.083  0.1854 -0.0251 -0.2227
28610W        W35210  17.934   1.393  15.188 -0.2064  0.2148  0.0469
28611W        W35211  18.051   3.631  36.118  0.2644  0.2016  0.1890
28612W        W35212  13.107   6.558  11.537 -0.0245 -0.1555 -0.2054
28613W        W35213   4.366   3.746  33.956 -0.1674 -0.0492 -0.0712
28614W        W35214  13.403   0.689  21.413 -0.2848  0.1063  0.1668
28615W        W35215  19.811   4.161   3.932 -0.0179  0.2766 -0.0626
28616W        W35216   9.651   3.683   0.330  0.3437  0.2239 -0.0873
28617W        W35217   2.112   2.127  34.437 -0.3431  0.0234  0.2336
28618W        W35218  15.055   0.977   1.248  0.0622  0.0745  0.2074
28619W        W35219  11.605   2.586  14.714  0.3013 -0.1660  0.3370
28620W        W35220  18.465   4.803  11.988  0.2366  0.0414 -0.1279
28621W        W35221  20.965   3.746   2.969 -0.0133 -0.0775 -0.1441
28622W        W35222  17.599   5.013   0.773  0.0923 -0.0321 -0.1546
28623W        W35223   3.433   1.162  26.053  0.1485 -0.2118 -0.2264
28624W        W35224   1.433   5.202  11.214 -0.1682 -0.0199 -0.1254
28625W        W35225   6.439   4.815  21.189 -0.1643 -0.1209 -0.2735
28626W        W35226  21.143   5.263   2.659  0.2926  0.1354  0.2298
28627W        W35227   6.193   1.648  20.237  0.2491 -0.0324 -0.1594
28628W        W35228  15.692   4.370   1.029  0.3669  0.1122  0.0815
28629W        W35229   3.634   2.255  34.841 -0.0329 -0.1364 -0.0926
28630W        W35230   2.581   3.173   2.505 -0.1789  0.3842 -0.0573
28631W        W35231   9.395   6.232  13.965 -0.2481  0.0778 -0.0654
28632W        W35232  10.454   4.186   6.663 -0.2708  0.1442  0.0105
28633W        W35233   1.715   2.420   0.623  0.0991  0.0212 -0.1889
28634W        W35234   3.552   5.209  27.775 -0.0735 -0.0165 -0.2353
28635W        W35235   4.718   4.044  11.309 -0.0102  0.0310 -0.0407
28636W        W35236  20.473   5.664  14.775 -0.2780  0.1836  0.1626
28637W        W35237  14.423   3.562  21.305 -0.1818  0.0892  0.1448
28638W        W35238  23.303   5.503  31.525  0.3308 -0.0618 -0.1169
28639W        W35239   4.136   5.498   0.844  0.2009 -0.2675  0.0979
28640W        W35240  10.731   5.838  23.333 -0.0226  0.1091  0.2473
28641W        W35241  22.597   3.741  28.169  0.3027  0.1002  0.0238
28642W        W35242   8.408   2.923   7.848  0.1322  0.0779 -0.0562
28643W        W35243   7.772   3.148   0.105  0.1331  0.3196 -0.0468
28644W        W35244   9.015   0.930  11.111 -0.0477 -0.2131  0.1069
28645W        W35245  17.268   2.162  22.964 -0.0398 -0.0392 -0.1541
28646W        W35246  21.764   1.673  21.606  0.1270 -0.2796  0.0512
28647W        W35247  20.764   5.553  13.765 -0.0532  0.2244  0.0741
28648W        W35248  24.311   1.754  33.020  0.0965 -0.0460  0.1644
28649W        W35249  22.960   2.464   9.506  0.0187 -0.0991  0.3122
28650W        W35250   3.021   2.444  30.312 -0.1794 -0.0701 -0.4000
28651W        W35251  16.324   0.302   4.754  0.1612 -0.0532 -0.0252
28652W        W35252  19.283   0.870  20.882 -0.0641  0.2992  0.0347
28653W        W35253  23.688   4.147  11.150  0.2788  0.0315  0.1906
28654W        W35254   5.521   2.209  27.243 -0.4096  0.2814 -0.0521
28655W        W35255   7.669   0.230   1.967 -0.3001  0.1794  0.1388
28656W        W35256  25.656   6.061   3.880 -0.0002  0.0225  0.0697
28657W        W35257  18.910   1.038  12.404 -0.1876 -0.2693 -0.1493
28658W        W35258   0.517   3.175  30.915 -0.0937  0.0997  0.1751
28659W        W35259  21.177   4.121  26.590  0.1150  0.4891  0.0202
28660W        W35260  12.344   0.887  12.739  0.3655 -0.3004 -0.0071
28661W        W35261   2.844   4.563   7.718 -0.3164 -0.1938  0.0260
28662W        W35262  16.236   1.380  28.610  0.2682 -0.2530 -0.0794
28663W        W35263  25.759   2.259  24.156  0.1411 -0.1271  0.1978
28664W        W35264  18.661   6.526   2.050 -0.4511 -0.0262 -0.0161
28665W        W35265   7.771   2.716   4.585  0.1319 -0.2309  0.1443
28666W        W35266  21.333   2.839   5.824  0.1553 -0.0196 -0.0675
28667W        W35267  19.992   2.688  27.589  0.0607  0.3304 -0.2662
28668W        W35268  24.770   2.869  28.657 -0.1735  0.0443  0.0261
28669W        W35269  13.166   1.275  11.723  0.4665  0.1608  0.0274
28670W        W35270   8.274   1.982  27.676  0.0181  0.2229  0.0296
28671W        W35271  19.733   1.299  35.096 -0.0845  0.0493 -0.1269
28672W        W35272   6.470   4.169  25.872  0.1043 -0.1035  0.0275
28673W        W35273   3.231   3.166   0.720 -0.2187 -0.0720 -0.1908
28674W        W35274   8.581   6.484   6.173  0.1618 -0.0863  0.1391
28675W        W35275   1.600   2.195  28.844 -0.0301  0.0513 -0.0161
28676W        W35276  17.064   2.548  34.072 -0.1527 -0.0726  0.0473
28677W        W35277   1.029   1.737  29.755 -0.4280 -0.0753 -0.1298
28678W        W35278  26.085   5.630   7.551  0.1256 -0.2242 -0.0323
28679W        W35279  25.265   3.155  29.515 -0.0971 -0.0349 -0.3308
28680W        W35280   4.487   2.795  32.714 -0.0936  0.0653 -0.3293
28681W        W35281   7.053   3.985  21.576 -0.0473  0.1559 -0.1474
28682W        W35282  10.510   2.085   9.216 -0.2845  0.2033  0.4070
28683W        W35283  20.539   5.253   0.722  0.0370 -0.0135  0.0068
28684W        W35284  13.705   4.339  14.372  0.0892 -0.0031  0.1216
28685W        W35285  25.826   0.535  15.645  0.2511  0.1003 -0.2683
28686W        W35286  25.199   3.472  27.832 -0.0755 -0.1949  0.0913
28687W        W35287  21.574   2.114  10.207 -0.1298  0.0824  0.0193
28688W        W35288  18.918   0.363   9.757 -0.0644 -0.0681 -0.1877
28689W        W35289   1.828   3.195  25.196 -0.1607  0.0958  0.2297
28690W        W35290  10.104   3.766  35.593  0.0582 -0.0719  0.3676
28691W        W35291  24.321   6.278  29.940 -0.1453 -0.1209 -0.0163
28692W        W35292   7.675   3.565   1.338  0.0902  0.4534  0.0477
28693W        W35293   3.578   0.610  14.428 -0.1483  0.0136 -0.3342
28694W        W35294   6.762   5.450   7.807  0.0926  0.2063 -0.0557
28695W        W35295  22.298   3.843   9.802 -0.2128  0.1442  0.1839
28696W        W35296   8.769   1.699  27.661  0.4476 -0.2364  0.3541
28697W        W35297  22.202   0.727  34.134 -0.2361  0.0521 -0.1037
28698W        W35298  17.264   4.187  10.977 -0.1267 -0.0710 -0.0124
28699W        W35299   4.181   0.182  22.680 -0.4221  0.0265  0.0868
28700W        W35300  20.230   3.557  24.977 -0.1161  0.0028  0.0036
28701W        W35301  16.679   0.767  12.105 -0.0714  0.1467  0.0501
28702W        W35302   2.207   1.612  21.037 -0.1681  0.2707 -0.1453
28703W        W35303  20.825   5.065  35.203 -0.2107 -0.2497 -0.0563
28704W        W35304   4.530   5.070  27.290 -0.1617 -0.1695  0.0402
28705W        W35305  23.720   3.115   2.386 -0.0305  0.1386  0.1115
28706W        W35306  21.158   3.916  22.239  0.0172  0.0119 -0.1862
28707W        W35307  23.561   4.681  26.710 -0.1265  0.2683 -0.0372
28708W        W35308   5.133   1.553   0.984 -0.1762  0.2370 -0.0961
28709W        W35309   0.456   3.948  22.661  0.2718  0.1750  0.0682
28710W        W35310  19.301   4.066  10.620 -0.1367  0.0088  0.0442
28711W        W35311   4.696   4.621   0.551 -0.0317 -0.2020  0.1821
28712W        W35312  12.267   5.418   6.743 -0.2389  0.1792  0.0797
28713W        W35313  19.255   4.679  25.719  0.1567  0.0099 -0.1076
28714W        W35314   1.564   0.967  11.005  0.2203  0.1791 -0.2167
28715W        W35315  11.494   0.588  22.642 -0.0601 -0.0595 -0.2702
28716W        W35316  10.206   2.371  14.218 -0.1025  0.2374 -0.2592
28717W        W35317  13.856   5.068  10.999  0.1247 -0.1408 -0.2406
28718W        W35318   5.899   3.362   9.276 -0.2845  0.1227  0.2118
28719W        W35319  18.374   5.091  11.621 -0.1304  0.0892 -0.1407
28720W        W35320   7.799   4.773   5.525 -0.2489 -0.3315  0.4544
28721W        W35321   1.140   0.578  27.623  0.0000 -0.1386  0.0548
28722W        W35322   9.339   1.229  14.261  0.1196  0.0217 -0.0262
28723W        W35323   5.496   2.155  10.824  0.0703  0.3033  0.0220
28724W        W35324  18.324   4.880   1.107  0.0829 -0.0952  0.0578
28725W        W35325   2.146   3.751  22.332  0.2255 -0.1041 -0.3563
28726W        W35326   6.320   5.425  14.646  0.1469 -0.0990 -0.2365
28727W        W35327  23.949   1.854   7.936 -0.0569 -0.0758  0.3192
28728W        W35328  13.956   0.958  22.002  0.1490  0.2642 -0.0379
28729W        W35329  23.525   0.879  25.155 -0.0017 -0.2839 -0.0223
28730W        W35330  24.857   2.405  12.249  0.2230  0.5798  0.3392
28731W        W35331  18.709   4.487   9.415 -0.0312 -0.3146 -0.0922
28732W        W35332  21.323   4.456  13.496  0.2156  0.0690  0.0206
28733W        W35333  14.775   4.509   2.491  0.1765 -0.1769 -0.0923
28734W        W35334   4.739   2.521  21.107 -0.2284 -0.1611  0.2156
28735W        W35335  14.923   1.215  11.508  0.2585  0.2432  0.1543
28736W        W35336  14.561   5.699  22.591 -0.2010 -0.1051  0.1086
28737W        W35337  24.936   5.795   1.956  0.1939  0.4672 -0.0896
28738W        W35338   6.201   0.771  21.934  0.1661  0.2705 -0.2503
28739W        W35339   3.221   3.862   9.950 -0.3118 -0.1460  0.1611
28740W        W35340   8.810   4.873   4.321  0.0127 -0.0071  0.1381
28741W        W35341  19.068   6.370   8.962 -0.0365  0.2003 -0.3357
28742W        W35342   7.719   6.314  28.716 -0.2228  0.0876  0.0229
28743W        W35343   2.285   4.359  32.203  0.1514 -0.1191  0.0400
28744W        W35344  21.035   5.439  20.671  0.1591  0.1954 -0.1140
28745W        W35345   3.628   5.831  12.862 -0.0140  0.1486  0.0799
28746W        W35346  15.421   4.815  32.697  0.0996  0.2025 -0.0177
28747W        W35347  15.569   5.871  28.275  0.0784  0.0604  0.0515
28748W        W35348   2.230   1.676   8.073  0.2835 -0.1476 -0.0035
28749W        W35349  21.139   4.940  32.079  0.1560 -0.0101  0.1499
28750W        W35350  12.327   0.969  24.633  0.3370  0.1898  0.0668
28751W        W35351   0.643   0.378   7.419  0.0609 -0.2406 -0.2163
28752W        W35352  18.704   4.550  10.328 -0.1662  0.0811 -0.0011
28753W        W35353  13.892   5.409  34.965  0.1563 -0.1849 -0.0126
28754W        W35354   5.634   6.124   7.050 -0.1427  0.2694 -0.1317
28755W        W35355  15.941   1.084  13.941 -0.4358  0.1709  0.0230
28756W        W35356  15.641   4.724   7.592  0.0061  0.4760  0.1190
28757W        W35357   3.254   5.877  35.055 -0.1082  0.3850 -0.0186
28758W        W35358   2.527   6.562  23.494 -0.1050 -0.0576  0.2558
28759W        W35359  17.467   0.628  22.068  0.2691  0.0899 -0.1180
28760W        W35360  13.826   1.904   9.370 -0.3578  0.0443 -0.1368
28761W        W35361  19.405   3.215   0.357 -0.0527 -0.0581 -0.0609
28762W        W35362   7.329   5.052  25.199 -0.1484 -0.0660  0.1266
28763W        W35363  17.321   0.696  11.125  0.0303  0.1553 -0.0307
28764W        W35364  17.097   4.669   5.467  0.0027 -0.3570 -0.1600
28765W        W35365  19.585   3.754  11.804  0.2071  0.2464  0.1616
28766W        W35366  18.796   3.253  23.684  0.0712 -0.0263  0.1921
28767W        W35367  25.584   5.550  24.359 -0.0386 -0.1382  0.0158
28768W        W35368  26.307   4.217  27.573  0.0642 -0.0091  0.4872
28769W        W35369   2.196   2.577  13.639  0.0153 -0.0768 -0.1477
28770W        W35370  24.462   6.374   0.293  0.0728 -0.1838 -0.0535
28771W        W35371   0.119   4.451   0.276  0.0461  0.1343 -0.0100
28772W        W35372  24.868   5.087   2.939 -0.0086 -0.2798  0.1662
28773W        W35373   7.835   0.422  15.486  0.0296 -0.3145  0.0338
28774W        W35374  20.541   0.603  14.704 -0.3080  0.1867  0.1544
28775W        W35375  17.121   0.086   3.141  0.0580 -0.0955 -0.1126
28776W        W35376  11.209   5.053  13.557  0.0503 -0.1101 -0.2229
28777W        W35377  16.967   0.933   9.415 -0.2135  0.2218  0.0292
28778W        W35378   9.661   0.159   4.533 -0.0377 -0.0307 -0.1861
28779W        W35379  17.165   0.827  28.259 -0.0341  0.0983 -0.1914
28780W        W35380  20.248   5.446  11.421  0.1252  0.1281 -0.0322
28781W        W35381  21.004   3.457  23.065  0.0949  0.1973 -0.0949
28782W        W35382  13.945   0.025  25.363  0.0106 -0.1013  0.0390
28783W        W35383   4.095   5.260  34.178 -0.3642  0.1750  0.1594
28784W        W35384  10.913   3.309  34.499 -0.0915  0.0558 -0.0321
28785W        W35385   9.947   2.157  34.783  0.1114 -0.0796  0.2206
28786W        W35386  12.832   5.685  15.459  0.2441  0.0206 -0.1061
28787W        W35387  20.683   1.581   4.965  0.0826 -0.0642 -0.1960
28788W        W35388   4.816   6.029   0.606  0.2250  0.1246  0.0035
28789W        W35389  22.485   4.676  11.647  0.0308 -0.0071 -0.0651
28790W        W35390  10.667   4.767  30.914  0.3336 -0.1939  0.0997
28791W        W35391  12.429   6.133  32.633 -0.0096  0.0840  0.1981
28792W        W35392   7.412   2.292  28.752 -0.0852  0.0376 -0.1502
28793W        W35393  23.183   1.732  27.024  0.0347 -0.1354  0.0777
28794W        W35394   9.925   3.333   4.376  0.1514 -0.1488 -0.3096
28795W        W35395  17.102   4.466   0.473 -0.0022 -0.4028 -0.0654
28796W        W35396  12.584   1.375  29.572 -0.2419  0.0927  0.2202
28797W        W35397  25.530   0.698   2.137 -0.0604  0.1884 -0.2677
28798W        W35398  18.268   0.047  29.743  0.3655  0.0707 -0.0901
28799W        W35399  16.208   2.221  12.758  0.0558 -0.3881 -0.1276
28800W        W35400   9.487   4.682  11.020 -0.3500  0.0856 -0.1125
28801W        W35401  26.390   2.484   5.599 -0.0894 -0.1626  0.1988
28802W        W35402  16.811   1.508  14.544 -0.1605  0.2699  0.1773
28803W        W35403  11.062   0.813   4.337 -0.0065  0.0703 -0.0142
28804W        W35404  25.486   0.560   9.751  0.2176  0.0944  0.1558
28805W        W35405  12.494   3.090   0.732  0.1245 -0.1346  0.2469
28806W        W35406  25.411   1.071  35.852 -0.0928  0.0752 -0.1962
28807W        W35407  19.547   4.734  12.479 -0.0191 -0.1069 -0.2307
28808W        W35408  26.009   5.585  34.299 -0.0596  0.1626 -0.1515
28809W        W35409  21.668   4.926  22.021  0.1234 -0.0482  0.1159
28810W        W35410   7.694   6.259  13.373  0.2024  0.0119 -0.0086
28811W        W35411   4.410   4.990  10.741  0.3634  0.0493 -0.1962
28812W        W35412  14.061   3.422   5.628  0.0742 -0.0923  0.1842
28813W        W35413   9.509   0.842  12.706 -0.3206  0.1287 -0.0790
28814W        W35414  11.239   3.451   9.886  0.0080 -0.0621  0.0553
28815W        W35415  22.311   2.865  21.980 -0.1639  0.1192 -0.0660
28816W        W35416   8.939   3.739  29.552 -0.1033 -0.0052  0.0324
28817W        W35417   9.169   2.799   5.764  0.1232  0.0018 -0.2457
28818W        W35418   5.383   2.795  32.921 -0.1865 -0.2090 -0.0709
28819W        W35419   5.809   3.950  26.793 -0.0248 -0.2175 -0.2092
28820W        W35420  18.802   5.409   8.285 -0.0988 -0.3424  0.0766
28821W        W35421   7.472   3.378  21.465  0.2195 -0.0909  0.0608
28822W        W35422  19.518   3.382  10.335  0.0668  0.0909 -0.1065
28823W        W35423  19.082   2.364  22.804 -0.3127  0.0612 -0.2586
28824W        W35424  25.144   5.685  33.251  0.0390 -0.1247 -0.2198
28825W        W35425  21.071   2.100   0.663  0.2190 -0.0993  0.2829
28826W        W35426   7.806   6.009   3.184 -0.1729  0.3212  0.0070
28827W        W35427   0.081   2.980   1.807  0.2492  0.0936  0.0463
28828W        W35428   1.198   5.801  12.088 -0.0278  0.4393 -0.0076
28829W        W35429  10.397   3.615  11.363  0.2865 -0.3741  0.0601
28830W        W35430  22.459   0.447  26.869  0.0562  0.2260  0.0874
28831W        W35431   4.789   5.089   4.538 -0.0163 -0.0936  0.0031
28832W        W35432   2.749   2.931  11.141 -0.0762  0.2644  0.1642
28833W        W35433  23.041   6.060  28.694  0.0621  0.1575  0.2945
28834W        W35434  21.004   5.751   4.136 -0.0773  0.2754  0.1114
28835W        W35435   1.134   2.105   7.003  0.1291  0.0643  0.2020
28836W        W35436   8.158   3.847  12.301  0.3066 -0.0800 -0.0091
28837W        W35437   0.041   1.319   9.329 -0.0700 -0.1927 -0.0321
28838W        W35438   2.097   0.767  30.330  0.1789 -0.0101 -0.1638
28839W        W35439  15.577   5.203  14.275  0.0897 -0.4240  0.2050
28840W        W35440   9.450   2.600   9.960 -0.1602 -0.1974  0.2028
28841W        W35441   8.838   3.763  35.216  0.4089  0.0326 -0.1714
28842W        W35442   9.223   1.765  14.933 -0.4168 -0.0264  0.0493
28843W        W35443   0.335   5.384  31.302  0.0676  0.1510  0.0834
28844W        W35444  13.994   3.754  13.300 -0.2162 -0.4638 -0.1714
28845W        W35445   0.906   0.837  32.144  0.0227  0.1330  0.3183
28846W        W35446  18.505   4.055  20.528 -0.1392  0.4406  0.0930
28847W        W35447  19.672   0.911  11.896  0.1285  0.0904 -0.1643
28848W        W35448   6.554   2.547   0.978 -0.1660 -0.2308 -0.0454
28849W        W35449   5.207   3.921  27.720 -0.2475 -0.3057 -0.0812
28850W        W35450   9.325   5.104  25.499 -0.0303  0.2435  0.0474
28851W        W35451  11.013   6.394   9.589 -0.3209 -0.1958 -0.1450
28852W        W35452  23.149   5.053  23.239  0.0186 -0.1797  0.1564
28853W        W35453  17.019   1.322  32.201  0.1758 -0.0031 -0.0091
28854W        W35454  13.338   3.536   1.721 -0.2796 -0.2606 -0.0133
28855W        W35455  26.047   5.872  31.106 -0.2159  0.1411 -0.0041
28856W        W35456  11.786   0.414   1.784  0.2556  0.2083  0.0703
28857W        W35457   9.186   1.245  25.772  0.0294 -0.0628  0.1316
28858W        W35458  12.410   4.628   1.692 -0.0652  0.0823  0.1307
28859W        W35459  14.418   4.958   5.059 -0.3759 -0.0673  0.2349
28860W        W35460  18.710   5.790   8.601 -0.0236  0.1228  0.2218
28861W        W35461   3.331   4.668   7.964 -0.0200  0.3294  0.3583
28862W        W35462  14.931   5.886  33.295  0.0530  0.0386 -0.0466
28863W        W35463  10.785   6.456  13.790 -0.2507 -0.2357  0.2300
28864W        W35464   5.182   1.276   0.289 -0.1435 -0.2899  0.0806
28865W        W35465   7.250   5.126  14.578  0.1764  0.0101  0.0279
28866W        W35466  23.175   2.641  27.268  0.0611  0.0869 -0.1235
28867W        W35467  23.165   2.589  24.727  0.0147  0.1746 -0.1758
28868W        W35468  16.390   6.525  22.278 -0.0645  0.3652  0.1328
28869W        W35469   0.411   6.099  24.289  0.2101  0.2841  0.0233
28870W        W35470   4.592   3.254   8.550  0.1422  0.1363  0.0955
28871W        W35471  22.001   3.385  29.197 -0.0052  0.0923  0.2521
28872W        W35472  16.178   2.185  25.890  0.0648  0.1195 -0.1321
28873W        W35473  21.234   4.577  26.787 -0.2907 -0.4523  0.0349
28874W        W35474   3.985   2.541  30.910 -0.3726  0.2051 -0.0629
28875W        W35475  24.590   5.464  25.301 -0.0787 -0.2130 -0.1607
28876W        W35476  25.536   4.447   5.653 -0.1076  0.2160 -0.1286
28877W        W35477  17.693   3.309  10.327  0.2739 -0.1275  0.2291
28878W        W35478  20.407   0.057  24.729  0.0944  0.2792 -0.0247
28879W        W35479  16.266   4.178  13.897 -0.1788  0.0557  0.0118
28880W        W35480  17.064   2.703   6.833  0.0690 -0.1264  0.1115
28881W        W35481  11.360   1.160   6.427  0.1313  0.1304 -0.0825
28882W        W35482  11.888   1.229  34.062 -0.1976  0.0244 -0.2834
28883W        W35483  12.017   0.333  28.767 -0.0897  0.0467  0.2756
28884W        W35484   7.414   2.328   7.580  0.1127 -0.0455 -0.0255
28885W        W35485  13.789   0.105  13.674 -0.3480  0.0004  0.2587
28886W        W35486   4.958   2.330   1.835  0.2130  0.0684  0.0395
28887W        W35487  10.004   2.162  28.077 -0.2417  0.2632 -0.3017
28888W        W35488  19.118   1.151  22.699 -0.1505 -0.2155  0.4663
28889W        W35489  23.776   0.146  28.747  0.0689  0.0242  0.0114
28890W        W35490   5.551   1.396   4.546  0.0225  0.0242 -0.1359
28891W        W35491  10.860   0.335  35.143  0.1016  0.0647  0.3297
28892W        W35492   0.992   1.041   5.792 -0.2046 -0.0354 -0.1456
28893W        W35493  17.461   1.313  29.603  0.0432 -0.2200  0.2512
28894W        W35494  25.213   4.241   1.547 -0.1032 -0.2050  0.1355
28895W        W35495   2.343   6.381  20.254  0.1136  0.1012 -0.1292
28896W        W35496  23.438   6.109  22.966  0.3253 -0.0177  0.1798
28897W        W35497  16.511   0.046  13.084 -0.1803  0.3098  0.0979
28898W        W35498  11.692   2.290  34.081  0.2568  0.0220  0.0162
28899W        W35499  16.744   5.094  35.813 -0.3313 -0.3191  0.3498
28900W        W35500   2.292   5.116   2.270 -0.1670 -0.2870  0.0412
28901W        W35501   2.657   5.894   9.237  0.1125 -0.2294 -0.1950
28902W        W35502  21.036   4.870  13.343  0.0166 -0.2280 -0.0419
28903W        W35503   8.588   0.764  32.133  0.0053 -0.0534 -0.1322
28904W        W35504  10.001   4.796  22.764 -0.0509 -0.0823  0.1775
28905W        W35505   6.473   4.441   4.232  0.2639 -0.0939  0.2549
28906W        W35506   4.492   5.374  13.412  0.0292  0.0041  0.0426
28907W        W35507  24.202   1.150   5.496  0.1520  0.1373 -0.0670
28908W        W35508  23.181   4.473   5.514  0.0732 -0.0481 -0.2396
28909W        W35509   8.983   2.862  30.837  0.1851  0.2843 -0.0014
28910W        W35510   1.160   6.552  33.969  0.1496 -0.0907 -0.1856
28911W        W35511   9.985   1.504  26.231  0.0894  0.0382  0.2368
28912W        W35512   4.911   4.270   5.281 -0.1134  0.1860  0.0289
28913W        W35513  19.023   2.274  21.679  0.1916 -0.2165  0.1167
28914W        W35514   0.485   2.743   6.449 -0.0022 -0.0390  0.1899
28915W        W35515  12.534   2.922  21.510 -0.0035 -0.1090  0.0310
28916W        W35516   9.757   2.937  23.324  0.1572 -0.0607  0.0978
28917W        W35517  17.112   3.073  29.283  0.0722 -0.0550  0.3030
28918W        W35518  16.535   3.093  12.664  0.0497  0.0518 -0.0867
28919W        W35519  15.827   5.745  32.302  0.1979  0.1356 -0.0598
28920W        W35520  10.638   0.742  29.680 -0.1606 -0.1457  0.1921
28921W        W35521   6.557   2.362  25.308  0.1182 -0.1433  0.2952
28922W        W35522   3.152   4.404   5.316  0.0459  0.1426  0.0583
28923W        W35523  18.183   0.095  15.879 -0.1205 -0.0059  0.0982
28924W        W35524   7.149   0.895  30.227  0.1843  0.0388  0.0655
28925W        W35525  25.485   5.303  13.806 -0.0770 -0.2099 -0.0203
28926W        W35526   2.405   4.793   8.241 -0.0335  0.0118 -0.1784
28927W        W35527  12.000   1.288  11.106  0.0057 -0.0316 -0.0914
28928W        W35528   9.247   5.809  30.730 -0.2875 -0.1941  0.1262
28929W        W35529  26.294   3.534   4.544  0.2524  0.0661  0.0586
28930W        W35530   6.636   2.349  31.071 -0.0324 -0.1745 -0.0911
28931W        W35531   5.388   0.622   3.544 -0.0610 -0.0244  0.1076
28932W        W35532   9.818   5.088  34.652  0.0973 -0.1506  0.1069
28933W        W35533   9.241   2.917   6.274 -0.1433  0.0857  0.2238
28934W        W35534   6.770   0.602   8.705  0.0648  0.0828  0.0702
28935W        W35535   1.150   3.529  21.568 -0.0472 -0.2579  0.0583
28936W        W35536  15.421   5.846  33.508  0.0317  0.1865  0.4082
28937W        W35537  18.570   5.116  26.444 -0.1216  0.0989  0.0918
28938W        W35538  24.491   2.517  22.791 -0.1641  0.0955 -0.1486
28939W        W35539   9.620   6.431   3.057  0.1225 -0.0070  0.2222
28940W        W35540   7.230   2.638   5.443 -0.3910  0.3097  0.0299
28941W        W35541   5.267   3.069   2.233  0.1507  0.0527 -0.2494
28942W        W35542   5.319   1.517  12.757  0.3935 -0.0099 -0.0313
28943W        W35543   5.536   5.461  31.384 -0.0962 -0.0115  0.0122
28944W        W35544  12.093   6.493  35.136  0.0859  0.0311  0.0030
28945W        W35545  14.115   4.184   0.509 -0.0710 -0.0094  0.0103
28946W        W35546  21.024   1.627   3.803 -0.3712 -0.1526  0.0121
28947W        W35547  12.224   3.126  27.426 -0.0412  0.0507  0.0524
28948W        W35548  26.265   2.009  27.787 -0.2187 -0.1019 -0.3704
28949W        W35549  21.805   3.631  22.511  0.0012 -0.0363 -0.0415
28950W        W35550  17.884   5.143   4.424  0.0405  0.2400 -0.1683
28951W        W35551  20.796   4.723  13.782 -0.2842  0.2258 -0.0236
28952W        W35552  12.350   5.246  26.013 -0.2242 -0.0594 -0.3701
28953W        W35553  23.754   1.294  35.931 -0.0171  0.0311  0.0702
28954W        W35554  17.341   6.283   4.552 -0.2646 -0.1521  0.0546
28955W        W35555  16.886   5.906  13.032  0.2654  0.2367  0.1129
28956W        W35556  19.368   3.669  21.551  0.0140  0.3270  0.0715
28957W        W35557  13.342   5.314  30.615  0.0581  0.2906 -0.1862
28958W        W35558  23.017   0.597  32.400 -0.1766  0.2695  0.1847
28959W        W35559  20.667   0.947   1.876 -0.2570  0.1734  0.1276
28960W        W35560   4.324   1.752  14.763  0.1508 -0.0946  0.2726
28961W        W35561  10.063   0.075  11.115 -0.1426 -0.2479  0.0364
28962W        W35562  21.805   6.113  21.876 -0.1305 -0.0161 -0.1218
28963W        W35563  25.883   3.751  26.680 -0.2428 -0.0124 -0.0751
28964W        W35564  14.872   0.932  21.942  0.1104 -0.2830 -0.1051
28965W        W35565   2.543   2.700   3.206  0.3363 -0.0780  0.0791
28966W        W35566  17.291   3.159  26.922  0.2390  0.1395 -0.0318
28967W        W35567   0.267   1.202  28.618  0.0300  0.2592  0.0480
28968W        W35568   0.788   6.256  12.447 -0.1761  0.3343 -0.0427
28969W        W35569  24.478   3.684  23.116 -0.0701 -0.1849 -0.0306
28970W        W35570   9.716   1.622  35.621  0.0680 -0.0091  0.3553
28971W        W35571  17.560   1.899   1.724 -0.0492 -0.3419  0.0643
28972W        W35572  23.134   4.740  33.071  0.0424 -0.3129 -0.1346
28973W        W35573   5.597   1.109  23.323 -0.2784 -0.0251  0.1783
28974W        W35574   2.859   2.744   1.143 -0.0829 -0.2513  0.0812
28975W        W35575  23.411   2.633  32.376 -0.1640  0.1906 -0.0075
28976W        W35576  22.119   0.634  10.610 -0.0642 -0.3549  0.0812
28977W        W35577   5.547   2.068  33.214  0.1307  0.0722 -0.0906
28978W        W35578  11.348   4.621  14.090  0.1147 -0.0274  0.0775
28979W        W35579   3.985   4.336   7.120 -0.1433  0.0742 -0.0226
28980W        W35580   5.624   4.123  11.593  0.0197 -0.0917  0.0787
28981W        W35581  25.526   4.792  26.664  0.0092 -0.1426 -0.2209
28982W        W35582   0.542   6.440   1.711  0.0466  0.0535 -0.0848
28983W        W35583  21.825   1.184  32.059  0.1713 -0.0870  0.0710
28984W        W35584  20.748   6.046  14.541  0.0985 -0.1516 -0.1094
28985W        W35585  25.787   2.734   4.876 -0.0704 -0.1714  0.2244
28986W        W35586  14.244   1.685   7.939  0.2697  0.0562 -0.2234
28987W        W35587   5.050   5.126  31.605  0.2217  0.3630 -0.2057
28988W        W35588  19.290   5.874   0.731 -0.0762 -0.1784 -0.1041
28989W        W35589   6.907   5.398  26.836 -0.2144  0.0466  0.1621
28990W        W35590  12.425   6.566  33.688 -0.2129  0.0131 -0.3941
28991W        W35591   6.686   6.521  31.036  0.0427  0.0016  0.0116
28992W        W35592  13.083   3.836  28.706 -0.0770  0.3836  0.1457
28993W        W35593  25.710   5.035   7.080 -0.1783 -0.2461  0.0450
28994W        W35594  11.391   5.224   7.230 -0.1039  0.1689 -0.1376
28995W        W35595  17.332   4.224  27.759 -0.0807  0.1396  0.1651
28996W        W35596  24.972   5.916  29.403 -0.0237  0.0695 -0.0575
28997W        W35597   3.652   5.099  10.987  0.2567  0.2188  0.2382
28998W        W35598   4.610   2.833   3.062  0.2188  0.0204 -0.0493
28999W        W35599  15.267   0.304  32.888  0.2945 -0.0418 -0.1549
29000W        W35600   6.053   6.032  32.965 -0.1289 -0.2783  0.0085
29001W        W35601  25.002   5.865  28.359  0.0210  0.2984 -0.0045
29002W        W35602   8.630   0.173  28.216  0.0379 -0.2115 -0.4087
29003W        W35603  14.764   1.010  10.187 -0.0205  0.0500  0.0939
29004W        W35604  20.701   4.910   6.330  0.0394  0.2902 -0.3058
29005W        W35605   4.998   6.214  22.632  0.1687  0.1373 -0.0232
29006W        W35606  23.729   1.330   4.699  0.1258 -0.0781 -0.0342
29007W        W35607  12.911   1.023  26.062  0.1565  0.1395 -0.0201
29008W        W35608  13.810   2.001   8.785 -0.0109 -0.2506 -0.0125
29009W        W35609   3.067   0.724  21.766  0.2116  0.2314 -0.0699
29010W        W35610   1.732   1.827  29.121  0.0517 -0.1419 -0.1444
29011W        W35611  12.025   0.770   7.141  0.0484  0.0286  0.3545
29012W        W35612  21.603   5.413  14.808 -0.0268  0.4153 -0.0801
29013W        W35613  19.712   0.986   6.385 -0.5930 -0.4612  0.0542
29014W        W35614  18.229   1.087  11.176 -0.0079  0.0824  0.1736
29015W        W35615  19.303   0.257   4.825 -0.1205  0.2135  0.1341
29016W        W35616  19.185   2.550  26.194 -0.0271  0.0304  0.0177
29017W        W35617   1.803   2.776   7.696 -0.0098 -0.1893  0.2788
29018W        W35618  19.131   2.970  33.334 -0.0893 -0.0608  0.3581
29019W        W35619   8.674   5.525  12.648  0.2328  0.0370  0.1570
29020W        W35620  22.943   3.329  35.844 -0.4531  0.0959  0.4803
29021W        W35621  20.266   4.532  13.068  0.1188 -0.1227  0.1359
29022W        W35622  17.388   4.055   9.848  0.0975  0.0370 -0.3285
29023W        W35623  25.580   2.351  35.445 -0.0231  0.1152  0.1059
29024W        W35624  22.502   2.978   0.468  0.1007  0.0828  0.1708
29025W        W35625  22.083   5.083   0.364 -0.1416 -0.3237  0.0209
29026W        W35626   2.054   5.151  25.385 -0.1547 -0.0382 -0.2191
29027W        W35627  23.860   4.849  30.171 -0.1821 -0.1493  0.1736
29028W        W35628  23.184   0.721  28.895 -0.0094  0.1031  0.0977
29029W        W35629   3.511   4.051  29.430  0.1105  0.2316 -0.2713
29030W        W35630  25.015   6.441  11.819  0.4210  0.0842  0.3136
29031W        W35631  21.208   0.964  12.223 -0.0481 -0.1864  0.0905
29032W        W35632   9.107   4.918  15.157  0.2861  0.0802 -0.4393
29033W        W35633  12.397   2.969   2.816  0.0711  0.0305  0.2528
29034W        W35634   0.122   3.330   0.867  0.1052  0.1907  0.3135
29035W        W35635  20.247   6.443  32.019 -0.1182 -0.2028 -0.0610
29036W        W35636   1.513   0.938  31.189 -0.0741 -0.0098 -0.0809
29037W        W35637   0.654   4.722  14.106  0.3047 -0.1030 -0.2252
29038W        W35638  24.804   1.474   6.644 -0.0394  0.0134 -0.1514
29039W        W35639  24.053   5.545  10.809  0.1922 -0.0195 -0.0014
29040W        W35640  19.106   6.404  13.141 -0.2257  0.0092  0.1323
29041W        W35641  13.137   0.061   4.644 -0.2842  0.1380 -0.1434
29042W        W35642   4.118   2.260   5.826 -0.2646  0.1161  0.0533
29043W        W35643   3.605   6.475  30.278  0.0175 -0.1029  0.0987
29044W        W35644   3.268   0.111  32.397 -0.2081 -0.1292 -0.0259
29045W        W35645  13.767   1.134  27.441 -0.1771  0.0443  0.2052
29046W        W35646  19.732   0.157  10.761 -0.0374 -0.0454 -0.1235
29047W        W35647  10.355   6.331  11.254  0.2834  0.0033  0.3549
29048W        W35648  10.595   4.075  31.581 -0.2221 -0.1796 -0.0400
29049W        W35649  17.346   2.476  34.934 -0.1057 -0.0914 -0.0438
29050W        W35650  17.436   3.745  33.582 -0.3142  0.1567 -0.3034
29051W        W35651  14.250   2.347  23.351  0.1802 -0.0858 -0.2009
29052W        W35652  11.010   3.944   9.030  0.0807 -0.0351 -0.1669
29053W        W35653   0.301   0.871   3.685 -0.1372  0.1302  0.0507
29054W        W35654  13.319   4.885  27.145  0.0058 -0.1338  0.1704
29055W        W35655   1.782   6.035  14.398  0.1169 -0.3275  0.0211
29056W        W35656   9.419   1.619  11.549 -0.0383 -0.2975 -0.2255
29057W        W35657  13.996   1.884  22.811 -0.0563 -0.0896 -0.0941
29058W        W35658  13.449   1.473   2.829  0.0215  0.1102 -0.3891
29059W        W35659   4.912   3.741   5.347 -0.2081  0.2220 -0.2949
29060W        W35660   1.578   4.751   5.410  0.1365 -0.1549 -0.1033
29061W        W35661  20.514   0.617  28.442  0.2227  0.0061  0.2511
29062W        W35662   8.028   1.650  33.746  0.0251 -0.3174 -0.4347
29063W        W35663   2.544   0.768   5.578  0.2656 -0.4463  0.1177
29064W        W35664  26.022   3.890  12.198  0.1062 -0.0112 -0.1384
29065W        W35665   8.168   1.256  14.866 -0.1048  0.0012 -0.1836
29066W        W35666  15.181   2.274  26.399 -0.1922  0.1096 -0.1302
29067W        W35667   3.184   3.796  36.117 -0.0964 -0.0988  0.0329
29068W        W35668  26.194   5.215   7.798  0.1204 -0.1256  0.1123
29069W        W35669  25.189   4.589  34.664 -0.0521 -0.2056 -0.1536
29070W        W35670   6.747   1.157   7.901  0.0849  0.1328 -0.0987
29071W        W35671   9.694   5.738   7.117  0.1343  0.1650  0.1506
29072W        W35672  17.771   4.834   7.485  0.0053  0.0785 -0.0380
29073W        W35673  14.334   1.026  23.164  0.1736  0.3709 -0.0733
29074W        W35674  16.878   0.891  33.459 -0.0597 -0.3080 -0.1689
29075W        W35675  12.935   2.622  30.150 -0.1051 -0.2531 -0.0433
29076W        W35676  18.817   6.028  33.618 -0.0394 -0.1354  0.1641
29077W        W35677   5.046   3.949  28.574  0.0678 -0.0507  0.1241
29078W        W35678  16.126   6.562   9.642  0.2538  0.1077  0.1617
29079W        W35679  23.442   1.233   3.804 -0.0829  0.3672 -0.1252
29080W        W35680  19.113   1.101  29.044 -0.1594 -0.1333 -0.0485
29081W        W35681  15.487   5.623  13.072  0.1076  0.1702  0.1211
29082W        W35682  16.199   2.413   2.936 -0.0582  0.2893 -0.0173
29083W        W35683  26.054   6.199  20.031 -0.1585 -0.0439  0.1921
29084W        W35684  16.524   1.951   2.855  0.1761  0.0850 -0.2567
29085W        W35685  14.557   5.486   4.280 -0.3257 -0.3401 -0.2710
29086W        W35686  16.603   4.728   8.495  0.1201 -0.1853  0.0775
29087W        W35687  10.040   3.818  15.248 -0.1008  0.1095  0.3458
29088W        W35688  23.587   3.706  29.278 -0.0869 -0.2523  0.0967
29089W        W35689  13.295   4.013   8.850 -0.1406 -0.1755 -0.1404
29090W        W35690   2.223   3.784  33.344 -0.0101  0.0553 -0.5221
29091W        W35691   5.713   2.497  33.324 -0.1187 -0.1226 -0.2256
29092W        W35692   5.386   0.298   1.377 -0.1708  0.0396 -0.0441
29093W        W35693   2.197   1.409  33.745 -0.1589 -0.2888  0.2645
29094W        W35694  15.088   2.084  31.479 -0.0840  0.1861  0.0433
29095W        W35695   3.712   6.341   3.296  0.3217  0.0731 -0.0302
29096W        W35696  22.339   2.561  31.793  0.1487 -0.0943  0.0936
29097W        W35697  17.235   1.269   8.474  0.0767 -0.1452  0.1010
29098W        W35698   1.929   3.640  27.230 -0.0260  0.0580  0.2930
29099W        W35699  12.939   3.137   3.460 -0.3183 -0.2270 -0.0284
29100W        W35700   9.318   5.907  33.135  0.0534  0.1993  0.0183
29101W        W35701  23.597   3.934   4.682 -0.2451 -0.1543 -0.4113
29102W        W35702  26.232   4.166  26.732 -0.0040 -0.1631  0.1114
29103W        W35703  13.629   0.187  21.472  0.1799  0.2510 -0.0500
29104W        W35704   0.725   1.724  29.360  0.1224  0.0043  0.1786
29105W        W35705   6.090   0.795  34.114  0.0200  0.1672  0.0551
29106W        W35706  19.986   3.629  11.196  0.3998 -0.1173 -0.0991
29107W        W35707  13.989   1.997   1.052  0.0138  0.0200  0.0920
29108W        W35708  16.051   4.886  32.143 -0.0110  0.1851  0.1355
29109W        W35709  20.015   5.982   6.871  0.1022 -0.1348  0.1623
29110W        W35710   8.364   4.375  10.252  0.0210 -0.1169  0.2021
29111W        W35711  15.487   4.363  34.794 -0.1009 -0.0859  0.0177
29112W        W35712   3.124   1.692  31.518  0.0812  0.0999 -0.1905
29113W        W35713  20.415   3.984  29.737  0.2738  0.2958 -0.2683
29114W        W35714  10.542   3.309  13.609  0.1334  0.0502  0.2982
29115W        W35715  22.490   5.548  11.566  0.1177 -0.0651 -0.1623
29116W        W35716   9.826   5.392   9.316  0.1203 -0.2315 -0.3170
29117W        W35717  19.813   0.972  13.435 -0.3173 -0.1534 -0.2721
29118W        W35718  25.495   5.204   6.456 -0.0432  0.1576  0.0335
29119W        W35719   7.041   3.990  32.182  0.2794 -0.1503  0.2408
29120W        W35720  25.576   6.033   6.909 -0.3106 -0.1611  0.1600
29121W        W35721  25.223   0.343  10.270  0.0166 -0.0023 -0.1758
29122W        W35722   0.020   2.461  34.812  0.0420  0.1020 -0.2634
29123W        W35723  17.913   5.437  34.914  0.0470 -0.1380 -0.2485
29124W        W35724   0.084   2.337   8.126 -0.1200 -0.2173 -0.0470
29125W        W35725  18.615   4.485  14.943 -0.1135  0.1653 -0.1579
29126W        W35726  14.714   1.476   2.529  0.0687  0.1625  0.0451
29127W        W35727   5.636   1.027   2.376  0.3113 -0.0564 -0.0218
29128W        W35728   1.113   4.972  10.320 -0.0346  0.0572  0.0122
29129W        W35729   0.830   5.490   2.829  0.1165  0.0806 -0.1106
29130W        W35730  11.599   5.788  14.927 -0.2547 -0.0997  0.0159
29131W        W35731  20.567   5.734  20.365  0.0248  0.0840  0.2070
29132W        W35732  26.219   4.719   7.887 -0.0215 -0.1585 -0.2699
29133W        W35733  12.223   4.117   9.613 -0.5496 -0.2309  0.1332
29134W        W35734  22.237   6.398  28.947  0.1888 -0.0955  0.1968
29135W        W35735   6.685   5.333   6.021 -0.2119  0.5027  0.0706
29136W        W35736  16.930   6.443  32.598  0.2235 -0.0136  0.2866
29137W        W35737  20.996   5.038  24.070  0.0060 -0.4704 -0.0309
29138W        W35738   1.825   6.305  34.737  0.2403 -0.0027  0.2733
29139W        W35739   3.810   2.351  24.310  0.0816 -0.1208 -0.1622
29140W        W35740  10.285   0.541  11.860  0.1672  0.0379  0.1031
29141W        W35741  15.292   5.442  13.866 -0.0012  0.1130 -0.2103
29142W        W35742  13.099   2.773   5.998 -0.0862 -0.0408  0.3027
29143W        W35743   2.990   1.393  34.734 -0.1751  0.0447 -0.2988
29144W        W35744   7.828   5.462  28.569 -0.4724 -0.1441  0.2199
29145W        W35745  25.558   2.662  20.621  0.0670 -0.2068  0.1469
29146W        W35746   0.893   0.739  14.161 -0.0677  0.0072 -0.0399
29147W        W35747   2.964   5.996  10.120  0.0232  0.0028 -0.0910
29148W        W35748  17.459   2.245  33.270  0.2394  0.0978 -0.0394
29149W        W35749  20.558   0.257  29.800  0.1600 -0.2469 -0.1545
29150W        W35750   6.328   5.241   9.872  0.1942  0.0226  0.3159
29151W        W35751  12.190   1.263   1.516 -0.2022 -0.1524 -0.2693
29152W        W35752   9.943   0.268  29.128 -0.1357  0.0213  0.0092
29153W        W35753  20.843   0.723  36.085 -0.2140  0.1780 -0.1769
29154W        W35754  12.576   1.072  21.059  0.1116 -0.0265 -0.0629
29155W        W35755   2.728   0.084   3.678 -0.0642  0.0796  0.0034
29156W        W35756   8.136   5.214   9.994  0.1657  0.1402  0.1911
29157W        W35757   2.403   0.001  33.684  0.0653 -0.1152  0.2796
29158W        W35758   5.985   0.600  28.194  0.1118  0.1025  0.4503
29159W        W35759  15.549   4.302   5.453 -0.3643  0.3074 -0.0032
29160W        W35760  16.074   6.586   3.200 -0.0666  0.2487  0.0524
29161W        W35761  14.368   6.020  12.000 -0.0729 -0.0630 -0.1063
29162W        W35762  18.784   1.633   7.514  0.1309  0.2401 -0.1628
29163W        W35763  22.960   4.278  28.865  0.2167 -0.1299 -0.1655
29164W        W35764  24.503   3.747  11.447  0.0594 -0.1539  0.1416
29165W        W35765   1.126   2.159   7.491 -0.2380  0.0285 -0.2860
29166W        W35766  12.381   1.520  32.989  0.1507 -0.1423 -0.1670
29167W        W35767  21.722   3.199  15.171  0.1565 -0.0216  0.0787
29168W        W35768   9.627   3.069  32.825 -0.0856 -0.3019  0.0988
29169W        W35769  17.728   2.604  27.287  0.0478 -0.0089 -0.0907
29170W        W35770  18.883   3.540  34.297 -0.0606  0.0150  0.2400
29171W        W35771  19.147   3.933  11.942  0.1469  0.2541 -0.0068
29172W        W35772   2.994   3.552  14.288  0.1869  0.1858 -0.1055
29173W        W35773   0.784   5.967  27.697 -0.0690  0.3378  0.2936
29174W        W35774   1.124   4.693  13.928  0.0894 -0.0180 -0.1270
29175W        W35775  24.313   4.220  36.183 -0.1252 -0.1705 -0.1589
29176W        W35776   5.881   4.187  34.966 -0.1291  0.1387  0.0715
29177W        W35777  10.856   1.846  34.872 -0.1282  0.1076 -0.1266
29178W        W35778   6.204   4.939  35.873  0.3591  0.1289  0.3820
29179W        W35779   7.992   0.353  27.906  0.0758  0.0477 -0.2963
29180W        W35780  14.541   1.988  29.706 -0.1468 -0.0094  0.0878
29181W        W35781  20.821   1.099  35.626 -0.2497  0.3368 -0.2622
29182W        W35782  13.143   5.193  29.833  0.4437 -0.2812  0.1013
29183W        W35783  13.417   6.518   1.454 -0.2587 -0.0169 -0.0140
29184W        W35784   7.676   3.390   9.526  0.1384  0.2506  0.0042
29185W        W35785  20.805   6.009  10.931  0.2123 -0.0732  0.1010
29186W        W35786  20.574   2.635  12.466 -0.1121 -0.1003 -0.2362
29187W        W35787   7.287   5.157   1.449  0.0959 -0.0811  0.0815
29188W        W35788   0.640   1.191  26.294 -0.2413  0.0882  0.0327
29189W        W35789   6.516   0.021  35.130 -0.1211  0.3093 -0.1993
29190W        W35790   1.797   6.438   1.012  0.3471  0.1897 -0.1896
29191W        W35791   5.505   2.993  12.548  0.2288  0.0498  0.0432
29192W        W35792  15.923   5.835   2.631  0.3519  0.1168  0.1396
29193W        W35793  16.751   0.134  24.321 -0.2040  0.0523 -0.2229
29194W        W35794  21.594   3.342   0.836 -0.0586  0.1335  0.3637
29195W        W35795  10.887   2.639   2.818  0.3211  0.0594  0.2132
29196W        W35796  19.999   1.749  21.312 -0.2637  0.1174 -0.1870
29197W        W35797  10.646   1.094  35.938  0.0666 -0.0201  0.0670
29198W        W35798  23.156   4.009  29.253  0.2242 -0.2078 -0.0511
29199W        W35799   9.652   1.340  25.006 -0.0965  0.0809 -0.1377
29200W        W35800   9.801   1.001  30.773 -0.3366 -0.1901 -0.1216
29201W        W35801  22.811   0.973  32.015  0.0436 -0.1945  0.0684
29202W        W35802  16.932   4.082  23.421 -0.2282 -0.0723 -0.3178
29203W        W35803   2.498   0.071   8.105  0.0141 -0.2709  0.1439
29204W        W35804  11.032   4.628  12.470  0.3154 -0.0167 -0.1524
29205W        W35805   5.500   4.890  10.103 -0.0827 -0.1092  0.1923
29206W        W35806   8.013   6.293  25.929 -0.0135 -0.1108  0.1488
29207W        W35807  20.356   3.200   3.063  0.1369  0.2277 -0.2781
29208W        W35808  12.500   2.551   1.939  0.2382  0.0917  0.0111
29209W        W35809   5.705   0.292   3.332  0.1553  0.0268  0.1034
29210W        W35810  10.201   2.418  24.555  0.0908 -0.0508 -0.0666
29211W        W35811  10.424   5.166   9.839  0.0553 -0.1052 -0.1042
29212W        W35812  19.773   1.980  29.872 -0.0817  0.0802  0.1309
29213W        W35813  23.574   5.261   7.296 -0.4034 -0.0160 -0.2312
29214W        W35814   8.133   0.468   1.956  0.1511 -0.1631  0.0532
29215W        W35815  11.611   5.640   4.416  0.0013 -0.3871  0.1734
29216W        W35816  17.251   3.629   3.728 -0.2066  0.1507 -0.2854
29217W        W35817  13.500   1.626  30.568 -0.2488 -0.1636  0.1284
29218W        W35818   9.755   4.173  24.999  0.3942 -0.0566 -0.1454
29219W        W35819  25.287   4.145  30.247 -0.0867  0.1277 -0.3075
29220W        W35820  13.136   0.736  35.290 -0.0719 -0.2356  0.1571
29221W        W35821  15.378   6.073  23.968  0.0911 -0.0773 -0.1661
29222W        W35822  16.017   2.798  28.090  0.0619 -0.0091 -0.0038
29223W        W35823  18.627   3.733  27.319  0.1291 -0.3564  0.1582
29224W        W35824  11.556   3.518   7.175  0.2434 -0.0703 -0.0905
29225W        W35825  11.573   1.432   0.389 -0.0035 -0.1247  0.1083
29226W        W35826  10.997   0.847  26.073 -0.1700  0.0619  0.1215
29227W        W35827  12.833   0.346   3.414  0.1072  0.0331  0.3233
29228W        W35828   3.431   5.479  22.304 -0.0935 -0.1531 -0.0061
29229W        W35829  10.065   0.605   8.336  0.0870  0.4536  0.1055
29230W        W35830  23.889   4.378  34.257 -0.2194  0.1383 -0.1443
29231W        W35831   2.103   0.803  24.221 -0.3573 -0.1364 -0.0655
29232W        W35832   1.205   0.772  11.389 -0.2017  0.3404 -0.2928
29233W        W35833  18.618   0.898  29.329 -0.1815  0.1071  0.1447
29234W        W35834   9.961   5.837   3.999 -0.1301  0.1510 -0.1466
29235W        W35835   1.917   1.480  35.938 -0.1252 -0.0728  0.0947
29236W        W35836  25.463   2.941   0.094  0.1524 -0.1636 -0.2334
29237W        W35837  23.706   5.083   6.421  0.0027  0.2355  0.1577
29238W        W35838  22.522   5.461  34.431 -0.0981  0.3863  0.2082
29239W        W35839  12.855   4.853  33.977 -0.0700 -0.2437  0.1776
29240W        W35840  16.188   6.014  24.521 -0.1939 -0.0102 -0.0651
29241W        W35841  23.725   4.773  21.810 -0.0465  0.0314 -0.1572
29242W        W35842  15.971   3.371   5.390  0.1549 -0.0179  0.0948
29243W        W35843   2.164   4.185   5.748 -0.1208 -0.2261 -0.1039
29244W        W35844  15.670   6.170  12.894 -0.1169 -0.0355  0.2239
29245W        W35845   8.917   4.508  33.429 -0.0590 -0.1602 -0.0611
29246W        W35846   7.537   2.886  22.453 -0.0552 -0.1280 -0.1271
29247W        W35847   5.459   0.458  22.016 -0.1040 -0.0923 -0.2971
29248W        W35848   8.512   0.042  13.131  0.0627  0.1494 -0.3600
29249W        W35849   9.901   4.687   2.630  0.2057  0.1059 -0.0595
29250W        W35850   4.085   3.651  23.075  0.0838  0.0590  0.3151
29251W        W35851  13.132   0.401  14.254 -0.0483  0.0622 -0.0369
29252W        W35852  25.750   1.736  11.533 -0.0583 -0.0037  0.0298
29253W        W35853   5.469   4.320   2.326 -0.1022 -0.2755  0.1029
29254W        W35854  12.544   4.108  24.263 -0.0998 -0.1053 -0.1418
29255W        W35855  12.713   1.258  34.253  0.1752  0.0365  0.0473
29256W        W35856  23.692   2.654   9.135  0.0324 -0.3640 -0.0154
29257W        W35857  12.051   2.140  28.291  0.3165 -0.0608  0.2158
29258W        W35858  22.825   3.632   1.601  0.0643 -0.2389  0.0863
29259W        W35859   7.400   1.062  21.825  0.0341  0.0518 -0.0483
29260W        W35860  23.174   4.912  14.448 -0.1129 -0.0838  0.0547
29261W        W35861  13.869   5.444  10.548  0.2275 -0.3500  0.2303
29262W        W35862  12.811   4.700  29.748  0.2616  0.0541  0.2409
29263W        W35863   8.972   4.836  35.690  0.0662  0.4056 -0.0466
29264W        W35864  12.138   3.356   3.050  0.4397 -0.0979 -0.0652
29265W        W35865   0.597   5.242  30.477  0.1218 -0.1407  0.3650
29266W        W35866   9.321   4.865  21.419  0.1729 -0.0504 -0.0060
29267W        W35867  25.757   4.762   0.190 -0.0995  0.0327  0.0792
29268W        W35868  17.733   3.964   9.521 -0.1580  0.1152 -0.1568
29269W        W35869   7.436   5.089   5.524  0.0460 -0.2738 -0.1544
29270W        W35870  11.764   5.600   6.058 -0.1286  0.3216 -0.0485
29271W        W35871  26.074   1.187   2.340 -0.1824  0.1384 -0.0140
29272W        W35872   4.971   6.482   0.641  0.1652  0.1008 -0.0427
29273W        W35873  14.586   4.310  34.329 -0.1848  0.1028  0.1436
29274W        W35874  14.183   6.592   4.410 -0.2302 -0.0890 -0.2282
29275W        W35875  25.358   6.453  26.679  0.1936 -0.2893  0.1497
29276W        W35876   5.250   1.337   3.143  0.2227  0.2132  0.0581
29277W        W35877  20.094   5.795  20.550  0.1833 -0.1554 -0.2666
29278W        W35878   9.844   3.437  12.600 -0.0574 -0.2164  0.0632
29279W        W35879   0.969   3.374   8.280  0.1038  0.2759  0.0086
29280W        W35880  12.602   2.627  12.814 -0.3073 -0.2417 -0.1833
29281W        W35881   9.973   1.276  21.882 -0.1048  0.1795 -0.1039
29282W        W35882  10.464   2.036   0.961  0.0945  0.0533  0.2237
29283W        W35883  23.062   5.170  28.465  0.1992  0.0315  0.1145
29284W        W35884   7.815   5.308   0.200  0.1071 -0.0084  0.0311
29285W        W35885  20.372   1.605   6.407  0.2825  0.0365  0.1853
29286W        W35886  16.749   4.081   4.564 -0.4142  0.1162 -0.1811
29287W        W35887  21.104   1.962  33.840  0.0892  0.2247  0.0205
29288W        W35888  10.364   3.326  15.870  0.1768  0.0816  0.1748
29289W        W35889  18.290   5.092  11.100  0.1410 -0.1266  0.2526
29290W        W35890   6.775   1.976   8.376 -0.4417  0.2149 -0.2063
29291W        W35891  24.377   5.586  31.221  0.0209 -0.1404 -0.3265
29292W        W35892  25.610   2.790  22.099 -0.1598 -0.0427 -0.2286
29293W        W35893   1.288   5.101  33.869 -0.4397  0.2796  0.0248
29294W        W35894  13.737   1.696  30.129 -0.1966 -0.1559 -0.0909
29295W        W35895  24.136   3.096  12.298 -0.2160  0.4984  0.4617
29296W        W35896  15.863   3.039  30.192 -0.0403 -0.1588  0.3288
29297W        W35897  16.978   4.712  25.842 -0.1859 -0.2099 -0.1755
29298W        W35898  17.791   6.500  20.963  0.0226 -0.0543 -0.5194
29299W        W35899  25.795   5.256   0.003 -0.0270  0.2785  0.2694
29300W        W35900   9.575   6.349  10.071 -0.2247  0.3330 -0.0021
29301W        W35901  14.280   0.167  32.825  0.1781  0.3745  0.0028
29302W        W35902  13.817   5.470  27.995  0.4641  0.2743  0.0182
29303W        W35903  24.761   3.510   8.481 -0.0208 -0.3092  0.3590
29304W        W35904   4.113   1.018  27.160  0.1092 -0.0924 -0.5629
29305W        W35905  17.027   6.217   0.555  0.0356 -0.0041  0.0099
29306W        W35906  13.104   4.086  26.594  0.0249  0.2006 -0.0781
29307W        W35907  22.464   0.297  28.107  0.0066 -0.2003  0.0313
29308W        W35908   8.525   3.727  32.472  0.0468 -0.3914 -0.2048
29309W        W35909   1.930   5.969  10.539 -0.1485 -0.0030  0.2158
29310W        W35910  10.592   0.768   8.350 -0.1222  0.0474  0.1386
29311W        W35911   8.183   1.210  30.502  0.5005 -0.2498  0.2706
29312W        W35912   7.714   3.510  30.380  0.1373 -0.0932 -0.1039
29313W        W35913   7.982   2.660   7.589  0.3083 -0.0467 -0.1086
29314W        W35914  10.453   4.258  30.225  0.0687  0.0692  0.2916
29315W        W35915   0.164   5.914  10.740 -0.0947 -0.0381  0.3500
29316W        W35916   1.748   2.929  30.413 -0.1553  0.0952  0.0664
29317W        W35917   7.451   4.204  29.718  0.1352 -0.1564 -0.0922
29318W        W35918   8.806   6.010  35.371  0.0144  0.0074  0.1220
29319W        W35919  13.245   0.404   3.685  0.2369  0.4213 -0.1219
29320W        W35920  23.437   5.370  14.665  0.0158  0.2510  0.0065
29321W        W35921   1.533   0.158   5.542 -0.0837  0.1421  0.3432
29322W        W35922  17.799   2.252  30.244 -0.0236 -0.0887 -0.0977
29323W        W35923   4.209   1.419  10.760 -0.0342  0.1492 -0.0719
29324W        W35924   0.817   0.447  22.488 -0.2214 -0.2247  0.2962
29325W        W35925  15.012   3.540  22.861 -0.1201 -0.0168 -0.1301
29326W        W35926   0.974   2.927   9.875 -0.1412 -0.1802 -0.0896
29327W        W35927   4.755   5.240  24.248  0.2190  0.1243  0.0763
29328W        W35928  22.513   4.095  33.306  0.1092 -0.2305 -0.0743
29329W        W35929   7.515   1.102  31.250  0.2280 -0.3634  0.1293
29330W        W35930  17.548   3.249  34.233  0.2446  0.1957 -0.0030
29331W        W35931  18.420   5.961  33.972 -0.6051  0.1582  0.3109
29332W        W35932  20.890   0.887   6.951 -0.0354 -0.0253  0.1965
29333W        W35933   6.031   6.561  29.852  0.1537 -0.4397 -0.0432
29334W        W35934  15.294   3.956  24.193  0.1379  0.0759 -0.1425
29335W        W35935  19.484   0.554   4.382 -0.1197 -0.1038  0.0386
29336W        W35936   5.089   1.272  14.908 -0.1210  0.1463  0.0226
29337W        W35937  22.028   0.464  25.316 -0.0630  0.1352 -0.1317
29338W        W35938  23.128   3.107  25.334 -0.1819 -0.0727  0.0304
29339W        W35939  10.323   2.925   2.742 -0.0665 -0.1115 -0.0223
29340W        W35940  23.555   1.183  35.080 -0.1203  0.0579 -0.1454
29341W        W35941  14.556   4.209   4.716 -0.0164 -0.1578 -0.2289
29342W        W35942  18.585   0.529  26.939 -0.2431 -0.1411 -0.0970
29343W        W35943  17.130   4.845  21.184 -0.0381 -0.0616  0.1332
29344W        W35944   9.675   0.787   2.163  0.0490 -0.2621 -0.2712
29345W        W35945   8.911   6.519  21.460 -0.0201 -0.0763  0.3337
29346W        W35946   9.396   1.784   4.352  0.1580  0.2478  0.0769
29347W        W35947   4.768   1.558   5.631 -0.0466  0.1328  0.0857
29348W        W35948  17.144   5.980  12.171 -0.2382  0.1427  0.1536
29349W        W35949  13.608   3.923   4.111 -0.2571 -0.1234  0.0683
29350W        W35950   2.596   3.480  36.150 -0.2346 -0.1509 -0.2095
29351W        W35951  12.770   1.092   7.734  0.0801  0.0737 -0.0463
29352W        W35952   6.425   4.244   0.250  0.0489  0.2286  0.2965
29353W        W35953  13.397   2.554  20.544 -0.1549 -0.1445 -0.2380
29354W        W35954   3.956   1.911   0.925 -0.1520  0.2714  0.1701
29355W        W35955   1.002   0.249  22.053 -0.1786  0.1961 -0.2260
29356W        W35956  25.013   3.950  31.958  0.2275  0.1786  0.1395
29357W        W35957   7.245   0.271  32.174 -0.0223 -0.0898 -0.1717
29358W        W35958  25.579   5.236  26.895 -0.3349  0.0994 -0.3889
29359W        W35959   8.048   4.476  24.420  0.3573  0.2562  0.2849
29360W        W35960  22.484   1.859   4.996 -0.0262  0.0997  0.0818
29361W        W35961   5.674   4.602  14.711 -0.1405  0.0976 -0.2250
29362W        W35962  16.659   3.499   1.830 -0.0001  0.2196  0.2843
29363W        W35963  15.585   5.990   0.256 -0.3072 -0.3243 -0.2102
29364W        W35964  25.574   6.335  24.191 -0.0263 -0.1476  0.3192
29365W        W35965  25.396   5.538  36.123 -0.0701 -0.0461 -0.0392
29366W        W35966  15.582   5.276   5.697 -0.0976 -0.2435 -0.0514
29367W        W35967  20.300   3.985  22.932 -0.4669 -0.0007 -0.0138
29368W        W35968  17.298   1.009  34.868 -0.2076  0.1726 -0.0490
29369W        W35969  22.745   4.309   6.209  0.0304  0.2012  0.0966
29370W        W35970  10.040   3.514   5.872  0.0704  0.0690 -0.1163
29371W        W35971  11.473   2.865  10.867  0.1112 -0.1350  0.0173
29372W        W35972  20.283   5.337   5.396  0.2231  0.0295  0.1560
29373W        W35973   2.156   5.424  11.804 -0.2845  0.2196 -0.0404
29374W        W35974   1.953   3.457  31.146  0.0589 -0.1500  0.1000
29375W        W35975  22.232   3.250   2.780 -0.0665 -0.1608  0.0459
29376W        W35976  22.632   2.938   2.182 -0.0584  0.0171  0.1336
29377W        W35977  13.261   5.387   3.437 -0.0810 -0.2696 -0.5258
29378W        W35978  13.866   4.075  25.680 -0.1631  0.2459 -0.0792
29379W        W35979  22.320   6.431  26.687  0.1572  0.0598 -0.0125
29380W        W35980  16.257   4.533  14.243 -0.5037 -0.4223  0.0004
29381W        W35981  15.772   5.339   2.770 -0.0705  0.3004 -0.1277
29382W        W35982  15.262   5.938   4.406  0.1866 -0.1509 -0.2240
29383W        W35983  13.572   6.436  33.481  0.2337 -0.3313 -0.0450
29384W        W35984   0.710   6.462   6.384  0.0867  0.1015  0.3835
29385W        W35985  15.115   1.946   7.854 -0.2410 -0.1073  0.2374
29386W        W35986   4.469   4.688   7.184 -0.1347  0.2711 -0.2111
29387W        W35987  18.911   3.739  10.700 -0.1597 -0.2501 -0.4674
29388W        W35988  12.908   6.437   3.497 -0.1165 -0.1126 -0.0336
29389W        W35989  23.124   4.151  22.725 -0.1295  0.2505  0.1239
29390W        W35990  25.408   1.341  10.666  0.4140 -0.1768  0.1354
29391W        W35991  16.323   2.634  20.895 -0.2206  0.1454  0.3600
29392W        W35992  20.574   3.101   7.149 -0.2722  0.0247  0.3598
29393W        W35993  15.100   5.701   8.440 -0.2169  0.2548 -0.0216
29394W        W35994   3.382   4.317   5.950  0.0019 -0.0523  0.5102
29395W        W35995  19.292   0.239   5.989 -0.1765  0.1294 -0.0199
29396W        W35996  26.424   1.264  13.926 -0.2875  0.1252 -0.1078
29397W        W35997  18.096   5.036  12.756 -0.1902 -0.1241 -0.1624
29398W        W35998   0.385   1.962  27.286  0.0183 -0.0953 -0.1383
29399W        W35999  23.783   6.209  33.334  0.0066  0.1454  0.4608
29400W        W36000   6.613   2.176  28.554  0.0463 -0.1638 -0.2496
29401W        W36001  14.651   2.209  15.436 -0.2483 -0.2235  0.0343
29402W        W36002  13.292   4.116  36.162  0.1856  0.0512 -0.0781
29403W        W36003  11.110   6.351   1.718  0.1524 -0.3112 -0.0220
29404W        W36004   4.521   2.411   1.309 -0.0668  0.1164  0.2052
29405W        W36005  13.828   4.991  21.472  0.0649  0.0064 -0.2471
29406W        W36006  13.176   0.749  26.426  0.0512  0.0554  0.0536
29407W        W36007  18.713   0.160   8.525 -0.0898  0.0438 -0.2165
29408W        W36008   7.018   1.254  32.530 -0.2088 -0.3225  0.1183
29409W        W36009   3.339   3.665   3.524 -0.4592  0.1669 -0.1182
29410W        W36010   5.233   1.139  20.722 -0.3291  0.1016 -0.0538
29411W        W36011  22.856   3.674  10.176 -0.0641 -0.0594 -0.0727
29412W        W36012   6.814   1.554  28.268  0.0413 -0.1309  0.0744
29413W        W36013   1.114   1.227  15.110  0.2118  0.0545  0.1005
29414W        W36014  10.544   2.503   3.401  0.1711 -0.0125 -0.2351
29415W        W36015  24.838   2.178  29.667  0.2012 -0.1854 -0.0305
29416W        W36016  23.370   3.354  32.182 -0.0341 -0.1258  0.2373
29417W        W36017   2.740   0.560   1.269  0.1506 -0.1393  0.1287
29418W        W36018   6.696   3.642  32.128 -0.0124 -0.3189  0.1681
29419W        W36019  23.466   1.866  30.700 -0.0431 -0.1043  0.2256
29420W        W36020   4.922   3.857  25.169 -0.0635 -0.1864 -0.1142
29421W        W36021  13.747   2.166  31.553  0.1773 -0.0704  0.0848
29422W        W36022  18.501   4.961  20.535  0.1126 -0.1407 -0.2549
29423W        W36023  17.786   6.142  22.576  0.2678 -0.1593  0.0892
29424W        W36024   0.794   1.762  35.290  0.2044  0.0579  0.0620
29425W        W36025  25.664   1.917  22.517 -0.0333 -0.3014 -0.1013
29426W        W36026   9.976   1.412  30.597  0.1211 -0.2636 -0.1623
29427W        W36027  23.420   2.433  14.745 -0.1990 -0.1865  0.2536
29428W        W36028  10.422   5.052  32.320 -0.1177 -0.2474 -0.0703
29429W        W36029  15.034   3.294  29.623 -0.0112 -0.0004 -0.2476
29430W        W36030   5.497   3.718  13.765 -0.0092  0.0198  0.0917
29431W        W36031  11.375   2.693   5.508  0.0818  0.2418 -0.0018
29432W        W36032   8.103   1.813  26.637 -0.0523  0.0819 -0.2639
29433W        W36033  10.454   1.996  33.691  0.0393 -0.0484  0.0428
29434W        W36034  17.457   6.540   7.985  0.0686 -0.1041  0.0009
29435W        W36035  14.968   4.454   4.730 -0.1024 -0.0360 -0.1885
29436W        W36036  15.683   5.964  32.764 -0.1353 -0.1881  0.1711
29437W        W36037  11.108   0.374  27.190  0.0521  0.3740 -0.0168
29438W        W36038  24.312   0.365  35.799 -0.3619 -0.0369 -0.0740
29439W        W36039  26.332   5.639  22.019 -0.1202  0.3631 -0.2584
29440W        W36040   0.368   4.901  29.533 -0.0227 -0.1192  0.0548
29441W        W36041   2.121   0.466  21.757  0.2856 -0.1046  0.3056
29442W        W36042  21.091   2.415  36.026 -0.1674  0.0404 -0.3175
29443W        W36043  23.164   3.205  33.892 -0.0889  0.0451  0.4613
29444W        W36044   9.523   0.645  15.180  0.2298  0.0162 -0.1974
29445W        W36045   1.290   4.334   8.647  0.2010  0.1434 -0.2257
29446W        W36046  18.026   5.064  15.249  0.0540 -0.1013  0.0973
29447W        W36047  20.608   2.543  12.960 -0.0906 -0.1163  0.0179
29448W        W36048   8.211   4.259   0.847  0.0996  0.2050  0.0358
29449W        W36049  21.382   0.642  20.671  0.1414 -0.2402 -0.2336
29450W        W36050   4.278   5.041  24.250  0.4168 -0.1239  0.2438
29451W        W36051  25.960   2.195   4.816 -0.1471  0.2535  0.1322
29452W        W36052   3.391   1.198  21.458  0.0627 -0.1302 -0.2780
29453W        W36053  26.201   5.591  24.538 -0.0486 -0.1508 -0.1709
29454W        W36054   8.024   1.158  35.375  0.2470 -0.0301  0.2347
29455W        W36055  23.100   4.893  34.934  0.2033  0.1098  0.1330
29456W        W36056   6.441   0.978   2.590  0.0075 -0.0772 -0.2253
29457W        W36057  12.991   1.446  24.327  0.1009  0.0124 -0.2185
29458W        W36058  25.076   5.875  30.537 -0.1371  0.1960  0.0319
29459W        W36059   4.735   2.029  24.383 -0.0980  0.0848  0.0892
29460W        W36060   4.264   1.440  35.170  0.2398 -0.1490 -0.0608
29461W        W36061  21.943   0.621  29.395  0.0420  0.3534 -0.0410
29462W        W36062  20.279   5.660   0.986 -0.0655 -0.1806  0.1096
29463W        W36063   9.807   5.585  10.625  0.2629 -0.2380 -0.1247
29464W        W36064  15.563   2.619   8.625  0.0424  0.0294 -0.0421
29465W        W36065  10.981   5.444  11.511  0.0824  0.4954 -0.0519
29466W        W36066  20.462   4.488   6.704  0.0563 -0.0374  0.1349
29467W        W36067  20.049   6.581  29.571 -0.0128 -0.1859  0.1185
29468W        W36068  19.574   5.704  20.576 -0.0096 -0.1151 -0.0697
29469W        W36069   8.255   5.870  30.989 -0.0143  0.0934 -0.0322
29470W        W36070  10.054   6.592  35.146 -0.1687 -0.2594  0.0476
29471W        W36071  23.674   6.391   2.286 -0.1128 -0.0370  0.0964
29472W        W36072  19.521   1.413  28.089  0.0331 -0.2878 -0.4786
29473W        W36073   6.700   5.652  23.225 -0.1599 -0.0094  0.2529
29474W        W36074   6.930   4.622   6.655  0.0731  0.0257  0.0718
29475W        W36075   4.574   1.549  23.373 -0.1096  0.1752 -0.0589
29476W        W36076   9.770   5.326  33.244  0.1444 -0.0239  0.3960
29477W        W36077   7.758   6.473  12.840 -0.3399 -0.0359 -0.0655
29478W        W36078   3.655   5.290  32.449  0.1830 -0.0497  0.1067
29479W        W36079  20.904   5.632   3.588 -0.0651  0.0685 -0.1573
29480W        W36080   3.300   0.686  30.754  0.0440 -0.0014  0.1617
29481W        W36081   3.875   5.110  26.045  0.1324  0.1221  0.1108
29482W        W36082  10.327   1.668   4.219  0.2685  0.0703  0.1087
29483W        W36083   5.276   5.405  13.487  0.0281 -0.0703 -0.0937
29484W        W36084   5.548   5.720   1.981  0.0899  0.1600  0.0570
29485W        W36085  26.274   5.040   8.291  0.2392 -0.1467  0.2919
29486W        W36086  26.200   4.921  13.238  0.3394 -0.0569 -0.1415
29487W        W36087   3.546   3.714   1.884  0.2367  0.1426  0.0575
29488W        W36088  20.894   0.426  12.394 -0.3692  0.0396 -0.0209
29489W        W36089   9.228   5.785  13.583 -0.1654 -0.1398  0.0285
29490W        W36090   9.366   5.464   2.068 -0.1562 -0.0132  0.1136
29491W        W36091  19.591   2.720   4.175  0.0512  0.0727 -0.0010
29492W        W36092   2.057   3.737   5.765  0.1419  0.2504  0.1657
29493W        W36093  23.839   5.937   0.358  0.1089 -0.2788 -0.1891
29494W        W36094  16.418   3.970  10.699  0.0208  0.1494  0.2928
29495W        W36095   7.200   4.438  25.444 -0.1265 -0.0314 -0.1367
29496W        W36096  17.664   4.786  13.357  0.1165 -0.0184 -0.0438
29497W        W36097  25.105   0.635  24.632 -0.0571 -0.1478  0.1814
29498W        W36098  22.191   5.107   7.417  0.1563 -0.2615 -0.0799
29499W        W36099   4.210   0.791  13.407  0.0599  0.0732  0.3402
29500W        W36100  26.303   0.171  24.551  0.1338  0.0173 -0.2457
29501W        W36101  11.068   6.329  21.582  0.1019 -0.0732 -0.0256
29502W        W36102  25.691   3.864   3.816  0.0952  0.2023  0.2981
29503W        W36103   6.793   2.906   4.227  0.1358 -0.0659  0.1410
29504W        W36104   1.408   4.545  14.300 -0.2509  0.1523  0.0819
29505W        W36105   5.276   0.176  11.734 -0.1877  0.1092  0.0864
29506W        W36106  24.609   4.170   7.680  0.1023  0.0000 -0.1129
29507W        W36107  14.942   0.914  33.391 -0.1097 -0.0305  0.1911
29508W        W36108  15.116   1.484  11.915  0.2782 -0.0118 -0.0289
29509W        W36109  22.456   0.385  33.121 -0.1245 -0.1046 -0.0086
29510W        W36110  11.149   4.887  29.662 -0.1951 -0.1591  0.0477
29511W        W36111   8.739   1.858  12.797  0.4155 -0.1495 -0.0295
29512W        W36112  16.161   5.509   2.978  0.0426  0.0406 -0.1119
29513W        W36113  18.444   4.565  26.783 -0.0701  0.1525  0.1593
29514W        W36114   6.211   6.359  13.479 -0.0857 -0.1170 -0.1002
29515W        W36115   3.234   3.302  25.025  0.1619 -0.4222 -0.0099
29516W        W36116   5.567   3.204  24.060  0.2857  0.0379 -0.0924
29517W        W36117  16.249   0.951  31.461  0.0221  0.1021  0.0426
29518W        W36118  18.143   6.061  11.566  0.2608  0.3898 -0.0825
29519W        W36119   4.129   3.349   0.775 -0.0053 -0.1489  0.0516
29520W        W36120   6.934   2.912   9.393 -0.0696 -0.1784  0.3154
29521W        W36121  26.075   5.180  24.798 -0.2749 -0.0441 -0.0848
29522W        W36122   9.080   1.238   8.218 -0.0074 -0.0172 -0.4630
29523W        W36123  10.828   5.859  32.520  0.0389 -0.2274  0.0024
29524W        W36124  16.468   6.117  35.198 -0.0493  0.0826  0.3308
29525W        W36125  24.155   6.223  12.184  0.1307 -0.0794 -0.0484
29526W        W36126  25.377   3.554   9.679 -0.0364  0.1002 -0.0232
29527W        W36127  17.461   2.054  24.475 -0.0991  0.2876 -0.0435
29528W        W36128  20.984   3.825  32.747  0.0329 -0.2339  0.1485
29529W        W36129   5.547   2.261  31.561 -0.2066  0.3458 -0.0898
29530W        W36130  16.745   4.781  14.920  0.2427 -0.3902  0.1131
29531W        W36131   6.654   1.955  12.378  0.1554 -0.2378  0.2558
29532W        W36132  23.733   4.725  31.955 -0.1053 -0.0173  0.1248
29533W        W36133   3.813   3.648  14.804 -0.0401  0.2696 -0.3608
29534W        W36134  15.051   0.343  23.804  0.0989  0.0384  0.0745
29535W        W36135   1.532   3.528  29.855 -0.1964 -0.3976 -0.0543
29536W        W36136  19.119   4.115  31.988 -0.0804  0.0382  0.1487
29537W        W36137  17.745   5.650  25.567  0.2454  0.1890  0.1092
29538W        W36138   8.242   5.559  30.622 -0.2487  0.1942 -0.2137
29539W        W36139   7.785   3.741   7.177  0.1955 -0.1916 -0.1357
29540W        W36140  18.131   4.679  22.944  0.0563  0.2348 -0.0149
29541W        W36141   2.567   4.084  24.016 -0.0111 -0.2783  0.1729
29542W        W36142   5.490   3.895  20.958 -0.2834  0.2037  0.3825
29543W        W36143  13.110   4.748  29.261  0.0496  0.2381  0.2760
29544W        W36144  15.823   4.724  11.606  0.1014  0.2434  0.0129
29545W        W36145  12.583   4.626  25.396  0.0089 -0.0889  0.1625
29546W        W36146  26.258   3.624   3.141  0.3173 -0.0718  0.1259
29547W        W36147  10.403   1.025  23.586  0.2016  0.2597 -0.2034
29548W        W36148  17.861   3.856  23.287 -0.1767  0.1443 -0.1617
29549W        W36149   3.546   0.847  32.469  0.0830  0.2881 -0.1498
29550W        W36150   6.832   4.010  27.825  0.0427  0.0097  0.0371
29551W        W36151   4.496   0.369   5.986 -0.0368 -0.4870  0.1288
29552W        W36152  15.487   1.925   3.925 -0.0400  0.3491  0.2064
29553W        W36153  18.319   3.952  33.364 -0.1834 -0.1135 -0.1394
29554W        W36154   9.650   2.763  15.561 -0.0921 -0.1290 -0.2228
29555W        W36155  26.282   4.799  23.398 -0.1472 -0.2149  0.0436
29556W        W36156   1.707   6.052  30.096  0.0787  0.0139  0.1061
29557W        W36157  23.384   1.052  25.716 -0.4191 -0.0034  0.0161
29558W        W36158  15.066   5.080  32.380 -0.0132  0.1607 -0.2485
29559W        W36159   4.374   0.680   5.607  0.1016 -0.3560  0.0577
29560W        W36160  15.153   2.491   3.248 -0.4509  0.4813 -0.1634
29561W        W36161  26.242   6.017   2.217 -0.1024  0.0372  0.0491
29562W        W36162   2.559   2.221  26.532  0.1971  0.4172  0.1470
29563W        W36163  21.361   1.148  22.460 -0.0692 -0.0481 -0.3236
29564W        W36164  25.487   0.530  13.706 -0.0845 -0.1093  0.0728
29565W        W36165  20.748   3.833  26.577 -0.0047 -0.2420  0.2519
29566W        W36166  20.053   3.646   6.647 -0.0583 -0.1506  0.1655
29567W        W36167  15.577   3.758   6.756 -0.1190 -0.0788 -0.1013
29568W        W36168  11.636   5.547  15.438  0.0439 -0.1936  0.1002
29569W        W36169  24.069   5.901  21.441 -0.1233  0.1348  0.1322
29570W        W36170  12.462   2.868  33.940  0.2064 -0.1887  0.2581
29571W        W36171  17.829   1.622  23.250 -0.1520  0.1655  0.1624
29572W        W36172   4.142   2.748   9.933 -0.0107 -0.1115 -0.0155
29573W        W36173  22.298   5.686   6.652  0.1245  0.1923 -0.2443
29574W        W36174   4.485   0.492  30.135 -0.3037  0.3281  0.0116
29575W        W36175  18.435   6.457  10.326 -0.0827 -0.0617  0.1731
29576W        W36176  25.111   5.515   9.155 -0.4638  0.2931 -0.1603
29577W        W36177  16.426   2.084   4.505  0.0244  0.1191 -0.3216
29578W        W36178  26.210   1.615  11.921 -0.2003  0.1825 -0.0421
29579W        W36179  12.579   3.363  23.125  0.0335 -0.0526 -0.0286
29580W        W36180  24.673   3.716  31.081 -0.1196  0.1126  0.0765
29581W        W36181  21.272   0.096   4.640 -0.1170 -0.1593 -0.1464
29582W        W36182  10.542   4.726  29.383 -0.0844  0.0207 -0.2257
29583W        W36183  25.729   1.742  20.590 -0.0618 -0.0701 -0.1688
29584W        W36184   5.934   1.566   6.213  0.1098  0.1213 -0.0575
29585W        W36185  19.467   4.014   6.826 -0.0115  0.1852  0.3536
29586W        W36186  19.970   3.723  30.619 -0.0259  0.1479 -0.0334
29587W        W36187   7.415   2.820  33.944 -0.2277  0.1628  0.3878
29588W        W36188  26.406   2.914   2.822  0.1632  0.1409  0.2951
29589W        W36189   2.952   6.088  35.688  0.2939  0.0274  0.1771
29590W        W36190  18.794   2.871  24.080  0.1641  0.0815 -0.3140
29591W        W36191  24.016   6.516  32.380 -0.0965 -0.0510 -0.2322
29592W        W36192  10.276   6.091   7.613  0.2011  0.2290  0.0872
29593W        W36193   6.613   6.389  13.847  0.0777  0.0577 -0.1086
29594W        W36194  26.165   6.057  27.592 -0.1068  0.2221  0.0070
29595W        W36195   7.534   5.763  26.639  0.0771 -0.0789  0.0211
29596W        W36196  10.117   2.550  14.717  0.1065 -0.0419  0.0350
29597W        W36197  11.908   5.317  14.553  0.1428 -0.4365  0.2263
29598W        W36198  19.005   3.261  30.984  0.0945 -0.0393  0.2481
29599W        W36199   0.873   1.423  11.319 -0.2271 -0.0040  0.0031
29600W        W36200   2.899   5.243  23.643 -0.2686  0.1788  0.1950
29601W        W36201   6.733   6.607   9.828  0.1043  0.0108  0.1746
29602W        W36202  18.199   0.114   8.277  0.0277 -0.0132  0.2404
29603W        W36203   4.395   1.756   7.586  0.1272  0.1660  0.0148
29604W        W36204  15.033   1.157   5.234  0.0586  0.2217 -0.2857
29605W        W36205   4.615   4.598   3.652 -0.0873 -0.0853  0.0228
29606W        W36206   2.118   0.836  14.417 -0.0284 -0.0864 -0.0742
29607W        W36207  17.991   1.596  35.791  0.0751 -0.0353  0.2461
29608W        W36208   9.531   0.744  31.711  0.2467  0.0791 -0.1001
29609W        W36209   7.353   2.650   4.320  0.3528  0.0391  0.1304
29610W        W36210  24.651   5.862  25.634  0.3575 -0.1311  0.1034
29611W        W36211   0.853   2.668  14.124  0.2287 -0.1820  0.1386
29612W        W36212  21.177   6.340   8.983 -0.2807  0.0979 -0.2521
29613W        W36213  25.694   4.644   3.021 -0.1136  0.2661  0.0677
29614W        W36214   8.225   2.563   0.778  0.0097 -0.1001 -0.1413
29615W        W36215   7.538   4.718  29.631 -0.0670  0.1015  0.0013
29616W        W36216  16.576   6.385   6.329 -0.2764 -0.2156 -0.1639
29617W        W36217  13.882   2.091  33.005 -0.0118  0.2716 -0.0277
29618W        W36218  25.029   0.759   0.775  0.0665 -0.2705  0.0410
29619W        W36219  15.157   5.828   2.276  0.1182  0.0468  0.0819
29620W        W36220  16.623   2.937   3.630  0.2204  0.2889  0.0226
29621W        W36221  22.684   1.029  22.295 -0.1242  0.3335 -0.2000
29622W        W36222   2.991   3.713  21.840 -0.0995  0.0028 -0.0246
29623W        W36223  25.662   6.172   4.890  0.1836 -0.1066 -0.2997
29624W        W36224   8.930   1.500  29.466  0.1525 -0.0479  0.3130
29625W        W36225  18.132   3.706  27.356  0.3307  0.0609 -0.0121
29626W        W36226  10.627   2.384  13.694 -0.0696  0.1513  0.0564
29627W        W36227  25.292   4.815   1.528  0.2248  0.2729  0.1064
29628W        W36228   8.965   2.125   5.599  0.0656  0.1282 -0.0332
29629W        W36229   3.801   4.196  20.732 -0.2417 -0.2299  0.1334
29630W        W36230   5.009   0.804   3.261  0.5404 -0.0398  0.1003
29631W        W36231  23.782   0.859  31.413 -0.0868  0.0679 -0.0937
29632W        W36232  22.851   2.127   6.367 -0.0799 -0.0474 -0.2983
29633W        W36233   7.420   4.253  30.189 -0.1036 -0.1786 -0.0180
29634W        W36234   4.265   5.592   2.647 -0.1739  0.3908 -0.2906
29635W        W36235   3.566   1.754   4.814  0.2411  0.0018  0.1253
29636W        W36236   7.232   3.960  20.662 -0.0822  0.3537  0.1300
29637W        W36237  24.329   3.655  28.121  0.2246  0.0660  0.1663
29638W        W36238  19.390   5.111  23.411 -0.1593 -0.1326 -0.0311
29639W        W36239  26.255   2.753   4.111  0.2700 -0.0004 -0.0636
29640W        W36240   7.954   4.383  27.702  0.2365 -0.1365  0.0068
29641W        W36241  21.526   1.273  29.877 -0.0822 -0.0102 -0.1782
29642W        W36242   5.109   4.359  27.960 -0.0294 -0.0771 -0.1335
29643W        W36243   3.316   5.254  20.857 -0.2009  0.0194 -0.1766
29644W        W36244  26.226   1.009   9.858 -0.1028  0.1744 -0.0604
29645W        W36245   6.350   5.741  25.852 -0.0032  0.0457 -0.0629
29646W        W36246  21.701   0.929  24.518 -0.2886  0.1491 -0.1289
29647W        W36247   6.612   3.633  35.807  0.2718 -0.1862  0.0614
29648W        W36248  26.179   1.577  27.245  0.0348 -0.1139 -0.4150
29649W        W36249  18.262   6.082  27.990  0.1744 -0.0494  0.0222
29650W        W36250  19.208   2.065  31.799 -0.0002  0.2115  0.0719
29651W        W36251  19.779   3.233  21.632 -0.3702  0.2193  0.0037
29652W        W36252   9.075   1.227  21.455  0.0258  0.1271 -0.0160
29653W        W36253  23.289   2.055   7.985 -0.3720 -0.0336 -0.0017
29654W        W36254  24.212   5.003  20.981  0.0414 -0.3911  0.0571
29655W        W36255   5.377   1.227  32.872  0.0963  0.2361 -0.2877
29656W        W36256  15.615   5.130  27.680  0.1454 -0.0734 -0.0085
29657W        W36257  22.325   0.890   5.050 -0.1190  0.1651  0.2274
29658W        W36258   9.918   5.873  10.189 -0.0817 -0.1224  0.0652
29659W        W36259  11.106   1.468  27.707  0.2647  0.2402  0.1332
29660W        W36260  22.333   5.661  21.549 -0.1311 -0.3921  0.1923
29661W        W36261  22.842   5.975  32.177 -0.1802  0.0348 -0.0867
29662W        W36262   0.403   1.422  14.473  0.0949  0.0204 -0.3483
29663W        W36263  23.927   4.055  15.686  0.1076  0.2399 -0.0208
29664W        W36264   4.665   5.907   3.025  0.1619  0.1779  0.2344
29665W        W36265   5.729   3.128   3.575  0.3077  0.1668  0.1048
29666W        W36266  24.639   5.565   6.046 -0.3223  0.1040  0.0859
29667W        W36267  20.237   0.592  12.829  0.0127  0.1522  0.1996
29668W        W36268   5.682   3.687   4.983  0.1221 -0.0232  0.0611
29669W        W36269  14.071   3.990  13.740  0.2205 -0.2077 -0.0843
29670W        W36270  23.830   1.318  23.947  0.1744 -0.2130  0.0512
29671W        W36271  22.270   5.123  28.103  0.1667 -0.3428  0.0524
29672W        W36272  10.057   1.645  33.438 -0.2129 -0.2438  0.1903
29673W        W36273   9.369   5.275  34.410  0.0719  0.5015  0.1543
29674W        W36274  12.869   4.830   8.656 -0.0932  0.0225  0.1701
29675W        W36275  12.059   4.948  12.120 -0.2657  0.1776  0.0421
29676W        W36276  10.114   1.018  14.663 -0.1513  0.1744  0.0880
29677W        W36277   0.195   0.835  33.861 -0.3078  0.1823 -0.0284
29678W        W36278   8.276   3.248   0.729  0.0974 -0.1550  0.2207
29679W        W36279   6.010   2.401   5.294  0.1358  0.1007  0.0161
29680W        W36280   3.001   1.465  29.166 -0.2111  0.3501 -0.1599
29681W        W36281   7.755   0.402  35.033 -0.0877  0.0838 -0.1604
29682W        W36282  15.046   0.129  13.452 -0.1335 -0.1051 -0.0667
29683W        W36283  19.805   0.475  30.195 -0.0429  0.0625 -0.3812
29684W        W36284  19.371   2.906   7.597  0.3063 -0.1091 -0.0055
29685W        W36285  23.638   5.793  32.368 -0.1015  0.1634 -0.0257
29686W        W36286  25.899   2.309  26.070  0.0478 -0.0265 -0.1542
29687W        W36287   5.167   0.366  26.383  0.2074  0.2375 -0.2495
29688W        W36288   6.868   2.147  24.959 -0.0787 -0.0825 -0.0464
29689W        W36289  13.802   3.363   1.599 -0.1262  0.0964  0.1032
29690W        W36290   6.506   2.400  22.133  0.3505  0.1409  0.0509
29691W        W36291  15.812   4.031   4.616  0.2699 -0.2020  0.1396
29692W        W36292  17.134   6.603  27.915  0.1022 -0.1734 -0.1403
29693W        W36293  10.044   2.461   4.050 -0.1373 -0.0657  0.0171
29694W        W36294   2.140   0.179   0.927  0.4240  0.0006 -0.1282
29695W        W36295   0.028   5.134  29.824  0.1530 -0.0906 -0.0083
29696W        W36296  10.476   2.070  10.828  0.0056 -0.4070  0.4145
29697W        W36297  10.212   0.570  11.063  0.1167  0.0871  0.2425
29698W        W36298   1.816   5.336  33.936 -0.1271  0.0707 -0.3849
29699W        W36299  13.741   5.308  31.054  0.0144 -0.0544  0.1288
29700W        W36300  19.740   5.597   4.886  0.0517 -0.0843 -0.1158
29701W        W36301   6.443   0.877   8.162  0.1260 -0.0354  0.0879
29702W        W36302  14.119   3.313  15.712 -0.0371 -0.0334 -0.1303
29703W        W36303  22.626   5.216   6.854 -0.4451 -0.1183 -0.2350
29704W        W36304  19.804   2.775   3.520  0.1309 -0.3863  0.1065
29705W        W36305  16.606   4.995  31.283 -0.0773  0.0362 -0.1845
29706W        W36306  10.761   2.716  28.492  0.1687  0.2737 -0.1609
29707W        W36307  19.137   5.471  27.561 -0.2175  0.1782 -0.0396
29708W        W36308  16.394   4.257  34.717  0.0899 -0.2300  0.2436
29709W        W36309   7.980   0.085  13.268  0.0532  0.2118  0.1921
29710W        W36310   9.116   1.870  26.599 -0.0384  0.2236  0.2845
29711W        W36311  10.531   0.141  26.693  0.0072  0.0647  0.0344
29712W        W36312  23.870   4.438  25.853  0.1557 -0.3586  0.0356
29713W        W36313  24.073   6.191  26.667 -0.0872  0.3704  0.1181
29714W        W36314   2.545   0.327  12.353  0.0933  0.0176 -0.1622
29715W        W36315  13.562   6.209   6.185 -0.0080 -0.2434  0.1295
29716W        W36316   5.687   4.338  22.149  0.0185 -0.0800 -0.2024
29717W        W36317  17.576   1.884   3.650 -0.0841 -0.1286  0.0799
29718W        W36318   6.306   4.988  15.363  0.0478  0.3482  0.1757
29719W        W36319  22.566   2.609  10.764 -0.1786  0.0110  0.1112
29720W        W36320  17.246   1.282   9.263  0.0634 -0.2256  0.1447
29721W        W36321   7.108   4.451  35.424 -0.0829  0.0177 -0.0509
29722W        W36322   4.619   2.430   4.875 -0.2311 -0.0081 -0.0638
29723W        W36323  15.550   2.600  23.079  0.2047 -0.1271  0.0522
29724W        W36324   2.307   1.669   0.260  0.1608  0.0557  0.1483
29725W        W36325   1.615   6.425  21.959  0.1952 -0.2750 -0.1144
29726W        W36326  25.186   0.324  10.847  0.0498 -0.0260  0.1286
29727W        W36327  26.361   0.380   8.224  0.0210 -0.0278  0.0442
29728W        W36328  15.179   2.470   6.648  0.2286  0.1991 -0.3337
29729W        W36329  25.319   1.113   4.667 -0.2274 -0.2887  0.1274
29730W        W36330   1.446   1.260  14.200 -0.2353  0.0400  0.0414
29731W        W36331  17.239   6.511  33.789 -0.2474 -0.1751  0.6351
29732W        W36332  20.476   0.302   4.246  0.0966  0.2526 -0.3386
29733W        W36333  23.277   0.274   5.772  0.1615  0.0887 -0.0431
29734W        W36334  20.093   3.966   8.105 -0.2658 -0.0202  0.2644
29735W        W36335  23.332   4.525  32.204  0.1257  0.0908  0.1794
29736W        W36336  15.961   5.861  25.891 -0.1967 -0.0039  0.0768
29737W        W36337  22.161   0.277   8.230  0.2626 -0.2288  0.2365
29738W        W36338  25.201   6.427  25.912  0.2106  0.1738  0.1869
29739W        W36339  14.569   2.876  14.854 -0.2274  0.0972  0.1451
29740W        W36340  23.631   0.469  21.446 -0.2007 -0.0614  0.1445
29741W        W36341  24.310   5.547  24.389  0.1995 -0.0757 -0.0899
29742W        W36342  16.432   2.527  22.772 -0.1626  0.1117  0.1315
29743W        W36343   2.408   2.119  12.311  0.2030  0.0518 -0.1202
29744W        W36344  19.432   2.563  28.556  0.0296  0.1428 -0.2332
29745W        W36345   9.947   0.611   9.692  0.1234 -0.0428  0.0431
29746W        W36346  20.855   0.102  27.262 -0.1112 -0.1591  0.2858
29747W        W36347  13.063   4.010   3.477  0.2340  0.0114 -0.0513
29748W        W36348  24.731   4.921   6.762 -0.2130 -0.2471 -0.1013
29749W        W36349  17.786   0.727   9.872  0.0369  0.1515 -0.0459
29750W        W36350   5.585   4.256  28.029 -0.0818 -0.3318  0.2676
29751W        W36351  11.556   6.447  26.533 -0.1336 -0.0567 -0.1732
29752W        W36352  21.487   5.838  32.349  0.1018  0.0240  0.2005
29753W        W36353  16.400   6.276  28.793  0.1018 -0.1082 -0.2672
29754W        W36354   7.633   4.905  22.406  0.0271  0.1643  0.0768
29755W        W36355  18.998   6.561  23.020  0.1133 -0.0006 -0.0984
29756W        W36356  15.238   5.800   7.871  0.0184  0.1839 -0.1880
29757W        W36357  10.351   5.989  12.245 -0.0663 -0.0707  0.2417
29758W        W36358  23.698   2.474  27.174  0.1838 -0.0557 -0.0129
29759W        W36359  15.145   0.586   5.329  0.2982  0.1747  0.1432
29760W        W36360  21.680   5.251   2.892 -0.2440 -0.0589  0.4100
29761W        W36361   1.018   4.008  32.517  0.2099 -0.0729  0.1858
29762W        W36362   7.091   1.910  28.568  0.2444 -0.0088 -0.0171
29763W        W36363   6.915   2.094   6.357 -0.0153 -0.3730  0.0508
29764W        W36364   7.694   3.462  10.028  0.1674 -0.0026  0.0640
29765W        W36365   8.535   3.123  23.875  0.0067 -0.1244  0.1049
29766W        W36366  20.916   2.686  35.288 -0.0703  0.1492  0.0486
29767W        W36367  19.010   4.033  14.750 -0.1184  0.2440  0.0223
29768W        W36368  25.751   1.540  32.845  0.0755 -0.0777 -0.0380
29769W        W36369   0.340   3.229  26.455 -0.1061 -0.0512 -0.3527
29770W        W36370   3.062   1.636  23.451  0.1892 -0.3279  0.0176
29771W        W36371  22.339   5.116  36.087 -0.6551 -0.1960  0.2118
29772W        W36372  14.242   1.195  27.253  0.2722 -0.1867 -0.1241
29773W        W36373  11.075   3.202  33.952  0.1478  0.0073  0.0638
29774W        W36374  26.028   6.304   1.821  0.0017  0.0148  0.0295
29775W        W36375  21.232   4.672  31.424  0.2342  0.0086 -0.3726
29776W        W36376  17.470   5.792  10.796  0.2910 -0.1611 -0.2942
29777W        W36377   1.125   0.124  26.785  0.0782 -0.1273 -0.4752
29778W        W36378   4.735   0.430  26.263 -0.0140  0.1947  0.2871
29779W        W36379   8.330   0.008  24.940 -0.0272  0.0325 -0.0562
29780W        W36380   5.973   5.002  14.724  0.0283  0.0965 -0.2157
29781W        W36381  11.796   2.146   7.157 -0.0332  0.1613 -0.2345
29782W        W36382  24.861   6.303  19.537 -0.0351 -0.1302  0.1677
29783W        W36383  14.990   2.531  11.911 -0.2481  0.1687 -0.0919
29784W        W36384  17.453   0.544  31.582  0.0778 -0.0719 -0.1041
29785W        W36385  15.933   0.496   7.745  0.2432 -0.0461  0.0672
29786W        W36386   7.403   0.458  33.570  0.3532 -0.3949 -0.0962
29787W        W36387   3.640   3.867  29.902  0.0707  0.1034  0.2373
29788W        W36388   0.917   3.304   4.714 -0.0504 -0.0184  0.0632
29789W        W36389  20.447   3.745   7.662  0.0867  0.2200  0.0904
29790W        W36390  19.776   4.695  32.685 -0.4475 -0.0793  0.0831
29791W        W36391  15.474   1.369   5.162 -0.0740 -0.0345 -0.1473
29792W        W36392  18.351   5.930   7.048 -0.1491 -0.1984  0.3436
29793W        W36393  16.655   3.162  33.782  0.1447 -0.2675 -0.0284
29794W        W36394  13.959   2.061  10.942  0.3051  0.0215  0.0284
29795W        W36395  10.413   3.397   3.882  0.2347 -0.1721 -0.2997
29796W        W36396  21.808   6.298   5.199 -0.2364  0.0858  0.1792
29797W        W36397  24.126   0.828  21.234 -0.2075  0.0625  0.1242
29798W        W36398   1.011   6.459  35.887  0.3935 -0.0075  0.2134
29799W        W36399  11.756   0.469   3.231 -0.2397 -0.1209  0.1763
29800W        W36400   1.232   1.521  27.937  0.1363 -0.0810  0.0999
29801W        W36401  22.495   4.670  27.850  0.0296 -0.0250 -0.1074
29802W        W36402  22.766   5.124  27.706 -0.2030  0.1218 -0.0911
29803W        W36403  19.266   5.969  28.594  0.1463 -0.0200  0.1205
29804W        W36404  18.076   0.775  12.703  0.1051  0.2379 -0.0232
29805W        W36405  21.527   2.301  34.965 -0.0703 -0.0248 -0.0538
29806W        W36406   3.145   0.120  14.107  0.0676  0.1749 -0.0522
29807W        W36407  25.977   3.801  32.907  0.1610 -0.0947 -0.1841
29808W        W36408   9.928   4.483  15.229  0.0068 -0.1653  0.2998
29809W        W36409  20.074   4.519  30.943 -0.1573 -0.0397 -0.1410
29810W        W36410   2.856   0.962  35.466 -0.0922 -0.3035 -0.2484
29811W        W36411  14.027   2.639   4.942 -0.0594 -0.0259  0.0490
29812W        W36412   8.045   5.810  33.864  0.3933 -0.0288  0.0468
29813W        W36413  22.563   4.156   4.933 -0.0425 -0.0614 -0.3576
29814W        W36414   9.923   6.111  23.700 -0.3333  0.2084  0.1862
29815W        W36415   3.664   4.068  24.566  0.0065 -0.1183 -0.0661
29816W        W36416   4.182   0.816  21.892  0.2943 -0.0642  0.1276
29817W        W36417  23.453   5.233  34.565  0.0140  0.1796 -0.3486
29818W        W36418  12.751   5.661  10.788  0.0162 -0.0199 -0.0423
29819W        W36419   5.380   0.470  25.434  0.1131 -0.3367 -0.0429
29820W        W36420   5.142   0.317  24.018  0.0069  0.3672  0.0928
29821W        W36421   4.899   5.923  29.312  0.2275  0.2057  0.0737
29822W        W36422  25.751   0.914   6.759  0.3825  0.3352  0.2752
29823W        W36423   8.533   1.030  24.658  0.0187  0.2009  0.0131
29824W        W36424  25.334   6.046  27.217  0.1204 -0.1384 -0.0485
29825W        W36425   5.089   1.886  11.009  0.3114  0.1519  0.5453
29826W        W36426   2.135   1.959  28.206 -0.1688  0.0444 -0.1607
29827W        W36427   7.359   2.932  32.705 -0.2600  0.1845  0.1703
29828W        W36428  14.783   1.894  34.719  0.0005 -0.1275  0.2786
29829W        W36429  10.536   3.154  33.908  0.0270  0.1922 -0.0383
29830W        W36430  18.323   6.274  24.666 -0.0601  0.0227  0.0821
29831W        W36431  19.632   3.268  36.056  0.1091 -0.1574 -0.1644
29832W        W36432   5.168   6.530  30.329  0.1738 -0.0372 -0.0402
29833W        W36433  16.235   5.376  10.837  0.1949  0.0566 -0.2428
29834W        W36434  16.269   4.800   5.506 -0.4110 -0.1328  0.0967
29835W        W36435  15.056   3.524  34.393 -0.1817  0.1016  0.2164
29836W        W36436  24.508   6.489   3.503 -0.2790  0.4285  0.1429
29837W        W36437   6.104   2.825  26.058 -0.1563 -0.1759 -0.1860
29838W        W36438   0.070   1.550  25.498 -0.1046 -0.1251 -0.2815
29839W        W36439   1.629   3.783  21.668  0.1347  0.1886 -0.1961
29840W        W36440  22.130   0.812  26.899 -0.0229 -0.0372  0.1760
29841W        W36441  12.027   4.423   8.855  0.1499  0.1358 -0.1374
29842W        W36442  22.242   5.616   3.373 -0.3431 -0.3129  0.2521
29843W        W36443  16.741   2.407  34.455 -0.0665  0.0437 -0.2819
29844W        W36444   7.511   0.287   2.497 -0.0024 -0.0990  0.0955
29845W        W36445  24.461   0.383   9.772  0.3972 -0.1185 -0.0218
29846W        W36446  11.025   5.658   5.419 -0.0948  0.0593  0.2968
29847W        W36447  25.719   2.210  15.076  0.1366 -0.0041  0.2003
29848W        W36448   7.918   0.617  29.643  0.3017 -0.1500 -0.1736
29849W        W36449  14.664   4.656   1.009  0.0808  0.1036  0.0723
29850W        W36450  18.015   2.997  12.665  0.3388 -0.0562 -0.4041
29851W        W36451  20.010   4.996   2.565 -0.2048 -0.0053  0.1956
29852W        W36452  21.342   6.024  13.807  0.1410 -0.0705 -0.0098
29853W        W36453   1.388   6.361  29.680  0.2888  0.4263  0.1404
29854W        W36454   8.031   3.264   6.260  0.2573 -0.1541 -0.2694
29855W        W36455  11.409   1.280   2.011 -0.1673 -0.0794  0.1487
29856W        W36456  12.111   1.609  25.983 -0.2050  0.0182  0.1815
29857W        W36457   6.704   3.664   8.387  0.7618 -0.0292  0.3854
29858W        W36458  11.781   0.749  26.817 -0.0666 -0.1793 -0.1267
29859W        W36459  16.110   3.094  35.534 -0.0780  0.2561 -0.2211
29860W        W36460  21.065   2.552   7.727 -0.0911  0.4245 -0.3203
29861W        W36461  10.223   6.355  28.965  0.1313 -0.1744 -0.3176
29862W        W36462  17.508   4.634  11.362  0.1077  0.0658 -0.0347
29863W        W36463  24.594   4.381   0.419  0.0600 -0.2808  0.3733
29864W        W36464   0.388   2.786  26.132 -0.1345  0.1108  0.0188
29865W        W36465  10.048   1.779  31.313 -0.0799  0.0532 -0.1631
29866W        W36466   5.624   1.177   6.106 -0.0374 -0.0755 -0.1736
29867W        W36467  10.147   4.767  14.382  0.1269  0.3472  0.2240
29868W        W36468   2.817   1.086   9.547  0.4400 -0.2672  0.1835
29869W        W36469  19.783   5.660   9.893 -0.0019  0.4650  0.1140
29870W        W36470  11.418   0.719   5.675 -0.0384 -0.1031 -0.2937
29871W        W36471   0.096   3.259  33.180  0.1934  0.1008 -0.0139
29872W        W36472   2.679   3.686  33.550  0.0088 -0.3385  0.2866
29873W        W36473   7.763   5.988  31.857  0.0016  0.0106 -0.0120
29874W        W36474   7.190   3.675  10.154  0.0102  0.0795  0.0238
29875W        W36475   7.094   3.721  36.022 -0.1140  0.1764 -0.0933
29876W        W36476  19.832   0.151   6.849 -0.2198 -0.2714  0.0376
29877W        W36477   1.424   2.793   0.517 -0.0165 -0.1703 -0.0436
29878W        W36478   2.943   6.245  23.608 -0.1760 -0.0807 -0.0142
29879W        W36479  23.494   5.762   6.692 -0.2750  0.0543  0.0785
29880W        W36480  24.022   3.240  24.298  0.0148 -0.0551 -0.1141
29881W        W36481  14.688   0.532   2.429 -0.0471  0.2925  0.1786
29882W        W36482   2.989   1.515  22.141  0.2443 -0.1384 -0.2310
29883W        W36483   6.870   2.248  27.608  0.0399  0.0495 -0.0120
29884W        W36484   3.699   3.025  27.248  0.2577  0.2480 -0.2497
29885W        W36485  14.065   0.020  24.120  0.3427 -0.0014  0.1718
29886W        W36486  11.031   0.352   9.871 -0.2020 -0.3180  0.2529
29887W        W36487   5.293   6.607  22.559 -0.1483 -0.1882  0.1172
29888W        W36488   5.732   3.759   1.005 -0.2452 -0.2112  0.0908
29889W        W36489   4.205   1.355  34.096 -0.2534  0.1847 -0.0902
29890W        W36490   9.329   3.588  22.662  0.0353  0.1078 -0.0395
29891W        W36491   5.803   1.586  35.514 -0.0636  0.0959 -0.1255
29892W        W36492  12.329   2.435  14.029  0.0144 -0.1736  0.1760
29893W        W36493   5.116   3.850  12.157  0.3874  0.0714 -0.3235
29894W        W36494  21.558   1.392  21.280 -0.1452 -0.0320 -0.0214
29895W        W36495  21.653   4.055  20.762  0.0212 -0.2474  0.0241
29896W        W36496   3.465   3.233   8.561 -0.1969 -0.0132  0.1602
29897W        W36497  20.602   5.634  35.816 -0.1955 -0.2656 -0.0346
29898W        W36498  18.833   0.163  34.974  0.0643 -0.0815 -0.0634
29899W        W36499  12.000   1.263  24.349 -0.0529  0.1267 -0.1380
29900W        W36500  22.373   0.534   6.794  0.1124 -0.1094 -0.1054
29901W        W36501  17.150   4.354   0.980  0.2301 -0.2143  0.0427
29902W        W36502  21.296   0.700  13.805 -0.1999  0.1476  0.1222
29903W        W36503   7.751   6.226  14.781  0.1072 -0.0895  0.4355
29904W        W36504  10.479   4.941  28.526  0.1577  0.2739 -0.3580
29905W        W36505   0.958   1.200   7.732 -0.1475 -0.0343 -0.0449
29906W        W36506  18.097   2.290  13.591 -0.0204  0.1636  0.1480
29907W        W36507   7.360   6.524  21.094  0.1920  0.0622  0.2865
29908W        W36508  11.583   5.030  23.722 -0.0294 -0.0608 -0.2653
29909W        W36509  19.973   4.760   6.537 -0.1787 -0.0951 -0.0333
29910W        W36510  19.771   2.429  27.127 -0.2338  0.0822 -0.2183
29911W        W36511  12.018   4.444   4.989  0.0542  0.0862  0.3573
29912W        W36512  20.963   3.405   0.758 -0.0498  0.1330 -0.2387
29913W        W36513  17.034   1.556   0.879 -0.0943 -0.0564  0.1166
29914W        W36514   9.110   6.253  25.712 -0.1606  0.0183 -0.2415
29915W        W36515   8.881   6.489  34.460 -0.0489  0.0491  0.1416
29916W        W36516  13.182   4.350   6.655 -0.3033  0.1408 -0.3098
29917W        W36517  24.215   0.688  28.255  0.1706 -0.1294 -0.2306
29918W        W36518  15.848   0.534   3.894  0.1307  0.1255  0.1919
29919W        W36519   4.602   4.371  23.668 -0.0908 -0.3253 -0.2224
29920W        W36520  10.504   5.888   2.410  0.1333  0.0735 -0.0643
29921W        W36521   7.757   0.834  33.467  0.0072  0.0510  0.0989
29922W        W36522  14.415   6.154  10.323  0.0216 -0.2738 -0.0480
29923W        W36523  17.456   0.121   6.644 -0.1057 -0.1106 -0.1383
29924W        W36524  23.092   2.757  10.892  0.2155 -0.0343 -0.2945
29925W        W36525   8.336   3.370   8.796 -0.1897 -0.0310 -0.1529
29926W        W36526   3.500   4.166  27.871 -0.0934 -0.1073 -0.0274
29927W        W36527   8.335   3.343   5.893 -0.1957 -0.0487 -0.0246
29928W        W36528  21.796   2.557  33.156  0.2186 -0.3215 -0.3262
29929W        W36529   1.379   2.242  28.294  0.2829 -0.2853 -0.1218
29930W        W36530   3.841   4.623  35.708  0.0500 -0.0974  0.1352
29931W        W36531  19.533   0.461   8.100 -0.1011  0.1319  0.2093
29932W        W36532   7.660   1.970   3.038  0.1200 -0.0122  0.0597
29933W        W36533  23.783   3.819  33.906  0.0296 -0.1969 -0.3791
29934W        W36534  16.980   1.698  26.144 -0.0684 -0.0531  0.3164
29935W        W36535   6.915   3.379  29.983 -0.0735  0.0446 -0.0471
29936W        W36536  25.963   1.551  34.601 -0.0161  0.5986 -0.0861
29937W        W36537  22.179   0.116   8.659  0.0427 -0.2008 -0.1479
29938W        W36538  15.807   0.495   3.097 -0.0136  0.0295 -0.1720
29939W        W36539   7.327   2.845  10.315 -0.2501 -0.2194 -0.3803
29940W        W36540  23.034   4.821  26.743 -0.0892  0.3416 -0.1214
29941W        W36541  18.738   2.223  29.332  0.0746 -0.0884  0.0990
29942W        W36542   0.901   3.125  27.757 -0.2277  0.0689  0.2346
29943W        W36543   0.982   5.375   0.433 -0.0932  0.0959 -0.0313
29944W        W36544   9.663   5.266  26.587  0.2244 -0.0377  0.0190
29945W        W36545  18.098   1.545  23.640 -0.1888  0.4195 -0.0144
29946W        W36546   6.682   5.386  28.179  0.1500 -0.1823  0.0215
29947W        W36547  18.812   5.882  11.110 -0.2641  0.0714  0.0841
29948W        W36548   5.187   6.444   8.917 -0.3346 -0.2964  0.3149
29949W        W36549  14.718   4.880   6.929  0.1094 -0.2814  0.1464
29950W        W36550  15.215   3.858   1.934 -0.2901 -0.1334  0.1124
29951W        W36551   5.415   4.903  31.189  0.0834  0.0960 -0.1192
29952W        W36552  18.213   3.902   2.327  0.0103 -0.2202 -0.3229
29953W        W36553  10.638   2.711  22.799  0.2364 -0.0259  0.0008
29954W        W36554   6.564   2.854   7.113 -0.1394  0.2026 -0.1826
29955W        W36555  11.540   4.144  11.637  0.4778 -0.0602  0.0806
29956W        W36556   2.432   0.013  27.786 -0.0470  0.0320  0.1962
29957W        W36557  13.265   1.566  12.182 -0.0031  0.1399 -0.1277
29958W        W36558   4.898   0.612  32.864  0.1595  0.3063  0.0556
29959W        W36559  22.666   5.404  29.445  0.1220  0.0048  0.0034
29960W        W36560  25.831   4.275  10.340  0.0509 -0.0809 -0.2859
29961W        W36561  11.443   6.551   5.245 -0.1073 -0.0753 -0.0933
29962W        W36562   1.442   4.730   2.445  0.1723 -0.0777  0.1086
29963W        W36563  15.083   4.530   5.494 -0.0984  0.1465  0.2745
29964W        W36564  10.011   2.713   7.113  0.0543  0.0153  0.0655
29965W        W36565   6.289   6.164   4.405  0.1815 -0.2120  0.1828
29966W        W36566   5.255   6.022  13.833 -0.3459 -0.1930 -0.0178
29967W        W36567  20.677   3.505   1.673 -0.1528 -0.1385  0.0045
29968W        W36568   1.245   3.697  32.242  0.0402  0.0643 -0.1702
29969W        W36569  19.274   4.686  32.735 -0.1390 -0.0881 -0.1681
29970W        W36570  16.724   2.145   1.565 -0.1937 -0.1028 -0.2187
29971W        W36571  12.560   4.010   3.767 -0.2345  0.2135 -0.1476
29972W        W36572  19.775   1.824  27.356 -0.2200  0.0001  0.1971
29973W        W36573  22.523   6.020  35.716 -0.0107 -0.0229 -0.3219
29974W        W36574  19.741   0.874   9.119 -0.0108 -0.3725 -0.1276
29975W        W36575   9.371   0.350  20.943 -0.0172 -0.1612  0.0987
29976W        W36576   1.794   3.496   4.950 -0.3558 -0.0252 -0.2561
29977W        W36577  12.805   6.011  31.918 -0.2238 -0.3590  0.1952
29978W        W36578  20.487   1.540  15.025  0.0182  0.1702 -0.3212
29979W        W36579   6.936   4.054   3.080 -0.2552 -0.1883 -0.2085
29980W        W36580   4.369   1.818   5.902  0.2443  0.0663 -0.1185
29981W        W36581   2.229   3.536   0.991  0.1364 -0.1384 -0.1116
29982W        W36582   6.795   6.024  11.188  0.0393 -0.0720 -0.3088
29983W        W36583   6.681   5.276  34.868  0.1267 -0.0108 -0.1896
29984W        W36584  21.922   2.408   4.729 -0.0356 -0.0686 -0.0621
29985W        W36585  24.259   5.738  34.905  0.0726  0.0132 -0.2692
29986W        W36586  19.381   0.185   6.618  0.0236  0.1257 -0.2794
29987W        W36587   2.835   1.662  27.699  0.0878  0.0094  0.5285
29988W        W36588  19.363   6.555   1.269 -0.2073 -0.1954  0.0359
29989W        W36589   4.694   5.928  31.057  0.0127  0.0306  0.2445
29990W        W36590  20.527   6.302  32.509  0.0052  0.5484  0.1180
29991W        W36591  20.301   2.484  20.379  0.1747  0.2217 -0.0121
29992W        W36592  11.708   3.506  24.366 -0.0719  0.2229  0.0781
29993W        W36593  19.264   1.467   6.973 -0.0430 -0.1869 -0.0106
29994W        W36594  17.267   0.901  31.201  0.0697  0.2503  0.0070
29995W        W36595  25.421   1.178  11.525  0.0184  0.0049  0.2851
29996W        W36596  21.988   0.196  28.555 -0.1193 -0.3449  0.3565
29997W        W36597   3.268   3.415  31.888  0.0778 -0.1259  0.0908
29998W        W36598   6.435   3.564  34.698  0.3177  0.2510  0.1042
29999W        W36599  14.897   5.969  23.878 -0.0649 -0.1551 -0.0468
30000W        W36600   3.646   0.348  24.861 -0.0463 -0.0769  0.0211
30001W        W36601   3.984   3.820   6.963  0.0086 -0.2320  0.0399
30002W        W36602  10.345   0.461  10.001  0.3873 -0.0897  0.0596
30003W        W36603   5.612   5.096   5.545 -0.1889 -0.3542 -0.0450
30004W        W36604  13.390   0.789  28.994  0.3333  0.0339 -0.0704
30005W        W36605  10.868   2.371   8.565 -0.0125  0.0932 -0.0165
30006W        W36606  14.865   5.060  26.842 -0.0481 -0.1125 -0.2964
30007W        W36607  12.518   1.998   5.605 -0.1540 -0.0093 -0.2158
30008W        W36608  10.717   6.504  31.467 -0.0982 -0.0633 -0.0504
30009W        W36609  23.112   5.216   6.602 -0.3598 -0.3979 -0.2927
30010W        W36610  20.875   0.962  24.677 -0.3035  0.3588 -0.0756
30011W        W36611   2.343   1.983  31.676 -0.1444  0.1043 -0.0043
30012W        W36612  20.475   3.290  11.660 -0.2681  0.3469 -0.0901
30013W        W36613  25.489   3.981  21.010  0.1271  0.1048 -0.3198
30014W        W36614   1.990   0.506  24.627  0.1566 -0.2056 -0.0672
30015W        W36615   7.106   1.518  14.981  0.3010 -0.3293 -0.1185
30016W        W36616  19.308   5.463  21.422  0.1256 -0.1147 -0.4707
30017W        W36617  20.697   0.579  25.906  0.1293  0.3341 -0.0192
30018W        W36618   2.334   5.358   6.827  0.0785 -0.1444  0.0648
30019W        W36619   0.975   3.179  15.867 -0.0341 -0.3203 -0.1824
30020W        W36620  13.839   0.549  33.868 -0.1705 -0.3359 -0.0186
30021W        W36621   2.308   4.330  10.673  0.0935 -0.3292 -0.1317
30022W        W36622   7.942   1.133   6.827 -0.0585  0.0114  0.0385
30023W        W36623  12.651   0.645  14.578 -0.1799  0.1101 -0.0951
30024W        W36624  12.927   4.379   3.944  0.0757 -0.0908 -0.3128
30025W        W36625  20.653   2.305  10.726  0.0526 -0.0505  0.0139
30026W        W36626   3.522   5.261  11.872  0.2742  0.1613 -0.1743
30027W        W36627  24.483   0.255  10.750 -0.0185 -0.0913  0.4731
30028W        W36628  14.073   6.354  21.582 -0.1113 -0.1476  0.1670
30029W        W36629  24.342   3.749  34.904 -0.0414 -0.0105 -0.0037
30030W        W36630   4.884   0.736  25.874  0.0701  0.3051 -0.1239
30031W        W36631  16.547   6.434  14.649 -0.0417 -0.1921 -0.2481
30032W        W36632   0.499   1.545   9.984  0.1742 -0.2398 -0.2333
30033W        W36633  12.931   1.051  23.128  0.0258 -0.3313 -0.1006
30034W        W36634  19.953   0.495  22.697 -0.1334 -0.4862  0.1670
30035W        W36635  21.870   1.426  26.128 -0.0075  0.0368 -0.1937
30036W        W36636  12.858   4.465  13.102  0.1188 -0.2055 -0.1315
30037W        W36637   6.788   0.342  31.970  0.0664 -0.0722  0.0437
30038W        W36638  25.626   3.135  27.969 -0.3490  0.2276  0.1836
30039W        W36639   2.906   5.655   9.586 -0.0533 -0.1291 -0.1308
30040W        W36640  17.543   3.397  32.662  0.2163  0.0081 -0.1030
30041W        W36641  16.074   1.143  20.870  0.0821  0.0756  0.0789
30042W        W36642  18.078   0.022   5.079  0.1029  0.0781 -0.0141
30043W        W36643  22.503   1.817  15.631 -0.0712  0.0764  0.1678
30044W        W36644   0.969   6.570  22.510  0.2988 -0.0469  0.1307
30045W        W36645  11.670   3.859  34.236  0.0484  0.0848 -0.1594
30046W        W36646  13.901   3.788   0.750 -0.2457 -0.0173  0.3537
30047W        W36647  25.701   5.638   0.326 -0.0036 -0.0759  0.0810
30048W        W36648   3.757   3.130  14.355 -0.1209  0.0280 -0.3270
30049W        W36649   8.289   1.435  29.423 -0.1015  0.3729 -0.1015
30050W        W36650  11.306   0.643   3.043  0.1289  0.0821 -0.0919
30051W        W36651  18.466   1.298   5.675 -0.1475 -0.0075 -0.2154
30052W        W36652  22.689   2.071   7.745 -0.2602  0.1822  0.1174
30053W        W36653  19.218   0.813  35.544  0.0612 -0.1239 -0.2813
30054W        W36654   1.935   5.954   5.926  0.0694 -0.1415  0.0210
30055W        W36655  23.900   3.736  24.204  0.0604 -0.0727 -0.0196
30056W        W36656  14.923   2.713  10.498  0.2251 -0.0546  0.0270
30057W        W36657   9.698   1.871  14.918  0.0543  0.2589 -0.0494
30058W        W36658  11.053   2.468  27.223  0.0029 -0.0273 -0.1780
30059W        W36659  23.579   3.218  21.094  0.1578 -0.1037  0.1305
30060W        W36660  15.103   4.405  32.569 -0.0409 -0.0750  0.3065
30061W        W36661  24.062   6.123  28.806 -0.1112  0.1593  0.2001
30062W        W36662  17.108   2.104   9.729  0.0369 -0.1835 -0.2289
30063W        W36663  23.427   6.074  10.482  0.2958  0.1891  0.0256
30064W        W36664  13.090   5.024   7.033  0.2360 -0.2203 -0.1344
30065W        W36665  24.227   5.688  20.093 -0.2771  0.1880  0.2664
30066W        W36666  20.673   2.802  34.217 -0.0189 -0.4344  0.0644
30067W        W36667   4.600   3.511  13.673  0.0217 -0.1806 -0.0824
30068W        W36668  14.977   3.187   6.346 -0.2145 -0.1948 -0.2026
30069W        W36669  24.112   3.305  14.076 -0.2359  0.0855 -0.0565
30070W        W36670  24.618   0.179  29.191  0.2942 -0.0115  0.0522
30071W        W36671   3.235   3.294  33.988  0.0220 -0.1236  0.2244
30072W        W36672   8.616   0.935  34.273  0.1643 -0.0767 -0.0729
30073W        W36673  15.397   3.183  28.978  0.1187  0.0998 -0.3522
30074W        W36674  11.710   5.623  21.793  0.0971 -0.0254  0.2102
30075W        W36675  21.151   1.765   5.187 -0.0247  0.1384  0.1358
30076W        W36676  19.057   4.401  15.585  0.0871  0.1493  0.2549
30077W        W36677   5.845   5.733   8.839  0.3648  0.2455 -0.0343
30078W        W36678  24.817   3.347  32.353 -0.1613  0.0169 -0.1823
30079W        W36679  22.903   0.689  32.969  0.1464  0.1385 -0.0041
30080W        W36680  10.838   1.118   9.687 -0.1450 -0.0768 -0.1226
30081W        W36681   8.066   0.958  25.558  0.0649 -0.0659 -0.2099
30082W        W36682  25.870   5.194   8.676  0.1586 -0.3503 -0.0049
30083W        W36683   3.852   2.977  20.605 -0.2175 -0.0465  0.2663
30084W        W36684  24.947   2.375  32.257 -0.0438  0.1343  0.0778
30085W        W36685   0.504   1.464  34.838  0.1006 -0.0211 -0.0189
30086W        W36686   2.486   5.947   9.871  0.2725 -0.1068  0.2487
30087W        W36687   1.355   5.419   3.019  0.0367 -0.1618 -0.1813
30088W        W36688  14.438   4.604   7.284  0.0060 -0.2746  0.3247
30089W        W36689   0.328   1.222  31.177 -0.3883  0.2115  0.0543
30090W        W36690  25.335   4.833  33.179 -0.0884  0.0740  0.1376
30091W        W36691  20.528   1.549   0.289 -0.0552 -0.2327  0.0428
30092W        W36692  25.847   4.354   9.749  0.0461 -0.1294 -0.3814
30093W        W36693  19.061   5.338   7.464 -0.0449 -0.1437 -0.0845
30094W        W36694   4.926   2.063  23.254 -0.1960 -0.1574  0.2050
30095W        W36695   8.781   3.380  30.958 -0.1894  0.2654  0.2573
30096W        W36696  13.513   5.669  33.015  0.0884  0.1465  0.0184
30097W        W36697  16.123   3.430  15.474 -0.1715 -0.0430  0.1943
30098W        W36698  11.572   2.552  36.087 -0.2286  0.0396  0.1149
30099W        W36699  19.550   0.974  11.181 -0.0344  0.2086  0.0907
30100W        W36700  22.874   2.312   1.507  0.0039  0.3292 -0.0427
30101W        W36701  13.058   3.003   5.016 -0.2036 -0.3238 -0.1643
30102W        W36702  13.222   0.491  28.269  0.1962  0.0298  0.0693
30103W        W36703   6.770   5.205  20.926 -0.0098 -0.2145  0.0474
30104W        W36704   5.348   5.964  15.488 -0.0804  0.2534 -0.0556
30105W        W36705  18.391   3.807   9.903  0.1811  0.0404  0.3710
30106W        W36706   9.179   4.700  13.740  0.0173  0.0529  0.2440
30107W        W36707  22.435   1.015  30.051  0.0104 -0.2399 -0.0599
30108W        W36708   8.031   2.519  29.687 -0.1852 -0.3460 -0.2810
30109W        W36709  20.382   0.601  28.964  0.0484 -0.2003 -0.0678
30110W        W36710  11.529   4.766  13.228  0.3186 -0.2783  0.1817
30111W        W36711  17.906   2.057  10.935  0.0141  0.0669  0.0585
30112W        W36712  11.636   5.808   9.316  0.0331  0.0480 -0.0430
30113W        W36713  13.135   3.947   4.070  0.0638  0.0109  0.2975
30114W        W36714   9.810   4.182  12.574 -0.2695 -0.0604  0.1075
30115W        W36715  12.651   0.762  27.515  0.0896  0.0090 -0.1149
30116W        W36716  12.760   3.904  20.650  0.2674 -0.0949 -0.0619
30117W        W36717  13.230   5.648  30.992 -0.1393 -0.0268 -0.3261
30118W        W36718   9.728   3.714  26.963 -0.0753 -0.0575 -0.1793
30119W        W36719   7.394   1.836  13.279 -0.1325 -0.2273  0.0288
30120W        W36720  22.424   5.466  25.113 -0.2880  0.1175  0.0802
30121W        W36721  14.226   1.706  33.225 -0.1642 -0.1385  0.0598
30122W        W36722  18.656   2.717  20.629  0.0115 -0.0840  0.2157
30123W        W36723  25.172   0.711  23.486  0.1473  0.0285  0.0146
30124W        W36724   9.872   1.871  32.427  0.3230 -0.1109  0.4593
30125W        W36725   1.760   5.687  21.689 -0.1539  0.2718  0.0397
30126W        W36726   2.152   0.411  11.374 -0.0769 -0.2228 -0.0809
30127W        W36727  17.957   2.975  34.236  0.1004 -0.0266 -0.0261
30128W        W36728  14.449   2.146  10.806 -0.0897  0.1721  0.0747
30129W        W36729  20.597   2.241  24.284  0.2439  0.2549 -0.1835
30130W        W36730  15.927   2.097  22.387 -0.0012  0.1855 -0.2720
30131W        W36731  17.878   6.125  30.352  0.1133 -0.0296  0.1863
30132W        W36732  25.370   3.919  13.850  0.2039  0.0665  0.2397
30133W        W36733  10.447   4.725  21.148 -0.1174 -0.0292 -0.0592
30134W        W36734  16.101   6.593  25.872  0.0969  0.1590  0.0140
30135W        W36735  14.211   2.623  11.895 -0.1439 -0.0916  0.1900
30136W        W36736   7.807   1.965   4.916  0.1469  0.4310  0.1140
30137W        W36737  23.560   0.935   6.992 -0.0178  0.3966 -0.0125
30138W        W36738  12.197   0.761  10.944  0.2259  0.0356  0.1942
30139W        W36739   9.968   5.016  13.958  0.2417  0.1917  0.2433
30140W        W36740  19.209   5.765  21.003 -0.1424  0.0395 -0.1390
30141W        W36741  21.687   2.135   3.447  0.1643 -0.2750 -0.1464
30142W        W36742   3.476   6.057   0.011  0.1107  0.2730  0.1755
30143W        W36743   8.789   5.317   2.212  0.0578  0.3849 -0.0248
30144W        W36744   3.447   2.773  34.853 -0.0127 -0.0994  0.3625
30145W        W36745   2.163   2.474  20.652  0.2551  0.1542  0.1485
30146W        W36746   5.133   1.779   2.500  0.0151 -0.0989  0.0406
30147W        W36747   5.616   1.972   6.046  0.0208  0.2435  0.3151
30148W        W36748  13.306   5.784   8.080 -0.2078 -0.0403  0.1838
30149W        W36749  15.916   4.226  12.911 -0.2559 -0.0363 -0.1521
30150W        W36750  24.857   1.606   8.061  0.2669  0.1289 -0.2955
30151W        W36751  17.397   3.871  30.963 -0.2254  0.2058  0.0884
30152W        W36752   7.273   5.042  29.402  0.0248 -0.2808 -0.3412
30153W        W36753  16.185   3.741   7.913 -0.0363  0.0967 -0.2385
30154W        W36754   5.393   2.065  14.718  0.0214 -0.0098 -0.1320
30155W        W36755   3.194   2.848  22.758 -0.0560 -0.0718 -0.0659
30156W        W36756  13.827   1.680   4.311 -0.3540  0.2517 -0.0791
30157W        W36757  14.532   4.916  30.063  0.0497 -0.2745  0.1182
30158W        W36758  20.539   2.405  28.877 -0.0457  0.1306  0.0323
30159W        W36759  15.602   4.564  27.655  0.1581 -0.1600 -0.2229
30160W        W36760   2.124   2.027  27.491  0.0868  0.2186  0.0699
30161W        W36761  14.872   5.263  35.414  0.1281 -0.0933 -0.2298
30162W        W36762  20.029   0.641  23.537  0.2086 -0.0885 -0.2548
30163W        W36763  19.228   3.658   0.039 -0.0087  0.1302  0.0162
30164W        W36764  21.070   0.525  25.562 -0.2268 -0.1384 -0.1130
30165W        W36765  10.128   4.533  10.173  0.0776  0.1319 -0.2277
30166W        W36766  14.216   6.021  15.913  0.2429  0.2104  0.2509
30167W        W36767  23.039   0.628   6.718 -0.0125  0.1631 -0.0319
30168W        W36768  15.634   3.147   2.017  0.0182 -0.1064 -0.0838
30169W        W36769  17.266   4.971  31.070 -0.0018  0.2340  0.1279
30170W        W36770  25.043   5.951  25.872  0.2008  0.0719 -0.1796
30171W        W36771   4.212   3.894  27.400 -0.0728 -0.1083  0.1164
30172W        W36772   4.800   2.695  30.443 -0.0804  0.1885  0.1863
30173W        W36773  15.492   4.952  25.749 -0.1850  0.2412 -0.2292
30174W        W36774  21.155   3.655   8.395 -0.1441  0.3031  0.0345
30175W        W36775  21.301   3.198  20.899 -0.0672 -0.3105  0.1094
30176W        W36776  18.491   2.300  36.114 -0.1020  0.1255  0.1599
30177W        W36777  20.643   1.138  32.597  0.1144 -0.2203 -0.1074
30178W        W36778  22.542   5.112  10.874  0.1411 -0.2091  0.1082
30179W        W36779  14.518   4.852  21.005 -0.2603  0.0288 -0.0487
30180W        W36780  11.573   1.412   2.494  0.0179  0.0845  0.0926
30181W        W36781   0.543   6.379  30.026 -0.3831 -0.1658 -0.2565
30182W        W36782  11.671   2.588  35.610 -0.1142 -0.1748 -0.0038
30183W        W36783  15.083   0.608  27.855  0.1536 -0.1364 -0.1650
30184W        W36784   8.708   2.496  12.366 -0.0699  0.0682 -0.1622
30185W        W36785  23.272   0.824  26.788 -0.2779  0.3507 -0.1280
30186W        W36786  24.228   1.906   8.361  0.0514  0.0462  0.0852
30187W        W36787  11.448   2.948  22.323  0.0764 -0.1810  0.3531
30188W        W36788  20.808   5.300   5.418  0.3482  0.0633 -0.0324
30189W        W36789   0.379   2.618  26.663 -0.1430 -0.2396  0.0616
30190W        W36790   3.756   4.849   6.380 -0.0066 -0.1869  0.0586
30191W        W36791  21.364   1.140  20.621 -0.0320  0.3390 -0.0850
30192W        W36792   7.057   4.939   2.062 -0.2771  0.0266 -0.1462
30193W        W36793  23.092   1.669  12.424 -0.0423 -0.1450 -0.2137
30194W        W36794  25.519   4.767  35.514 -0.1609 -0.0546 -0.1996
30195W        W36795  17.948   0.448  15.522 -0.0719 -0.1517 -0.0348
30196W        W36796  17.205   1.445  30.108  0.1305  0.1002 -0.0645
30197W        W36797  15.221   2.733   3.690 -0.1496 -0.0011 -0.2862
30198W        W36798   8.274   6.016   6.038  0.3448  0.1694  0.3225
30199W        W36799  20.346   0.592  26.730 -0.2955  0.0098 -0.2341
30200W        W36800   5.466   3.395  11.591  0.2471  0.0513  0.0100
30201W        W36801   6.670   4.210  10.496  0.1860 -0.0706  0.1082
30202W        W36802  18.673   3.077  24.563 -0.1480 -0.3804  0.0197
30203W        W36803   0.325   2.929  20.201 -0.1445  0.1494 -0.0559
30204W        W36804  10.697   0.951  27.825 -0.1223 -0.0993 -0.2517
30205W        W36805  23.457   4.601   0.326 -0.0726 -0.1763 -0.3174
30206W        W36806  10.354   3.254  31.149 -0.0048 -0.0793  0.3038
30207W        W36807  15.986   0.310  12.426 -0.1623 -0.2268 -0.1028
30208W        W36808  19.004   3.910  13.598 -0.2645 -0.0866 -0.1267
30209W        W36809   4.577   6.535   5.336  0.0252  0.1430  0.0606
30210W        W36810   5.245   0.058  21.838  0.0929 -0.1131 -0.4816
30211W        W36811   9.315   4.430  10.446  0.0870 -0.0226 -0.0143
30212W        W36812  21.447   5.945  23.120  0.0604  0.3654  0.1642
30213W        W36813  19.061   0.846   4.377 -0.0816  0.2159 -0.0911
30214W        W36814   6.324   3.995  12.675  0.2154  0.0840  0.4141
30215W        W36815  22.123   5.162  32.286 -0.3361 -0.0953  0.0743
30216W        W36816  13.516   2.177   9.136  0.1754  0.0413 -0.1379
30217W        W36817   4.396   0.675  26.539  0.1168 -0.0286 -0.1054
30218W        W36818   9.550   1.685  22.015  0.1331  0.1416  0.0003
30219W        W36819  17.762   3.684  25.093  0.0361 -0.1103 -0.1946
30220W        W36820  22.770   3.946  12.756  0.1549 -0.2382 -0.1719
30221W        W36821  22.639   4.892   4.264  0.0791  0.1436 -0.0928
30222W        W36822  25.020   2.159  29.214 -0.0652  0.2763 -0.0651
30223W        W36823   3.532   5.675   2.275 -0.1496  0.0318  0.2339
30224W        W36824  23.842   1.435  31.009  0.1387 -0.2382 -0.0679
30225W        W36825  16.208   0.374  10.025  0.0594  0.0703 -0.0908
30226W        W36826   9.513   5.358  27.421 -0.5201 -0.3583  0.2212
30227W        W36827   0.301   6.430  25.973 -0.1887  0.1984 -0.1188
30228W        W36828  24.309   0.980  26.722  0.0343 -0.1114  0.2890
30229W        W36829   4.697   0.886  21.630 -0.2158 -0.1652 -0.2237
30230W        W36830   4.972   4.480   2.774 -0.3569  0.0184 -0.0269
30231W        W36831   3.369   4.785  35.718 -0.0098  0.2890 -0.1860
30232W        W36832   9.089   3.897  32.463  0.4000  0.1824 -0.0687
30233W        W36833  17.756   2.266  31.778  0.1182 -0.1276  0.2458
30234W        W36834  11.403   0.232  30.396  0.0021 -0.3038  0.1324
30235W        W36835   3.881   3.818  13.433 -0.2886 -0.3315 -0.0858
30236W        W36836  21.114   6.297  23.282 -0.0331  0.1744 -0.0450
30237W        W36837   9.346   0.805  35.207  0.1015  0.0678 -0.1878
30238W        W36838  22.318   2.796  23.278  0.0064  0.0813  0.1002
30239W        W36839  19.693   1.494  10.994 -0.0900 -0.1214 -0.2684
30240W        W36840  23.707   1.055  33.131  0.1388 -0.1066 -0.0246
30241W        W36841   3.485   5.800  20.835  0.0180 -0.0568 -0.3901
30242W        W36842  17.898   2.475  33.181  0.1861  0.2039  0.0917
30243W        W36843   7.836   0.436   5.054 -0.1889  0.2793  0.0429
30244W        W36844  26.224   0.015  30.676  0.2191  0.2140 -0.0542
30245W        W36845  20.786   5.565   1.065  0.2998  0.2485  0.2670
30246W        W36846   0.933   1.487  10.347 -0.1537 -0.1322  0.0943
30247W        W36847   2.264   1.662  11.976  0.1779  0.0588  0.1276
30248W        W36848  15.366   4.119   2.839 -0.0372  0.0554 -0.2973
30249W        W36849   3.982   1.997  14.504  0.0170  0.1464 -0.1299
30250W        W36850  16.657   1.015   3.812  0.0602 -0.0892 -0.2612
30251W        W36851  12.990   2.147   5.507 -0.2453  0.1611  0.1641
30252W        W36852   7.472   2.597  25.974  0.0349 -0.2987 -0.1527
30253W        W36853  10.899   3.358  11.363 -0.3019  0.0309 -0.0574
30254W        W36854  20.293   6.235  22.242  0.0156 -0.2040 -0.1207
30255W        W36855  20.513   2.506   1.804  0.0157 -0.0009  0.0420
30256W        W36856  17.763   0.925  14.937  0.0183 -0.1003  0.2447
30257W        W36857  16.658   6.202  25.335  0.3025 -0.0993 -0.0308
30258W        W36858   7.456   1.810   7.604 -0.1810 -0.0279  0.0250
30259W        W36859   5.970   0.997  14.639  0.1297  0.0465 -0.0717
30260W        W36860   1.374   4.671  23.244  0.1216 -0.0932 -0.0442
30261W        W36861  10.043   3.813   6.911  0.0446  0.3500  0.1635
30262W        W36862   6.110   4.895  28.333 -0.1380 -0.0266  0.0194
30263W        W36863  17.808   0.366  22.971 -0.1138  0.2886  0.0950
30264W        W36864  13.335   6.392  11.991  0.1804 -0.0815  0.1026
30265W        W36865   9.953   6.089  14.736  0.0134  0.0445  0.0052
30266W        W36866  10.477   2.315  35.914 -0.0913  0.0136  0.1044
30267W        W36867  20.911   3.342  29.450 -0.2218 -0.1779 -0.0073
30268W        W36868  21.183   1.372  25.359  0.1926 -0.1398  0.1426
30269W        W36869  14.086   4.223   1.841 -0.3025 -0.2183 -0.1558
30270W        W36870  15.248   4.220   9.513  0.1346  0.0950 -0.2682
30271W        W36871   7.059   0.315  14.414 -0.1150  0.0359 -0.0829
30272W        W36872  15.169   5.587   9.732  0.1761 -0.0501  0.1290
30273W        W36873  15.944   0.759   6.828  0.1474  0.2140 -0.2952
30274W        W36874  18.834   6.234  10.421  0.2122  0.0485  0.0831
30275W        W36875  21.129   3.028  14.326  0.0403  0.2352  0.0461
30276W        W36876   7.730   1.952  22.046  0.0675 -0.0219  0.1510
30277W        W36877  18.924   1.766  32.708 -0.2300  0.1269  0.0778
30278W        W36878  25.385   4.806  28.816 -0.0476 -0.2075  0.3843
30279W        W36879  17.997   4.636  32.722 -0.1529 -0.0086  0.2324
30280W        W36880  16.449   2.937   5.460 -0.3657 -0.1907 -0.0127
30281W        W36881  13.432   5.866   2.759 -0.3060 -0.3342  0.1629
30282W        W36882   9.251   1.625  33.873 -0.2329  0.0467  0.1919
30283W        W36883   5.848   5.047  27.578  0.0622 -0.0829 -0.1580
30284W        W36884   7.018   6.179  31.722 -0.0602  0.0725  0.0885
30285W        W36885  26.029   5.738  24.085  0.0236  0.0022 -0.1692
30286W        W36886   6.374   0.172  21.289 -0.3695 -0.0164 -0.2609
30287W        W36887  14.473   0.876   4.188  0.3507  0.2882  0.1340
30288W        W36888  17.696   3.284  15.485  0.1817 -0.0285  0.0735
30289W        W36889  18.095   3.204  21.364  0.0648 -0.1170  0.1489
30290W        W36890  22.591   4.347  23.504 -0.3216 -0.0769 -0.1185
30291W        W36891   5.800   5.680  12.667 -0.0936  0.1753 -0.0596
30292W        W36892   7.236   3.318  27.397 -0.1030  0.0970  0.1127
30293W        W36893  23.076   2.247  30.486  0.0506  0.1963  0.1223
30294W        W36894   8.820   0.271  27.573 -0.1851  0.0970  0.0558
30295W        W36895   6.819   2.783  32.808  0.0350 -0.1716  0.1438
30296W        W36896   2.628   6.583   6.680 -0.1592 -0.0328  0.0068
30297W        W36897   8.630   2.979  13.999 -0.0233  0.1115  0.0539
30298W        W36898   6.268   4.014  26.329 -0.0194  0.0229 -0.1929
30299W        W36899  13.591   2.586  25.828  0.3714  0.1614  0.0711
30300W        W36900  22.657   3.481  35.374 -0.1670 -0.1052 -0.0795
30301W        W36901  20.103   5.054  21.603  0.0821  0.0489  0.2897
30302W        W36902  10.640   2.335  10.314 -0.1895 -0.0606 -0.2579
30303W        W36903  19.489   6.174  13.471 -0.0395  0.1239  0.1316
30304W        W36904  21.100   3.955  21.740  0.0040  0.0248  0.2012
30305W        W36905  22.125   1.353   6.413 -0.0916 -0.3445 -0.2294
30306W        W36906   4.752   2.675  22.099  0.1960  0.0873  0.0120
30307W        W36907  25.412   0.809   7.813 -0.2975  0.0817 -0.2583
30308W        W36908  19.437   6.480   5.271  0.0755  0.0464 -0.0225
30309W        W36909   7.459   2.018  30.850 -0.1366 -0.0746  0.3034
30310W        W36910  14.673   3.947  35.822 -0.2060  0.0757  0.0138
30311W        W36911   1.493   5.209   1.196  0.0947 -0.1949 -0.1758
30312W        W36912   9.667   4.667  10.013  0.2163  0.0879 -0.3900
30313W        W36913   3.907   5.200   0.292 -0.2194 -0.4055 -0.1381
30314W        W36914  18.240   5.033  27.515  0.1084 -0.3272 -0.2793
30315W        W36915  18.989   4.534  29.430 -0.1182 -0.1532 -0.2935
30316W        W36916  16.757   5.009   5.340 -0.0386  0.0949 -0.2899
30317W        W36917   6.678   0.097   2.162  0.1923 -0.1321 -0.0266
30318W        W36918  12.293   5.806   7.594  0.1898  0.0819  0.3208
30319W        W36919  11.729   4.894  35.749  0.2461  0.0108  0.0233
30320W        W36920   7.148   6.435   6.925  0.1356  0.0011  0.0024
30321W        W36921  23.735   1.633   3.448  0.1674  0.0652  0.0177
30322W        W36922  26.041   5.958   7.180  0.0525 -0.0591 -0.1031
30323W        W36923  19.446   1.120  27.479 -0.0021 -0.1591 -0.0053
30324W        W36924  24.139   2.093   0.278 -0.0530 -0.1097 -0.0343
30325W        W36925   3.933   0.435  33.676  0.0833  0.1846  0.0017
30326W        W36926  19.732   0.836   5.309  0.0854  0.0012  0.0109
30327W        W36927  11.606   1.420  29.668  0.0875  0.0071 -0.0987
30328W        W36928  22.573   3.945  21.998  0.2809  0.1581 -0.0868
30329W        W36929  18.145   5.326   0.926  0.2375  0.1278  0.0202
30330W        W36930   8.345   2.411   7.862  0.2503 -0.1915 -0.2452
30331W        W36931  15.918   3.156   3.590 -0.0099 -0.0002  0.0508
30332W        W36932  14.618   4.304  32.730 -0.1996  0.1395 -0.1120
30333W        W36933  18.797   1.166  35.452 -0.0092  0.0813  0.0559
30334W        W36934   4.805   0.638  26.839 -0.2672  0.0213 -0.0716
30335W        W36935  23.354   4.760   6.486 -0.2150 -0.2235 -0.0115
30336W        W36936  21.694   2.270  24.227  0.1461  0.1314  0.1458
30337W        W36937  15.864   1.675   9.792  0.1617  0.0081  0.0371
30338W        W36938  19.017   4.332  31.532  0.0771  0.1645 -0.3001
30339W        W36939  12.060   3.440   4.682 -0.1468  0.1084  0.0677
30340W        W36940  21.154   0.448   6.199 -0.0701 -0.1048  0.0231
30341W        W36941   0.340   3.218  14.938 -0.0259 -0.0675 -0.0949
30342W        W36942   1.849   2.818   8.229  0.0548  0.2519 -0.0221
30343W        W36943   3.051   4.073  26.671  0.0302 -0.3091  0.0039
30344W        W36944   5.560   5.087  23.174  0.2047  0.0336  0.0158
30345W        W36945   6.580   1.473  29.262 -0.2975  0.1037  0.0354
30346W        W36946  23.899   2.607   9.610 -0.0994 -0.0908 -0.1012
30347W        W36947   2.684   5.870   1.796 -0.2969  0.2686 -0.0803
30348W        W36948   4.795   3.894  29.858 -0.1630 -0.0117  0.0177
30349W        W36949   6.474   4.015  33.901  0.0779 -0.2427 -0.1351
30350W        W36950  20.684   6.048  24.581 -0.1842 -0.0059  0.1588
30351W        W36951  13.305   5.189  33.886 -0.0258  0.0308  0.1212
30352W        W36952   1.796   2.473  35.147  0.0650  0.0929  0.2987
30353W        W36953  24.121   0.538   6.301 -0.1203 -0.1959  0.3307
30354W        W36954  25.655   5.602  21.466 -0.1128  0.1267 -0.0067
30355W        W36955  16.920   6.021  27.862 -0.1302 -0.1191 -0.2590
30356W        W36956   7.095   5.422   1.009  0.0565 -0.0153  0.2806
30357W        W36957   2.441   0.840  35.348  0.2724 -0.0646  0.0903
30358W        W36958  10.729   2.883  35.679 -0.2614 -0.2951  0.0628
30359W        W36959  25.776   1.142   7.988  0.0423 -0.3874  0.0393
30360W        W36960  16.094   0.939   3.808  0.1385 -0.2059 -0.0084
30361W        W36961  16.800   2.175  15.151 -0.1356  0.0259 -0.5468
30362W        W36962   4.786   4.381  15.041 -0.1422  0.1026  0.1313
30363W        W36963  13.356   1.809  27.181 -0.1454  0.1035 -0.0243
30364W        W36964   5.283   2.676  27.345  0.2197  0.1183  0.1479
30365W        W36965  18.020   1.565   4.884  0.0900  0.1036  0.2288
30366W        W36966  15.776   1.992  12.939 -0.2532 -0.0532  0.2099
30367W        W36967  11.322   3.838  27.519  0.2137 -0.1533  0.1049
30368W        W36968   7.985   2.127  15.055 -0.1050 -0.2111  0.1315
30369W        W36969   6.913   1.149  33.576  0.2387 -0.2164 -0.0163
30370W        W36970  19.373   3.181   1.782 -0.2224  0.2607  0.3063
30371W        W36971   5.511   1.168  31.793 -0.2421  0.1740  0.1537
30372W        W36972  13.897   2.794  11.034  0.0435 -0.0843  0.1615
30373W        W36973  15.433   3.675   2.471 -0.1460  0.0619  0.0317
30374W        W36974  21.425   3.047  12.538 -0.2332  0.2140 -0.0049
30375W        W36975   2.000   4.618  22.644  0.0315 -0.0186  0.0872
30376W        W36976  17.726   2.846  13.028 -0.0868 -0.1191 -0.0619
30377W        W36977  26.245   4.571  32.433 -0.1998 -0.1735 -0.0604
30378W        W36978  13.022   1.781   8.445  0.2175 -0.0186  0.0462
30379W        W36979   3.650   6.313  24.618 -0.1138  0.0879  0.2804
30380W        W36980  10.841   1.303  28.172 -0.0448  0.0158 -0.0045
30381W        W36981  11.447   1.317   3.662  0.1501  0.0209 -0.1213
30382W        W36982  16.850   2.512   8.934  0.0837  0.1084  0.1491
30383W        W36983  12.297   2.024   2.718 -0.0283 -0.4423 -0.2996
30384W        W36984  16.311   2.989  32.715  0.1365  0.0234  0.3323
30385W        W36985  22.777   3.049  29.243  0.1643 -0.4906 -0.0956
30386W        W36986  17.887   2.833  10.928  0.0456  0.0953  0.1320
30387W        W36987   4.499   5.714  31.595 -0.2316 -0.2152  0.3568
30388W        W36988   1.308   2.968   5.504 -0.0522 -0.0100 -0.0001
30389W        W36989  17.177   1.117  27.744  0.2085 -0.0822  0.1620
30390W        W36990  14.861   1.641  27.956 -0.0065 -0.0298 -0.0799
30391W        W36991   4.600   3.084  27.768 -0.0724  0.0839 -0.0622
30392W        W36992   2.327   4.880  29.181  0.0642  0.2323  0.1156
30393W        W36993  10.956   4.123   6.805  0.3651  0.2631  0.1498
30394W        W36994   9.322   3.568  24.021 -0.0383 -0.2023  0.0411
30395W        W36995   5.082   2.484   1.379 -0.0640 -0.1297  0.3238
30396W        W36996   1.643   0.044  32.731  0.2222  0.0333 -0.0034
30397W        W36997  17.196   1.504  34.531  0.1043  0.2726  0.2009
30398W        W36998  21.992   2.161   3.012  0.2183 -0.1382  0.0042
30399W        W36999   2.710   3.103   3.068 -0.0963 -0.1914  0.0586
30400W        W37000  14.425   0.776  22.165 -0.1391  0.0852  0.1181
30401W        W37001   9.134   4.870  33.657 -0.0369 -0.2928  0.0240
30402W        W37002   9.756   1.856  12.559  0.1581 -0.4894  0.1443
30403W        W37003  15.202   0.776  35.593  0.2521  0.2212 -0.1787
30404W        W37004  19.705   1.766  13.216  0.0149 -0.0545 -0.1939
30405W        W37005  21.863   2.861  24.135 -0.0753  0.2750 -0.1021
30406W        W37006  19.766   6.092   8.981  0.0231  0.0875  0.1290
30407W        W37007  22.477   2.036  13.997 -0.0172 -0.4233 -0.1088
30408W        W37008   3.349   6.604  23.486 -0.2169  0.2281 -0.1430
30409W        W37009   2.142   3.082  11.390  0.1356  0.4551  0.1217
30410W        W37010  14.710   4.730  22.286 -0.1748  0.0107  0.0609
30411W        W37011   1.428   3.220  33.060  0.0456  0.2337 -0.0493
30412W        W37012   1.945   5.354  23.908  0.1748 -0.1614 -0.2509
30413W        W37013   6.302   5.663  27.998 -0.1199 -0.0633 -0.2748
30414W        W37014   4.738   5.037   1.004  0.0674  0.0547  0.1494
30415W        W37015  26.140   3.060  23.975  0.3020 -0.0624  0.0274
30416W        W37016  17.549   3.689   4.183 -0.0582 -0.1614  0.1394
30417W        W37017  16.324   5.944  15.418 -0.2002  0.3538  0.0296
30418W        W37018  13.315   1.011  12.468  0.1025 -0.0910 -0.0060
30419W        W37019  14.464   5.263  28.723 -0.1885 -0.0511 -0.1420
30420W        W37020   7.797   0.479  28.460 -0.6068  0.2412 -0.1881
30421W        W37021  19.992   4.153  21.692 -0.0606  0.0199  0.1566
30422W        W37022   5.124   3.852  11.647 -0.1467  0.0152 -0.5287
30423W        W37023  21.335   6.357  30.937  0.1946  0.2462 -0.2218
30424W        W37024  15.164   1.489  25.201  0.2858 -0.0748 -0.2720
30425W        W37025  24.940   0.788   4.789  0.2648  0.0315  0.1634
30426W        W37026   5.165   2.189  28.888 -0.0232 -0.2147  0.0175
30427W        W37027  15.048   2.744  36.158  0.0337 -0.2029 -0.0305
30428W        W37028  15.751   5.192  13.797  0.2371 -0.0799  0.1038
30429W        W37029  25.933   1.418   0.979  0.2500 -0.3316 -0.4998
30430W        W37030  12.990   6.149   8.236  0.1307  0.0216  0.0880
30431W        W37031   2.966   0.652  14.980  0.1319 -0.4770 -0.1837
30432W        W37032  20.772   2.920  10.214 -0.2499 -0.1799  0.0728
30433W        W37033   4.994   2.821  28.847  0.0947 -0.0583 -0.1833
30434W        W37034  22.780   3.873  12.234 -0.0644  0.0725  0.1480
30435W        W37035  23.779   5.272  27.469 -0.2629 -0.1566 -0.0698
30436W        W37036  18.121   0.427  25.751  0.1657 -0.2799 -0.1226
30437W        W37037  18.220   2.854  28.337 -0.4837  0.1471  0.3423
30438W        W37038  21.083   5.337   8.935 -0.2917 -0.1723 -0.1368
30439W        W37039  21.914   3.888  33.944  0.0432 -0.1257 -0.0955
30440W        W37040   1.407   1.590  19.564 -0.0698 -0.1344  0.0811
30441W        W37041   4.377   4.357  30.540  0.1051 -0.1298  0.0388
30442W        W37042   6.975   6.350  35.195 -0.0312  0.0375  0.1346
30443W        W37043  16.611   3.979  26.045  0.2320  0.1896  0.1306
30444W        W37044  25.530   6.461  21.908 -0.1379 -0.1695 -0.1467
30445W        W37045   5.891   0.484   5.665 -0.0954  0.0684  0.1551
30446W        W37046  14.243   3.107  11.756  0.4517  0.1519 -0.0848
30447W        W37047  11.138   2.544  23.040  0.0964 -0.1421 -0.0431
30448W        W37048   5.181   5.834  35.494  0.0708 -0.0007  0.2203
30449W        W37049  14.048   1.136   4.557  0.0502  0.1840  0.2069
30450W        W37050   9.782   4.477  11.888  0.1727  0.1378 -0.2795
30451W        W37051   1.535   5.733   2.080 -0.0872 -0.0680  0.1887
30452W        W37052  11.225   2.845  13.818 -0.1026 -0.1260  0.0103
30453W        W37053  25.751   2.643  33.379  0.3052  0.1734 -0.1457
30454W        W37054   9.850   2.240  25.604 -0.2944 -0.0434 -0.1517
30455W        W37055   6.229   1.836  35.007 -0.1421  0.2152  0.2686
30456W        W37056  22.355   1.744  26.881 -0.1869  0.0247 -0.1350
30457W        W37057   3.657   6.468  10.246 -0.0597  0.3518 -0.2164
30458W        W37058  24.211   0.417   8.027  0.1587  0.1099  0.0296
30459W        W37059  12.303   0.425  35.174  0.0358 -0.0243  0.0158
30460W        W37060   3.561   1.888  14.331  0.0213 -0.0498  0.0696
30461W        W37061   5.672   0.601   7.873  0.0346  0.0668 -0.0822
30462W        W37062   1.935   2.178  14.322 -0.0949 -0.1768  0.1266
30463W        W37063   3.877   2.183  20.234  0.2578  0.0713  0.1961
30464W        W37064  18.681   3.691  35.140  0.0316 -0.1801 -0.2002
30465W        W37065  15.622   3.974  27.081 -0.1989  0.2358 -0.0694
30466W        W37066   2.859   0.972   5.206 -0.0824  0.1517 -0.0902
30467W        W37067  17.170   1.188   5.846 -0.0399  0.1513  0.1963
30468W        W37068  19.723   5.573  21.657 -0.0897  0.0371 -0.2556
30469W        W37069   7.195   4.159  28.261 -0.0098  0.0846 -0.1144
30470W        W37070   1.712   1.171  24.858  0.0326  0.0797 -0.1701
30471W        W37071  17.371   1.562  32.526  0.1422  0.2196  0.2657
30472W        W37072   6.677   5.603  31.072 -0.0340  0.2146  0.2298
30473W        W37073  16.740   6.239   5.843 -0.1968 -0.1108  0.0981
30474W        W37074  19.964   5.171   0.976 -0.0206  0.1627 -0.0691
30475W        W37075   0.935   4.707  13.399 -0.2074 -0.1372 -0.1689
30476W        W37076   0.337   6.065   7.917  0.0490  0.1240  0.0093
30477W        W37077  18.476   3.972  26.422 -0.3121  0.0572  0.1729
30478W        W37078  21.600   1.351   7.446  0.1474  0.3449 -0.2936
30479W        W37079  18.797   6.191   6.194 -0.0862 -0.0200  0.1115
30480W        W37080   0.575   2.927   7.485  0.1281  0.0992  0.2378
30481W        W37081   0.379   0.168   8.465 -0.0296 -0.1482 -0.2247
30482W        W37082   5.367   1.099   1.115  0.0939  0.1836  0.0283
30483W        W37083  19.445   2.022  33.230 -0.0829  0.1597  0.0394
30484W        W37084  14.121   5.357  12.743 -0.2142  0.0372  0.1460
30485W        W37085  14.863   0.071  23.374 -0.1494 -0.2102  0.1607
30486W        W37086   3.163   1.895   6.922 -0.2410  0.3346 -0.1587
30487W        W37087   1.447   5.461  34.229  0.1698  0.1214 -0.0054
30488W        W37088  19.862   3.996   2.221 -0.0878 -0.0141 -0.0331
30489W        W37089  12.377   3.879   4.223 -0.1172  0.0566 -0.0112
30490W        W37090   1.226   5.467  10.211 -0.0191  0.1315  0.1795
30491W        W37091   6.430   0.336  36.183  0.2012  0.2497  0.0912
30492W        W37092  23.809   4.387  24.938 -0.1865  0.2999 -0.0585
30493W        W37093  17.120   2.694   9.664 -0.0374  0.0185  0.0004
30494W        W37094  19.499   3.164  32.994  0.1612  0.1241 -0.1776
30495W        W37095  23.185   1.867  31.335  0.1047 -0.0740  0.1394
30496W        W37096  16.174   0.480   7.287  0.2277  0.2392  0.1524
30497W        W37097   8.069   6.391  24.591 -0.2149 -0.0428  0.0774
30498W        W37098  17.046   1.821  35.066 -0.0911 -0.0924 -0.1058
30499W        W37099  20.051   5.728   8.192 -0.2364 -0.0964 -0.0516
30500W        W37100   9.164   3.731   8.744 -0.1621 -0.2725  0.0459
30501W        W37101  13.275   5.906  31.930 -0.0780 -0.1847  0.0998
30502W        W37102   0.968   5.751  20.516  0.2619  0.1468 -0.2405
30503W        W37103  14.808   0.328  33.176 -0.0129  0.1437  0.1485
30504W        W37104  19.308   2.760   0.946  0.1049  0.2375  0.0989
30505W        W37105  10.354   2.515  32.130 -0.1360 -0.4038  0.2058
30506W        W37106   3.275   0.310   6.654 -0.1303  0.2436 -0.1899
30507W        W37107  19.079   5.939  13.284  0.0517 -0.2070  0.2818
30508W        W37108  13.697   0.838  12.781  0.0849  0.2451 -0.1630
30509W        W37109  12.857   3.467   5.100  0.0039  0.0943 -0.3550
30510W        W37110  11.388   1.172  26.138  0.0184  0.0027 -0.3810
30511W        W37111  26.100   5.256   5.751  0.0973  0.2783  0.0847
30512W        W37112   8.684   4.427   5.635  0.3100  0.1580  0.0582
30513W        W37113   0.207   2.689  33.829  0.0101 -0.1295  0.3264
30514W        W37114  21.951   4.975   2.555  0.1948 -0.0462  0.2571
30515W        W37115   0.027   0.105  30.232 -0.0749  0.0531  0.0053
30516W        W37116  16.903   0.869  10.678 -0.0477  0.2557 -0.0810
30517W        W37117  19.346   0.018  11.134 -0.2587  0.3137 -0.1477
30518W        W37118  11.235   1.031  27.417 -0.1092  0.1965 -0.1115
30519W        W37119  19.886   1.417  28.705  0.1616 -0.3063  0.2210
30520W        W37120  22.763   3.903  35.199 -0.0803 -0.1060  0.1481
30521W        W37121   2.758   6.325  21.729 -0.0017  0.0607  0.2726
30522W        W37122   7.711   1.002  10.922  0.3136 -0.0681 -0.1355
30523W        W37123  10.671   5.029   4.763 -0.1287  0.1507 -0.1644
30524W        W37124  12.246   2.240   6.004 -0.0014  0.1749  0.1382
30525W        W37125  13.629   1.221  28.777  0.2619  0.2321 -0.2444
30526W        W37126   4.354   0.274   9.897 -0.1536  0.2119 -0.1429
30527W        W37127  25.160   0.495  22.333 -0.0317 -0.0923  0.2360
30528W        W37128   0.668   5.454   1.576  0.1600  0.0541  0.1281
30529W        W37129   6.542   4.609  24.262  0.1793 -0.2153  0.0192
30530W        W37130  12.118   5.134  21.502 -0.0993  0.0992  0.0087
30531W        W37131   9.868   5.509  13.483 -0.4034 -0.0202  0.0009
30532W        W37132   8.312   1.291  22.145  0.1540  0.0973 -0.0854
30533W        W37133  17.717   4.124  32.760 -0.2112 -0.1355 -0.0057
30534W        W37134  21.536   5.572  31.630 -0.0362  0.2321  0.2037
30535W        W37135   2.973   4.253  23.725 -0.0437  0.2516  0.1583
30536W        W37136  14.887   2.555   9.081  0.2026 -0.2872 -0.1130
30537W        W37137  19.818   6.568  25.711 -0.2457 -0.0968  0.3101
30538W        W37138   8.483   2.108  23.765  0.4180  0.0503 -0.2766
30539W        W37139  13.833   1.161  29.828 -0.1218  0.1703 -0.0258
30540W        W37140  20.011   2.392  25.640  0.0901 -0.2653 -0.4130
30541W        W37141  26.385   5.462   3.989 -0.0343 -0.1874 -0.0141
30542W        W37142  25.910   5.625  25.650  0.0607 -0.0385 -0.0143
30543W        W37143   0.533   3.083   0.626 -0.2202 -0.2659 -0.1275
30544W        W37144  13.222   4.116  13.081  0.2153  0.0219 -0.3342
30545W        W37145  25.534   3.153   2.176 -0.1119 -0.0893 -0.2035
30546W        W37146   5.509   0.765  20.989 -0.1682 -0.1710 -0.3345
30547W        W37147   9.868   1.902  30.684 -0.2658  0.0095 -0.2428
30548W        W37148  12.900   1.579  25.860  0.0829 -0.1989 -0.1708
30549W        W37149  22.604   1.247  21.338  0.0350 -0.1840 -0.0588
30550W        W37150  13.480   4.448  21.990  0.0731 -0.2139 -0.0573
30551W        W37151  13.307   3.501   4.195 -0.1981  0.0146  0.0037
30552W        W37152  13.984   0.180  14.623  0.2645  0.1050 -0.0643
30553W        W37153   6.096   3.289  30.645 -0.0446  0.4359  0.3068
30554W        W37154  25.258   5.075  29.329  0.1164  0.0729 -0.1573
30555W        W37155   6.447   4.654  15.021 -0.1364 -0.0657 -0.1039
30556W        W37156   3.428   2.169  29.319  0.0089 -0.1262 -0.1055
30557W        W37157  14.777   0.551  10.538  0.0005 -0.3528  0.1016
30558W        W37158   3.090   3.306  26.534  0.0694 -0.0958  0.0755
30559W        W37159   4.319   2.130  20.984 -0.2710  0.3738  0.0896
30560W        W37160   7.605   1.106  27.731 -0.2393 -0.1004 -0.2536
30561W        W37161   6.206   5.011   8.511 -0.0735  0.0826  0.2426
30562W        W37162   6.672   0.608   2.340 -0.0401  0.1683  0.1861
30563W        W37163   6.012   0.157  26.526  0.1838 -0.0284  0.0506
30564W        W37164  18.892   2.622  22.028 -0.2619 -0.4006 -0.1065
30565W        W37165  21.965   5.149  34.667 -0.1326  0.2156 -0.0935
30566W        W37166   9.693   1.462  31.450  0.1975 -0.1234 -0.1442
30567W        W37167   0.834   5.871   9.612 -0.3469  0.0848  0.1267
30568W        W37168   1.170   1.626   8.564 -0.0846  0.0365  0.0060
30569W        W37169   3.965   4.954   8.310  0.1891  0.0672 -0.1355
30570W        W37170  16.248   3.349   3.980 -0.2236 -0.1437 -0.0867
30571W        W37171  20.471   4.314   8.856 -0.1185  0.1620 -0.0201
30572W        W37172   2.642   0.999  10.433 -0.1017  0.0655  0.0055
30573W        W37173  25.909   2.519   8.064  0.0621  0.3237 -0.1987
30574W        W37174  11.097   3.823  15.503  0.3496  0.0075  0.1168
30575W        W37175  18.665   2.549   0.291  0.1172  0.1909 -0.0711
30576W        W37176  12.921   4.755  26.713  0.1158  0.0647 -0.0295
30577W        W37177   4.674   4.209  33.170 -0.1016  0.2744  0.3307
30578W        W37178  23.571   3.830  23.137  0.3510 -0.0753 -0.2036
30579W        W37179  11.388   1.921   4.144  0.1156 -0.0045 -0.3778
30580W        W37180   8.094   2.711  21.796 -0.3428  0.0398 -0.1807
30581W        W37181  13.867   0.498  30.477 -0.1045 -0.1768 -0.1464
30582W        W37182  24.321   0.662  34.546  0.3316 -0.1827  0.0441
30583W        W37183   1.742   2.074  29.976  0.1658  0.1249 -0.4372
30584W        W37184  14.964   4.293  31.392 -0.1675 -0.3066 -0.0885
30585W        W37185   3.779   0.050  25.227  0.2807  0.2917  0.0780
30586W        W37186  17.047   4.175  13.035  0.0855  0.0933  0.0785
30587W        W37187  10.747   1.974  20.813  0.1436  0.0145  0.0927
30588W        W37188  25.093   1.821  21.155  0.0704 -0.1059 -0.1041
30589W        W37189  22.584   1.440   0.838 -0.0117  0.3566 -0.1136
30590W        W37190   9.532   4.748  25.899 -0.1964  0.0542 -0.1646
30591W        W37191  21.819   0.461   3.302 -0.0075  0.1412 -0.0020
30592W        W37192   9.844   2.395   6.746 -0.0852  0.0545  0.3518
30593W        W37193  19.776   2.733  31.766 -0.3188 -0.0447  0.1269
30594W        W37194  19.246   5.292  11.790  0.2226 -0.1125  0.0849
30595W        W37195  20.480   4.342   2.041 -0.3033 -0.2197  0.2253
30596W        W37196   9.993   3.857  15.803  0.3631 -0.2024 -0.1135
30597W        W37197  21.874   2.602   6.687 -0.0972  0.2131  0.0423
30598W        W37198  19.687   3.569  28.176 -0.1080 -0.0270  0.0529
30599W        W37199   5.116   2.355   4.097 -0.0520 -0.0610  0.1110
30600W        W37200  22.479   0.622  21.913 -0.2711  0.0357  0.0449
30601W        W37201  22.587   4.409   0.679 -0.0618  0.1492  0.0998
30602W        W37202  23.071   0.785  24.211 -0.0289  0.2027 -0.0256
30603W        W37203  19.937   0.722  35.576 -0.2737 -0.2128  0.0664
30604W        W37204   8.491   0.754  25.361 -0.0596 -0.1365  0.2141
30605W        W37205   7.873   1.965  31.163  0.2922  0.2704 -0.1978
30606W        W37206  23.739   1.238   6.583  0.2838  0.2003  0.1691
30607W        W37207  10.925   4.485  21.090 -0.1203  0.1365 -0.0882
30608W        W37208  23.771   3.708   1.240 -0.0946 -0.0192 -0.2617
30609W        W37209   2.934   4.897  20.687 -0.1180 -0.0384  0.1569
30610W        W37210   9.352   6.321   9.610 -0.0766 -0.1723 -0.2666
30611W        W37211  21.808   3.978  30.662  0.2489 -0.2490  0.0414
30612W        W37212  22.946   6.334  20.444  0.1787  0.1236 -0.0038
30613W        W37213   4.603   1.069  10.830 -0.1799  0.0261 -0.0502
30614W        W37214  18.770   3.973   6.560 -0.1901  0.0858  0.0599
30615W        W37215  15.576   3.921  35.111 -0.3351  0.0141 -0.2423
30616W        W37216  25.765   4.300  24.696 -0.1672 -0.0093 -0.0156
30617W        W37217   3.314   5.142  32.824  0.1397 -0.0804 -0.0102
30618W        W37218   0.110   0.611  10.902 -0.0345 -0.0550  0.2415
30619W        W37219  12.973   0.804  30.639 -0.3659  0.0035 -0.3715
30620W        W37220  25.309   5.377  27.314  0.0312  0.0705  0.0458
30621W        W37221  16.725   3.157  31.351 -0.2428  0.0851  0.1204
30622W        W37222   9.967   1.723  22.873 -0.2740  0.0139  0.1711
30623W        W37223   9.905   1.337   3.151  0.2916  0.0070 -0.2614
30624W        W37224  10.951   3.500  10.915 -0.1791  0.0702  0.0302
30625W        W37225   8.676   0.509  23.327 -0.0072 -0.0517 -0.0314
30626W        W37226   5.544   1.657  24.845  0.2546 -0.1123  0.0017
30627W        W37227  14.578   1.090  34.056  0.1558 -0.1580 -0.1117
30628W        W37228  13.543   3.500   8.832 -0.0810  0.0992  0.0704
30629W        W37229  23.902   6.013   2.700  0.3182  0.0209 -0.1148
30630W        W37230  20.358   0.361   0.711 -0.2816  0.1365 -0.0261
30631W        W37231  10.115   3.880  24.814  0.1515 -0.3719  0.1603
30632W        W37232  19.163   3.787  10.248 -0.0128  0.3538 -0.3095
30633W        W37233  19.851   5.834  30.469 -0.3572 -0.0510  0.2613
30634W        W37234   7.739   0.133  29.892  0.0711  0.0827 -0.3428
30635W        W37235   1.176   3.435  23.880 -0.1759 -0.0243 -0.0359
30636W        W37236  16.423   5.027   1.300 -0.0360 -0.0417  0.1630
30637W        W37237  13.348   3.514  35.481  0.1676  0.1784 -0.0805
30638W        W37238  20.480   2.507  30.440  0.1082 -0.1525 -0.2656
30639W        W37239  14.687   1.411  33.317  0.1784 -0.1117 -0.0804
30640W        W37240   7.867   4.504   5.043 -0.1439  0.1905  0.1018
30641W        W37241   3.817   4.720  32.364 -0.1303 -0.1214 -0.0260
30642W        W37242   1.716   2.941   2.540  0.0388 -0.1357 -0.0201
30643W        W37243   8.088   2.334  31.505  0.0085  0.2220 -0.0067
30644W        W37244  21.450   1.306  23.910 -0.1069  0.1943  0.1896
30645W        W37245   3.819   2.235   4.788  0.4853  0.1594  0.1133
30646W        W37246  16.050   4.318   6.013  0.0234 -0.0592  0.0257
30647W        W37247   4.338   0.336   3.079 -0.2097 -0.1953 -0.0547
30648W        W37248  14.857   3.929   6.703  0.1367 -0.2453  0.4712
30649W        W37249  14.284   6.311  28.425  0.1073 -0.0109 -0.3882
30650W        W37250  12.152   5.587  31.271 -0.1280 -0.1869  0.0872
30651W        W37251   1.725   1.077  24.009 -0.1800 -0.0369  0.1652
30652W        W37252  12.407   1.444   7.850 -0.0944  0.0742 -0.1627
30653W        W37253  18.849   1.328  31.251  0.0993 -0.1941 -0.0415
30654W        W37254  11.339   0.911  25.719  0.2741  0.1770 -0.0990
30655W        W37255  19.270   1.407  11.203 -0.1018  0.1468  0.0001
30656W        W37256  17.013   3.010  24.400 -0.0638  0.0965  0.0156
30657W        W37257  12.938   2.123  23.120  0.1383  0.0763 -0.0090
30658W        W37258   7.225   6.579  29.075  0.1523 -0.2475 -0.2948
30659W        W37259  19.723   1.549  35.924 -0.2513 -0.0387 -0.0971
30660W        W37260   0.420   1.159   6.441  0.0475  0.2681  0.0530
30661W        W37261  12.053   6.522  12.256  0.3739 -0.4471 -0.0211
30662W        W37262  10.663   5.131  26.703  0.0729 -0.3228  0.0629
30663W        W37263  21.633   5.264   0.209 -0.0462  0.0755 -0.1510
30664W        W37264  10.437   5.961   8.518 -0.0520  0.4010 -0.0944
30665W        W37265  17.770   5.333   8.436 -0.1979  0.1029  0.0618
30666W        W37266   2.312   4.266   5.032  0.0037  0.1618 -0.0386
30667W        W37267  16.178   1.058   9.558  0.0527 -0.1662 -0.1802
30668W        W37268  24.807   4.604   1.591 -0.1207 -0.0431 -0.0792
30669W        W37269  16.557   5.229  28.054  0.4625 -0.3304  0.1496
30670W        W37270  26.014   1.056  22.021  0.0883  0.1030  0.2092
30671W        W37271   2.278   0.461   1.354 -0.1434 -0.0400 -0.2466
30672W        W37272   4.824   0.949  13.349 -0.1040  0.1048  0.0682
30673W        W37273  13.378   1.778   5.497  0.1293  0.0720  0.1169
30674W        W37274  22.722   0.488  20.849 -0.1052  0.0700 -0.0781
30675W        W37275   6.560   3.596  28.994 -0.0381  0.0341  0.0343
30676W        W37276  14.216   3.852   4.584 -0.2348  0.2942 -0.0328
30677W        W37277   3.433   3.773  28.966 -0.1191  0.0965 -0.0774
30678W        W37278  19.014   3.410  13.613 -0.2320 -0.0998 -0.1132
30679W        W37279  20.057   0.304   1.144 -0.0293 -0.3065 -0.0815
30680W        W37280   6.346   3.687   3.754 -0.0354 -0.0723  0.4309
30681W        W37281   7.343   2.400  22.567 -0.1633 -0.0673  0.1456
30682W        W37282   1.573   3.840  13.949 -0.0821 -0.2403 -0.0081
30683W        W37283   4.355   5.663  25.129  0.0391  0.1030 -0.1716
30684W        W37284  25.253   1.626  24.948 -0.0643 -0.1513  0.0529
30685W        W37285  18.586   3.290   3.632 -0.0055  0.0319 -0.1930
30686W        W37286  17.346   0.957  26.937  0.0175 -0.0691  0.1331
30687W        W37287  23.442   5.541  24.262 -0.0324  0.2237 -0.1561
30688W        W37288  19.416   4.766  10.038  0.0911  0.0599 -0.0906
30689W        W37289  14.604   6.133  25.508  0.0964 -0.1210  0.0614
30690W        W37290  13.880   1.135   1.270 -0.0717 -0.0474 -0.4160
30691W        W37291   1.450   1.883  24.261  0.0571 -0.4134  0.1593
30692W        W37292   5.402   5.378   9.905  0.0158  0.1383 -0.0364
30693W        W37293  19.409   5.702  12.288  0.0494 -0.0286  0.2163
30694W        W37294   9.307   0.415  11.373  0.0573  0.3273  0.0674
30695W        W37295   7.491   5.363  33.715  0.3174  0.4589  0.3496
30696W        W37296  23.815   0.195  32.705  0.0757 -0.1712 -0.3798
30697W        W37297   6.949   0.501   6.095 -0.0259 -0.0841  0.1251
30698W        W37298  10.102   0.877  24.397  0.2680  0.1420 -0.2761
30699W        W37299  21.783   0.222  23.411  0.2029  0.0953 -0.5872
30700W        W37300  18.155   0.755   0.965 -0.4967 -0.2355  0.1885
30701W        W37301  18.988   3.456  15.099  0.1109  0.1401 -0.3674
30702W        W37302  20.514   0.115  28.635  0.0669 -0.0598  0.0440
30703W        W37303   2.844   0.394  34.623 -0.0227  0.0893 -0.2440
30704W        W37304  25.584   1.127  21.713  0.2463 -0.3546 -0.0279
30705W        W37305  23.377   5.889  29.421  0.0539 -0.0645 -0.1328
30706W        W37306  22.636   5.181   3.147 -0.0421  0.1808  0.2047
30707W        W37307  15.436   2.387   0.108 -0.0406 -0.0704  0.2255
30708W        W37308  23.188   0.526  11.243 -0.0226  0.2044  0.1517
30709W        W37309   8.132   4.217  23.567  0.1899  0.0220 -0.0739
30710W        W37310   1.952   0.667   3.718  0.2005 -0.2140 -0.0752
30711W        W37311   6.997   3.911  21.065  0.0269 -0.3841  0.0717
30712W        W37312   3.424   3.550  12.903  0.2712 -0.1354 -0.3054
30713W        W37313  10.779   4.285   9.364  0.1385  0.2936  0.1755
30714W        W37314   2.561   4.613  13.736 -0.0239  0.0265  0.1217
30715W        W37315   2.640   4.206  26.397  0.1336  0.4840  0.0391
30716W        W37316  24.258   2.578   7.334 -0.0892 -0.0444 -0.1146
30717W        W37317  12.625   0.477  15.156 -0.2448 -0.1857 -0.3412
30718W        W37318   7.127   2.065   8.008  0.0217 -0.0349 -0.0135
30719W        W37319  11.677   3.439  30.711 -0.1146 -0.0664  0.0151
30720W        W37320   0.809   2.341   1.454 -0.2526 -0.2501  0.3629
30721W        W37321   2.001   5.815  24.839 -0.0121 -0.3192  0.0168
30722W        W37322   7.140   3.504  32.329  0.0013  0.0153  0.0448
30723W        W37323  16.428   1.223  14.764 -0.2430  0.1393  0.0205
30724W        W37324  23.778   5.824  27.478  0.0796 -0.0347  0.1030
30725W        W37325  14.571   1.346   4.451  0.0143  0.1223 -0.2091
30726W        W37326  18.149   1.587  32.328  0.0264  0.0645 -0.1469
30727W        W37327  14.813   5.061  21.871  0.1081  0.0653 -0.1538
30728W        W37328  26.229   3.929  29.090 -0.1342  0.0285  0.3404
30729W        W37329  18.356   1.851  28.894  0.1348  0.1331 -0.1258
30730W        W37330  13.944   3.186   4.760  0.0954  0.1587 -0.1556
30731W        W37331  14.335   2.837   6.709 -0.3861 -0.0628 -0.1002
30732W        W37332   1.410   4.776   0.158  0.0622 -0.0824  0.1724
30733W        W37333  20.878   0.828   6.400  0.0027  0.2911 -0.0329
30734W        W37334   0.121   2.905  14.458 -0.2222  0.0291  0.2387
30735W        W37335   5.849   0.230  10.432 -0.3107 -0.1180  0.0481
30736W        W37336   6.744   3.645  10.397  0.0150 -0.0776 -0.0201
30737W        W37337  22.663   3.103  36.186 -0.2458  0.1001  0.0543
30738W        W37338  16.979   5.522  11.516 -0.1067  0.1538  0.1670
30739W        W37339  20.688   4.475  12.155  0.1241 -0.0741 -0.0338
30740W        W37340  22.443   6.285  11.732 -0.1399 -0.0943  0.0475
30741W        W37341  12.949   2.027   0.182 -0.2538 -0.1330  0.0459
30742W        W37342  16.529   3.514   8.224  0.0395  0.2086 -0.2298
30743W        W37343   9.347   3.947  14.136 -0.0820 -0.1277 -0.0234
30744W        W37344  13.526   1.153  10.442  0.1048 -0.1330  0.1617
30745W        W37345   6.940   3.587   7.515 -0.1142 -0.0212 -0.0976
30746W        W37346  13.725   3.705  25.376 -0.1249 -0.1223 -0.0380
30747W        W37347  13.631   4.080  23.583  0.0731 -0.0707 -0.1340
30748W        W37348  22.117   2.762  22.432  0.0529 -0.1318  0.1806
30749W        W37349  15.864   5.702  23.720 -0.2354 -0.0023  0.0261
30750W        W37350  21.477   3.689  24.215  0.1237 -0.0007  0.0119
30751W        W37351  17.917   5.485  11.470  0.0095  0.3306  0.0064
30752W        W37352   4.723   5.398   4.071 -0.1631  0.0161 -0.0656
30753W        W37353  21.550   3.602  30.931  0.1980  0.2970 -0.0522
30754W        W37354   3.237   2.918  29.269 -0.0586  0.0291 -0.0199
30755W        W37355   1.523   0.468   7.484  0.0109  0.2171 -0.0130
30756W        W37356   7.976   5.701  10.720  0.4024  0.1100 -0.0446
30757W        W37357  19.535   0.628  34.242  0.0025 -0.1350  0.0665
30758W        W37358  17.175   0.305  34.203  0.1421  0.0416  0.3017
30759W        W37359   8.024   2.357  25.092  0.0267 -0.2087  0.0716
30760W        W37360   7.875   0.646   2.528  0.1088 -0.0077 -0.1612
30761W        W37361  25.919   3.375   3.506  0.1485 -0.2096 -0.1169
30762W        W37362   8.602   4.364   1.445  0.0163  0.0071 -0.0239
30763W        W37363  10.981   0.981  34.106 -0.1660  0.2166 -0.0106
30764W        W37364  17.589   0.731  10.648 -0.0476  0.0925  0.0218
30765W        W37365  18.233   5.546  11.872  0.0408  0.0454  0.1780
30766W        W37366  11.561   3.814  15.178  0.0112 -0.0645 -0.1024
30767W        W37367  10.266   2.246   0.322  0.3710 -0.0293  0.2426
30768W        W37368   0.338   4.968  33.777 -0.1395  0.1328  0.1469
30769W        W37369  22.384   5.259  32.776 -0.0652 -0.0032 -0.0033
30770W        W37370  11.673   1.040  32.372 -0.1324  0.0919 -0.1126
30771W        W37371  13.122   3.124   5.632 -0.0047 -0.0879  0.1411
30772W        W37372  13.054   5.371  32.780 -0.1491  0.0905 -0.0203
30773W        W37373  13.512   0.467   1.589 -0.0008  0.0881 -0.2429
30774W        W37374  14.007   0.466   4.195  0.2561  0.3727  0.0153
30775W        W37375   3.754   4.829  34.114 -0.0721 -0.1074 -0.0016
30776W        W37376   5.215   5.662   2.581 -0.0314  0.1591 -0.1380
30777W        W37377  15.068   0.567  29.618  0.2835  0.0222 -0.2189
30778W        W37378  14.945   1.683  23.678  0.0029  0.2050 -0.0469
30779W        W37379   2.691   2.472  29.683  0.0488  0.0120 -0.2440
30780W        W37380   2.162   2.475  25.772 -0.1414 -0.1844 -0.0680
30781W        W37381  23.944   0.620  33.724  0.0818 -0.0279  0.1277
30782W        W37382   7.621   4.013  22.288  0.3818  0.1532  0.2263
30783W        W37383   6.035   5.243   5.874  0.0842  0.0134 -0.1691
30784W        W37384   4.133   3.111   7.198  0.1062 -0.0381 -0.1201
30785W        W37385   9.846   3.214  33.349  0.0819  0.1685  0.0685
30786W        W37386  20.885   2.919  23.123 -0.0170  0.0515 -0.0693
30787W        W37387   0.958   3.780  12.109 -0.2989  0.0149 -0.0049
30788W        W37388  13.938   0.549   3.273 -0.1684  0.0576 -0.1954
30789W        W37389  25.505   3.281  24.545  0.0922  0.0041 -0.2158
30790W        W37390   8.623   1.801  26.779  0.2060 -0.2881 -0.1212
30791W        W37391   6.239   3.826  13.230  0.0287  0.0068 -0.3031
30792W        W37392   6.752   3.113   6.668 -0.1442  0.2357 -0.2195
30793W        W37393  14.957   5.320  27.626 -0.1322  0.2219  0.1676
30794W        W37394  23.148   4.192   7.883  0.0707 -0.3829  0.0510
30795W        W37395  23.647   4.017  12.176 -0.0737 -0.3991 -0.2213
30796W        W37396  19.870   3.061  34.989 -0.1074 -0.1006  0.0077
30797W        W37397  19.587   0.953  30.246  0.2863 -0.0475 -0.3343
30798W        W37398  10.692   4.336  31.972 -0.2103 -0.2131 -0.4442
30799W        W37399  22.461   2.128  33.545  0.0545 -0.1395  0.2814
30800W        W37400   5.619   1.620   3.395 -0.0680 -0.1627 -0.0151
30801W        W37401   8.562   2.659   9.835  0.0502  0.0193  0.0558
30802W        W37402   5.505   2.585  21.646 -0.1080  0.1129  0.1836
30803W        W37403  15.742   3.380  12.740 -0.3406 -0.1325  0.1971
30804W        W37404  10.546   6.499   4.421 -0.0237 -0.1262  0.2979
30805W        W37405   5.299   5.864  11.506 -0.0594 -0.0093  0.3109
30806W        W37406  23.888   3.963  28.559 -0.3529  0.1837  0.1502
30807W        W37407  13.135   1.908  10.920  0.0906  0.2609 -0.0843
30808W        W37408  23.318   6.183  20.707  0.2774 -0.1369  0.2175
30809W        W37409   8.068   5.451  26.940 -0.0993  0.0603  0.1198
30810W        W37410   6.992   3.090   5.479  0.0384 -0.2137 -0.0168
30811W        W37411  20.390   1.118  30.527 -0.0449 -0.2516 -0.0617
30812W        W37412   2.481   4.914  34.268 -0.0622  0.5486  0.0401
30813W        W37413  11.331   2.305   5.054  0.1049  0.1902  0.2917
30814W        W37414   2.343   3.623   6.148  0.0637  0.1188  0.3836
30815W        W37415   2.431   2.696   6.711  0.1862 -0.0460  0.1808
30816W        W37416  13.573   0.955   2.976 -0.1710 -0.1787  0.1261
30817W        W37417   5.154   6.100   0.243  0.0511 -0.1110 -0.1484
30818W        W37418  24.369   4.911  15.619 -0.0207  0.2127 -0.0690
30819W        W37419  25.435   0.302  21.979  0.3273 -0.0441  0.2008
30820W        W37420  25.308   2.464  32.918  0.0878  0.0199  0.1768
30821W        W37421  22.574   5.210  28.570  0.1460 -0.0714 -0.1424
30822W        W37422   6.536   4.906  34.356 -0.1448  0.1256  0.3055
30823W        W37423  22.846   3.462  22.566  0.0752 -0.1289  0.1027
30824W        W37424   0.695   1.938  35.856  0.1296 -0.1795  0.0280
30825W        W37425  10.001   3.155  13.000  0.1047  0.0346 -0.0327
30826W        W37426  20.259   0.263  14.403  0.2071 -0.5129 -0.0475
30827W        W37427   4.272   1.812  26.058 -0.0961  0.1865  0.0515
30828W        W37428  24.294   0.892  29.622 -0.2511 -0.0370  0.2133
30829W        W37429   6.677   1.776  11.044 -0.0114 -0.0612  0.0189
30830W        W37430   3.591   5.963   3.020  0.2220  0.0664 -0.1096
30831W        W37431  16.996   6.215  14.549 -0.0615  0.0252  0.3264
30832W        W37432   0.723   4.843  21.079 -0.2431  0.0498 -0.1312
30833W        W37433  18.830   4.029  12.443  0.0328 -0.2260 -0.0483
30834W        W37434   3.655   5.340  36.077 -0.0138 -0.1880 -0.1019
30835W        W37435  11.608   2.697  29.429  0.0139 -0.0180  0.0286
30836W        W37436   7.013   6.528   9.418 -0.1099  0.2987 -0.0968
30837W        W37437  25.255   2.126  24.106  0.0856  0.0010 -0.1209
30838W        W37438  15.789   4.956   0.723  0.2631  0.2927 -0.1518
30839W        W37439  16.127   3.753  25.892 -0.0516 -0.0502  0.1372
30840W        W37440  26.175   3.992  20.838  0.1566 -0.0249 -0.2400
30841W        W37441   5.871   2.035  10.498  0.0076 -0.0796 -0.0797
30842W        W37442   9.408   1.112  23.284 -0.5794  0.0880 -0.0097
30843W        W37443  16.304   2.534  31.515  0.0925 -0.0364  0.1228
30844W        W37444   7.520   2.834   2.010  0.0169  0.1649  0.0206
30845W        W37445  10.315   5.075  13.536  0.0482 -0.2746 -0.0535
30846W        W37446   4.144   6.485   2.984  0.0420  0.1287 -0.0370
30847W        W37447   2.211   5.404  21.626 -0.1436  0.1799 -0.0571
30848W        W37448   3.145   5.836  30.497  0.1023 -0.1839 -0.3444
30849W        W37449  26.355   4.382  30.596  0.0036  0.0561  0.4367
30850W        W37450  25.404   4.601  30.197 -0.2702  0.0932 -0.0535
30851W        W37451  11.750   1.532  35.338 -0.1314 -0.0809  0.0777
30852W        W37452  23.540   1.901  10.729 -0.1586 -0.1712  0.4505
30853W        W37453   5.616   1.658   8.675 -0.2240 -0.1384  0.0069
30854W        W37454   9.450   6.370  31.620  0.3611  0.2186  0.2005
30855W        W37455  11.066   4.660  10.353  0.0351  0.0024  0.0087
30856W        W37456  14.093   1.543  29.691 -0.2918 -0.0746  0.0292
30857W        W37457   6.459   0.389  25.659  0.3814  0.0193 -0.1860
30858W        W37458   9.209   2.770  33.727 -0.0146 -0.0963  0.2116
30859W        W37459  18.380   3.928  13.486 -0.2715 -0.3482  0.0101
30860W        W37460   7.403   2.680   0.348  0.2405 -0.1676  0.1660
30861W        W37461  12.188   0.882  36.056 -0.0658 -0.0632  0.3196
30862W        W37462  25.151   3.041  14.340  0.0723  0.1938  0.2943
30863W        W37463  25.002   0.181  25.465 -0.0419  0.0937  0.2461
30864W        W37464   3.249   3.566   9.339  0.1390  0.6489  0.1917
30865W        W37465   6.467   0.598   3.478 -0.0228 -0.1115  0.1712
30866W        W37466  15.917   3.940   7.516  0.0380  0.1122 -0.4133
30867W        W37467   4.753   4.116  31.360 -0.1551 -0.3555  0.0943
30868W        W37468  19.821   2.240  13.536  0.0920  0.1908 -0.1193
30869W        W37469  18.065   2.307   8.131  0.1483 -0.1354  0.0548
30870W        W37470  16.512   5.534   8.078 -0.0115  0.3594  0.0009
30871W        W37471  24.069   3.618  27.188  0.1001 -0.2262 -0.2640
30872W        W37472   4.649   5.180   9.446  0.3122 -0.0144 -0.1755
30873W        W37473  26.036   6.530   3.149 -0.1961  0.0313 -0.1014
30874W        W37474  10.678   0.058  15.391 -0.0840 -0.1211  0.0063
30875W        W37475  14.067   5.232  32.028  0.1707  0.0567 -0.5933
30876W        W37476  16.566   5.996  12.140 -0.1588  0.1588  0.0119
30877W        W37477   9.584   2.346   8.753 -0.2790  0.1752 -0.0517
30878W        W37478  22.758   4.893  28.192  0.0999 -0.1726 -0.0742
30879W        W37479  16.443   1.630  31.128  0.0477 -0.2238 -0.1456
30880W        W37480  20.207   4.759  33.049  0.2257 -0.1811 -0.0748
30881W        W37481  25.317   4.929   3.854  0.2227 -0.2270  0.4363
30882W        W37482  25.793   4.321  20.874  0.2239 -0.2903 -0.0060
30883W        W37483  23.828   3.624   6.809 -0.3153  0.1234  0.0431
30884W        W37484   7.526   2.677  35.008 -0.1070  0.0567 -0.0157
30885W        W37485  16.097   5.803  21.807  0.0771  0.2698  0.1173
30886W        W37486  22.266   6.118  28.245 -0.1261  0.1714  0.0775
30887W        W37487   6.340   6.558  27.402 -0.1565  0.2839  0.2976
30888W        W37488  15.701   2.169  27.660  0.3538 -0.2234  0.0453
30889W        W37489  19.839   3.370  14.820 -0.0683  0.0598  0.0599
30890W        W37490  11.132   4.127   3.796  0.0980 -0.1595  0.0405
30891W        W37491  10.500   5.086   7.635  0.0795  0.0880  0.0827
30892W        W37492  11.120   6.294  11.500  0.0752 -0.0872  0.1258
30893W        W37493  10.227   3.627  12.287  0.0113 -0.2362  0.1460
30894W        W37494   3.702   6.113   2.160 -0.1546 -0.1916 -0.0069
30895W        W37495  25.035   4.617   9.675 -0.0198 -0.0658  0.0525
30896W        W37496   9.047   3.418   1.095 -0.1188  0.0425  0.2295
30897W        W37497   4.404   0.720  31.370  0.2164  0.4161  0.1373
30898W        W37498   5.323   3.249   7.808 -0.1432  0.0297  0.0244
30899W        W37499  12.532   1.246  35.936 -0.0571  0.0291 -0.1011
30900W        W37500  18.344   6.433  14.981  0.3019 -0.1456  0.1533
30901W        W37501  24.877   4.209  28.790 -0.2443 -0.1241 -0.0640
30902W        W37502  23.137   4.189  35.457  0.0841  0.0099 -0.2981
30903W        W37503   6.827   2.945  24.760 -0.1672  0.0025 -0.0070
30904W        W37504  16.391   1.226  21.789 -0.0384  0.0068  0.3075
30905W        W37505  18.219   2.243  30.519  0.1257  0.1393  0.3019
30906W        W37506  21.731   1.035  35.082  0.2003  0.1423 -0.6245
30907W        W37507  24.486   1.526  35.120  0.1126  0.3151  0.0867
30908W        W37508  10.331   6.198  34.995 -0.0697  0.2061  0.0706
30909W        W37509  24.549   1.621  10.293 -0.0109  0.0290  0.1836
30910W        W37510  11.155   4.964  26.920  0.1527 -0.3444  0.1741
30911W        W37511  23.458   1.388  24.460 -0.2955  0.0940  0.0524
30912W        W37512  23.058   5.814  35.856 -0.0014  0.1117 -0.2743
30913W        W37513   3.072   3.152   2.598  0.1092 -0.1040  0.1528
30914W        W37514  18.321   0.674   2.973 -0.0790 -0.2145  0.0604
30915W        W37515  20.501   4.575  11.168 -0.0699  0.1725  0.1579
30916W        W37516  25.376   3.612  35.375 -0.1274 -0.0402 -0.1086
30917W        W37517   1.495   0.248   6.318  0.1689  0.0058  0.0791
30918W        W37518  18.056   5.253   1.427  0.3184  0.1652  0.0738
30919W        W37519  21.586   1.131   3.218  0.2096 -0.0832  0.2129
30920W        W37520  21.900   6.372  12.799 -0.0447 -0.2306  0.0209
30921W        W37521  13.813   2.393  36.047  0.2280 -0.1193  0.1059
30922W        W37522  19.024   4.677  31.895 -0.0790 -0.3188 -0.1886
30923W        W37523  21.716   1.214   4.370 -0.1948  0.0048  0.1796
30924W        W37524   1.214   5.483  11.585  0.1137  0.0923  0.1659
30925W        W37525  26.075   0.913   9.267  0.4028 -0.1181  0.0714
30926W        W37526  11.887   4.340  10.613  0.2058  0.4092 -0.0694
30927W        W37527   7.265   2.957   5.058 -0.1380  0.3600  0.0048
30928W        W37528  21.495   3.350  35.194 -0.2555  0.0275  0.1227
30929W        W37529  11.518   3.346  28.683 -0.0155  0.0955 -0.0452
30930W        W37530  26.206   3.372   2.068 -0.1455 -0.2111  0.1937
30931W        W37531   4.725   3.388   2.965 -0.2148 -0.2419 -0.1679
30932W        W37532  23.323   3.469  10.364  0.1347 -0.2744  0.0752
30933W        W37533  18.413   4.861   2.194  0.1342  0.3127 -0.1942
30934W        W37534   6.587   6.069  21.664 -0.6562  0.0992 -0.1360
30935W        W37535   8.745   4.267  30.262 -0.1374 -0.3001 -0.0670
30936W        W37536   9.379   2.961   3.076  0.1966  0.0804 -0.4789
30937W        W37537  26.250   1.186   5.636  0.0359 -0.0092  0.0457
30938W        W37538  20.358   5.394   0.039 -0.1697 -0.1527 -0.0331
30939W        W37539  10.488   5.750   6.157  0.3926 -0.4268 -0.3238
30940W        W37540  11.999   6.172  23.568  0.0601 -0.2638  0.0880
30941W        W37541   8.962   4.215  34.406  0.3662 -0.0205 -0.1191
30942W        W37542   0.686   5.269   7.651  0.1427 -0.0773  0.1623
30943W        W37543  19.090   4.847  12.616 -0.0004 -0.0603  0.0780
30944W        W37544  17.895   4.779   3.962  0.1413 -0.1470 -0.2470
30945W        W37545   3.798   0.218  14.780  0.0356 -0.2436 -0.2258
30946W        W37546  21.926   5.269   8.806  0.1943 -0.2895  0.2790
30947W        W37547   0.260   4.134  13.681 -0.0080  0.0113 -0.0483
30948W        W37548  23.866   3.576  30.399 -0.0788  0.2908  0.1792
30949W        W37549  21.085   4.220  13.077 -0.0506 -0.0432  0.1364
30950W        W37550  19.982   5.137  22.073  0.1077 -0.0367  0.0770
30951W        W37551  21.648   0.688  25.035  0.1689  0.1227 -0.1153
30952W        W37552  18.080   4.219   5.239 -0.0722 -0.5236  0.0485
30953W        W37553  13.612   5.044  15.005  0.0832  0.0814  0.0418
30954W        W37554  18.587   5.747  14.952 -0.0808 -0.0293 -0.1509
30955W        W37555  20.904   2.170   7.376 -0.1078 -0.0929  0.0450
30956W        W37556  18.848   0.985   0.739 -0.0692  0.0653  0.2296
30957W        W37557  11.164   3.929  21.392 -0.0712 -0.1153  0.0864
30958W        W37558  16.597   3.024   4.130 -0.3195  0.0983  0.1349
30959W        W37559  16.875   3.638   2.283  0.0928 -0.0291  0.1622
30960W        W37560   2.013   1.543  27.353 -0.1399  0.0986  0.0182
30961W        W37561  17.732   5.828   8.176 -0.4878 -0.0392  0.1902
30962W        W37562  12.397   4.146  33.437 -0.1911  0.3644 -0.1256
30963W        W37563  26.255   0.792  30.246 -0.4885  0.1297 -0.0531
30964W        W37564  24.369   1.748  32.058  0.0709 -0.2940 -0.0649
30965W        W37565  13.354   1.728  31.827 -0.1008  0.0529 -0.0580
30966W        W37566  20.508   4.018  32.778 -0.0289  0.0286  0.0486
30967W        W37567   8.030   4.289  12.091  0.0798 -0.0280  0.0855
30968W        W37568   8.784   3.562  23.657 -0.3837 -0.2938 -0.0625
30969W        W37569   8.239   1.500  15.397 -0.0896 -0.0397  0.1383
30970W        W37570  23.833   2.721  10.524  0.0060  0.0528 -0.2914
30971W        W37571   6.486   0.959  29.170  0.1817 -0.3531  0.1169
30972W        W37572  16.728   2.049  29.434  0.3909  0.1332  0.3086
30973W        W37573   1.750   3.581  27.684 -0.1041  0.0661 -0.0346
30974W        W37574   9.004   2.396  22.430 -0.2638 -0.0974 -0.0198
30975W        W37575  23.354   0.047   9.826  0.3438  0.2991 -0.0109
30976W        W37576  16.419   1.615  10.445  0.0089  0.0132  0.0164
30977W        W37577   6.567   0.506  28.187  0.0483 -0.3244  0.1101
30978W        W37578   2.963   4.580   1.043 -0.2066  0.1880 -0.1813
30979W        W37579  11.282   6.160   7.658 -0.0748 -0.1967 -0.1068
30980W        W37580   0.034   0.540  21.244 -0.0577 -0.0725 -0.0273
30981W        W37581   9.491   0.268  31.635  0.0282  0.0346  0.1699
30982W        W37582  17.385   1.456   7.236  0.0578  0.1634  0.1853
30983W        W37583   6.026   0.513   9.503  0.1810  0.0144  0.1294
30984W        W37584  22.963   4.351  21.391  0.0933 -0.1111 -0.0382
30985W        W37585  24.161   0.072  33.314 -0.1984  0.4318 -0.0002
30986W        W37586   2.882   5.767  12.245  0.2342 -0.0944 -0.1026
30987W        W37587  21.879   1.747  10.030  0.0549  0.1525  0.0377
30988W        W37588   2.638   5.867  20.817 -0.6032  0.0015 -0.0758
30989W        W37589  20.979   4.403   8.999 -0.1122  0.2411 -0.1998
30990W        W37590   0.433   1.789   4.317 -0.1777  0.0063 -0.1878
30991W        W37591  13.528   0.436   2.899  0.0935  0.2881 -0.0074
30992W        W37592  12.881   4.954  11.446  0.1284  0.0222  0.3522
30993W        W37593  17.470   6.446   2.160 -0.1120  0.0703  0.1653
30994W        W37594   7.820   1.988  28.909 -0.3389  0.1508 -0.3119
30995W        W37595   4.775   0.341   3.281  0.1273 -0.0252  0.3074
30996W        W37596  13.268   5.270   1.587  0.0057  0.1762 -0.1119
30997W        W37597  16.814   1.791  14.073 -0.2225 -0.0474  0.1892
30998W        W37598  17.486   0.251  12.786 -0.1879  0.0155  0.0840
30999W        W37599  11.069   4.456   8.939  0.1517 -0.1015 -0.3325
31000W        W37600  15.279   2.025   6.481  0.1020 -0.1902 -0.0057
31001W        W37601   0.310   0.542  35.556  0.2399  0.0505  0.2405
31002W        W37602   9.239   5.436  29.147 -0.0379  0.0771  0.0948
31003W        W37603   4.432   1.173   0.682 -0.0867  0.1678  0.3583
31004W        W37604  25.345   5.900   8.807  0.0049  0.3905 -0.0394
31005W        W37605   5.765   3.580  21.640 -0.0323 -0.0542  0.0569
31006W        W37606   2.478   1.278  21.427  0.0120  0.2442 -0.1641
31007W        W37607  24.635   4.139   3.339  0.0703  0.0276  0.1112
31008W        W37608  18.697   5.747  13.019 -0.1067 -0.3975 -0.0207
31009W        W37609  14.722   5.578  12.238 -0.0383  0.1173  0.0376
31010W        W37610  16.041   2.307  13.276 -0.2327  0.2050 -0.1675
31011W        W37611   3.877   3.742   4.667  0.1273  0.0753  0.0383
31012W        W37612  13.786   1.439   6.993 -0.1048  0.0548  0.1698
31013W        W37613  11.422   5.917  29.698  0.0098  0.1267 -0.1502
31014W        W37614   8.570   0.771  10.924 -0.1615  0.1440 -0.0884
31015W        W37615   2.875   5.985  13.686  0.1024 -0.1442 -0.2206
31016W        W37616  18.509   3.158  13.814 -0.2338 -0.1097 -0.1451
31017W        W37617   1.873   4.397  20.617 -0.2482 -0.0777 -0.3430
31018W        W37618  23.437   6.206  23.635 -0.2576  0.0941 -0.1479
31019W        W37619  20.873   6.522  35.534  0.0668 -0.3959  0.1300
31020W        W37620  24.181   3.416  33.004 -0.0407  0.2595  0.1807
31021W        W37621  20.057   1.278  22.797  0.3959 -0.1332  0.1311
31022W        W37622   1.522   0.506  30.849  0.1261  0.1757 -0.0657
31023W        W37623   6.427   2.199   4.147  0.0071  0.3226 -0.5555
31024W        W37624  11.204   0.127  32.351 -0.0044  0.2843 -0.1990
31025W        W37625  18.843   2.042   1.008  0.0354 -0.0664  0.1767
31026W        W37626   8.632   0.526  10.470 -0.0058 -0.2128 -0.3250
31027W        W37627  19.234   0.341  26.607 -0.2010 -0.0573 -0.0247
31028W        W37628   2.821   1.941  25.948  0.0556 -0.0968  0.1520
31029W        W37629   6.143   4.718   7.170  0.1869  0.1135 -0.2173
31030W        W37630  23.181   3.113   1.379  0.0383 -0.3318  0.0517
31031W        W37631  14.678   4.767  12.503 -0.0487  0.3032  0.0186
31032W        W37632  20.627   1.786   3.047 -0.2725  0.2869  0.1410
31033W        W37633   4.555   4.275  27.199  0.2009 -0.0866  0.2034
31034W        W37634  15.416   3.770  13.578  0.0309 -0.0955  0.3347
31035W        W37635  17.793   4.900   4.875  0.0704  0.0190 -0.1002
31036W        W37636  16.184   5.250   5.336  0.1784  0.2776 -0.1682
31037W        W37637  23.969   4.243  32.017 -0.0160 -0.0861  0.1005
31038W        W37638  10.857   3.687  13.614 -0.3542  0.0132  0.0588
31039W        W37639  13.398   4.870  26.612 -0.2790 -0.0661  0.1517
31040W        W37640   6.266   4.720   9.660 -0.0372  0.1459 -0.2262
31041W        W37641  22.079   1.534  29.318  0.0866  0.0193  0.0486
31042W        W37642   6.529   2.485  31.579 -0.0276 -0.1205  0.2726
31043W        W37643  20.483   0.833  29.460 -0.0794  0.0346  0.2376
31044W        W37644   9.584   2.969  34.161 -0.1132 -0.2708  0.1600
31045W        W37645  16.989   3.313   1.168  0.1549 -0.0136  0.2261
31046W        W37646  24.900   1.364  22.761  0.0759  0.0643  0.3830
31047W        W37647  15.958   1.771  28.842 -0.2198  0.0538  0.2792
31048W        W37648  26.065   4.728  10.136  0.0860  0.1399  0.1130
31049W        W37649   9.675   0.976  31.266  0.1695 -0.3674 -0.1462
31050W        W37650  19.150   5.248  12.300 -0.1657 -0.2990  0.2138
31051W        W37651  14.031   3.788   6.421  0.1875 -0.0508 -0.0454
31052W        W37652   1.372   2.709  25.297  0.0239  0.1574 -0.0814
31053W        W37653  13.592   2.876   9.641 -0.1508 -0.0346 -0.1304
31054W        W37654  13.767   0.418  33.044  0.1829  0.0688 -0.2673
31055W        W37655   6.082   3.170  26.419  0.2244  0.0591  0.2004
31056W        W37656  15.659   0.727  35.321 -0.0211  0.0341  0.1511
31057W        W37657   3.970   4.242  22.926 -0.1497 -0.1912  0.0069
31058W        W37658  16.980   3.655  34.872  0.0191  0.3104  0.1343
31059W        W37659  16.804   0.036   2.099 -0.0729 -0.0477  0.0308
31060W        W37660  17.959   4.341   3.755  0.1827  0.1235  0.1323
31061W        W37661   9.685   2.460  12.580  0.0587  0.0362  0.0023
31062W        W37662   9.017   3.733   5.363  0.1451 -0.3566 -0.1307
31063W        W37663  22.411   1.658   7.720 -0.4190  0.0992 -0.0940
31064W        W37664   8.783   4.440   4.076  0.1978 -0.0419  0.2185
31065W        W37665   8.946   4.602  27.595  0.0600  0.0791  0.2944
31066W        W37666  13.482   1.252  30.228  0.0868  0.0235 -0.0642
31067W        W37667  16.857   2.441  27.012 -0.1499  0.1221 -0.0915
31068W        W37668  12.726   2.766  24.198  0.2236 -0.2034  0.0422
31069W        W37669   0.137   2.028   5.874  0.1996  0.2506 -0.0926
31070W        W37670   8.720   4.253  15.676  0.1985  0.1696  0.0515
31071W        W37671  20.989   5.067  24.681 -0.3125  0.1747  0.2974
31072W        W37672   4.128   5.254  11.135 -0.0778 -0.0088 -0.2296
31073W        W37673  11.216   4.332   3.268  0.0918  0.0684  0.3038
31074W        W37674  10.230   2.337  12.782 -0.0339 -0.0247 -0.1660
31075W        W37675   9.768   0.576  25.301 -0.1305  0.0917 -0.0004
31076W        W37676   3.565   4.426   0.344  0.2449 -0.0023 -0.0523
31077W        W37677  19.696   2.474  26.454  0.0143 -0.3024 -0.2873
31078W        W37678  21.138   6.177  21.555 -0.0136 -0.6207 -0.2690
31079W        W37679  14.257   6.300   1.415  0.0250 -0.1083 -0.0946
31080W        W37680  26.014   2.269  25.210 -0.2182  0.3023 -0.1081
31081W        W37681  18.995   6.456  28.520 -0.0628 -0.2473  0.1323
31082W        W37682   7.581   2.119   2.214 -0.2478 -0.0836 -0.2454
31083W        W37683   3.173   6.168  31.624  0.1722  0.1235  0.0209
31084W        W37684   3.457   5.027   0.408  0.0055 -0.1150 -0.0735
31085W        W37685  21.180   4.138  25.271 -0.0955  0.2382  0.0440
31086W        W37686  22.183   1.386  12.288  0.0944 -0.1729  0.2277
31087W        W37687  10.616   4.491  32.495 -0.2791 -0.0234  0.0201
31088W        W37688   3.949   0.031   3.811 -0.1338  0.1079  0.1089
31089W        W37689   9.897   2.198   5.882  0.0122 -0.2501 -0.1187
31090W        W37690   6.620   2.125  22.904  0.0662 -0.0623  0.4797
31091W        W37691  17.696   0.209  24.677 -0.0605 -0.2821  0.2159
31092W        W37692  14.489   3.447  22.974  0.0791 -0.1918  0.0499
31093W        W37693  23.438   5.204  30.138  0.2097  0.3148 -0.2775
31094W        W37694   4.953   0.426  11.341 -0.0601  0.1196 -0.2219
31095W        W37695   5.639   3.136   2.718  0.0744 -0.1671 -0.1248
31096W        W37696   7.943   0.898  28.705  0.0939 -0.1005  0.0271
31097W        W37697   8.141   4.399   8.109 -0.2432 -0.0891  0.1010
31098W        W37698  14.367   2.182   2.099 -0.1518 -0.1709 -0.1414
31099W        W37699   7.535   1.139  24.874  0.0367 -0.0450  0.0075
31100W        W37700   9.087   3.595   1.593 -0.2129  0.2616  0.1959
31101W        W37701   1.815   2.583  11.858  0.0870  0.2570  0.0636
31102W        W37702   8.512   2.561  10.428  0.0720 -0.0935 -0.0551
31103W        W37703   9.478   0.698  30.501  0.2602  0.0705 -0.3900
31104W        W37704  14.643   4.593  15.158 -0.1180 -0.2529  0.0994
31105W        W37705   5.682   5.326  31.882 -0.1134 -0.1132 -0.1053
31106W        W37706  25.931   4.898  35.880 -0.3091 -0.1648  0.0973
31107W        W37707  15.577   2.838   3.340  0.0240  0.2115 -0.0467
31108W        W37708  21.013   5.622   5.729 -0.0042 -0.0575 -0.0794
31109W        W37709   5.193   1.915   5.504  0.4777 -0.1720  0.2030
31110W        W37710   1.155   3.198  34.110  0.0955 -0.0815  0.0743
31111W        W37711   1.890   1.306  22.346 -0.2634  0.1784 -0.0493
31112W        W37712  15.443   2.544   6.221 -0.1865  0.1797 -0.3467
31113W        W37713   0.305   6.537  34.469 -0.1308  0.0557  0.0558
31114W        W37714  18.470   4.460   1.373  0.0356 -0.0912  0.2863
31115W        W37715   8.515   3.565  25.599 -0.0123 -0.1257  0.0248
31116W        W37716  11.796   0.868  11.314  0.0057  0.1227  0.0556
31117W        W37717  14.703   6.028  22.953 -0.1841 -0.0919  0.0339
31118W        W37718  19.123   0.978  11.427  0.1864  0.0102  0.1101
31119W        W37719   2.393   2.790   6.148 -0.0374 -0.2555 -0.2539
31120W        W37720  16.796   1.377  10.725 -0.3026  0.1259 -0.0039
31121W        W37721   0.427   1.707  31.256  0.2790  0.2287 -0.2017
31122W        W37722  16.637   0.901  34.888 -0.0192  0.1046 -0.1709
31123W        W37723   1.479   4.638   7.394  0.0343 -0.1353 -0.0191
31124W        W37724   1.948   0.459  26.988 -0.1206 -0.3269  0.1150
31125W        W37725   9.856   0.545   4.877 -0.0066  0.0116  0.1288
31126W        W37726   2.607   6.262   2.931 -0.1169  0.0548  0.1462
31127W        W37727  13.208   5.923  11.028  0.0845 -0.0812 -0.0705
31128W        W37728   7.566   2.139   8.795  0.0497  0.0843 -0.0057
31129W        W37729   0.606   3.532  34.728  0.1002  0.3035  0.0607
31130W        W37730  22.955   1.357   0.369 -0.0699 -0.0144  0.0432
31131W        W37731  23.281   0.215  32.761 -0.0634 -0.0698  0.3426
31132W        W37732   2.135   0.648  35.712  0.2853 -0.1741  0.3082
31133W        W37733  11.635   5.232  12.122 -0.1458 -0.0649 -0.1428
31134W        W37734  13.570   2.149   4.222  0.1389 -0.3682 -0.1031
31135W        W37735   7.559   2.854   8.903  0.2065 -0.0003 -0.2170
31136W        W37736  14.534   3.108  26.973  0.1079  0.1888  0.2098
31137W        W37737  14.704   4.100   8.380  0.2006 -0.1116 -0.0058
31138W        W37738  22.721   0.357   1.600 -0.0435 -0.0155 -0.0114
31139W        W37739   6.721   4.497  24.676 -0.0870  0.0887 -0.0564
31140W        W37740  15.715   0.682   7.309 -0.1720  0.1641 -0.0311
31141W        W37741  17.914   2.277  26.934  0.0169  0.3120 -0.0249
31142W        W37742  15.622   0.815  25.685  0.2506  0.0642  0.0350
31143W        W37743   8.236   0.420  10.757  0.1265 -0.2388 -0.1488
31144W        W37744   2.468   1.825  32.521  0.3163  0.0783  0.3175
31145W        W37745  16.452   0.236  20.766  0.4239  0.0860  0.3378
31146W        W37746  15.155   4.205  27.794 -0.2065 -0.0915  0.1297
31147W        W37747  18.747   1.151  23.045 -0.1995  0.1049 -0.1781
31148W        W37748   9.155   4.980  11.240 -0.0403  0.0563 -0.1193
31149W        W37749  20.765   0.503  22.910  0.2316  0.0162 -0.2447
31150W        W37750  19.283   6.365   6.251  0.0708  0.0511 -0.1877
31151W        W37751  18.357   2.275  31.908  0.2636 -0.1337  0.0540
31152W        W37752   2.160   2.680  31.479 -0.0228 -0.1419 -0.0270
31153W        W37753  24.596   2.430   7.675  0.2091 -0.2575 -0.1296
31154W        W37754   1.499   6.329  26.893  0.1202  0.0697  0.1898
31155W        W37755   8.599   4.537  25.764 -0.1444 -0.1739  0.0741
31156W        W37756  14.626   3.568  26.846  0.2084 -0.1638 -0.1929
31157W        W37757  21.891   0.729   6.753  0.0321  0.1248 -0.0562
31158W        W37758  24.206   2.837   9.331 -0.2597 -0.3498  0.2761
31159W        W37759   7.983   4.209  26.414  0.0318  0.4338 -0.0434
31160W        W37760  17.684   0.575  31.125 -0.0883 -0.0243  0.1904
31161W        W37761  19.374   2.911  31.446  0.0623 -0.0508  0.0255
31162W        W37762  12.186   2.677  24.941 -0.1072  0.3750  0.0916
31163W        W37763  20.386   6.403  14.350  0.1488  0.2350 -0.0840
31164W        W37764   6.422   1.069   3.428  0.0847 -0.3521 -0.1061
31165W        W37765   3.062   4.733   2.194  0.1190 -0.0781 -0.1622
31166W        W37766   1.483   6.587  11.231 -0.1296 -0.1255  0.0289
31167W        W37767   0.273   4.486  28.509  0.1531 -0.3780  0.1034
31168W        W37768   2.559   0.634   7.317  0.0369 -0.0754  0.1065
31169W        W37769  16.613   6.062  24.822  0.0490 -0.2180 -0.2356
31170W        W37770   8.087   1.018   4.015  0.1730  0.0582  0.1244
31171W        W37771  12.802   0.698  21.305 -0.1144 -0.1271  0.4907
31172W        W37772  14.700   2.200  30.647 -0.2959 -0.1866 -0.1433
31173W        W37773  10.449   3.889  32.637  0.0522  0.0785  0.1606
31174W        W37774   7.152   5.719   9.963 -0.1896 -0.2975  0.0327
31175W        W37775  16.329   4.959   0.785  0.3188 -0.0789 -0.2438
31176W        W37776  22.578   0.112  23.801  0.0946 -0.2224  0.2011
31177W        W37777  18.072   1.210  13.755 -0.3636 -0.0322 -0.0219
31178W        W37778   9.604   1.177  27.750  0.1257 -0.1815 -0.1858
31179W        W37779  19.804   6.175  20.636 -0.0958  0.2556  0.2456
31180W        W37780  18.875   6.208  26.993  0.0974 -0.0449  0.0546
31181W        W37781  10.157   1.586   8.488  0.0962 -0.1830 -0.4631
31182W        W37782  26.206   1.766  26.713  0.1162 -0.0956  0.0257
31183W        W37783  22.949   0.669   2.739  0.2399 -0.1515 -0.0768
31184W        W37784  21.832   5.580  25.611  0.1128 -0.0255  0.0198
31185W        W37785   2.711   4.419  33.152 -0.2123  0.1922  0.3109
31186W        W37786   3.682   3.923   0.044 -0.1036  0.2802  0.0091
31187W        W37787   3.127   3.703  28.604  0.0458  0.4015  0.0362
31188W        W37788  15.128   1.221  14.341  0.1161  0.0076  0.0090
31189W        W37789  16.504   4.929  13.121 -0.0139 -0.0005 -0.1318
31190W        W37790   6.303   2.761   2.247  0.1167  0.1684 -0.0745
31191W        W37791  25.520   2.300   6.564  0.0727  0.3269  0.0457
31192W        W37792   3.511   4.975  25.608 -0.0520  0.0598 -0.2699
31193W        W37793  21.426   5.114   4.103 -0.1547  0.0847  0.0421
31194W        W37794   3.164   2.161   9.080  0.2342 -0.1934 -0.2449
31195W        W37795   2.749   4.293  14.703 -0.0227 -0.1618  0.0870
31196W        W37796  10.361   4.187  34.174 -0.1493 -0.0492 -0.0068
31197W        W37797   6.705   0.591   6.957  0.1000 -0.1643  0.0534
31198W        W37798  23.844   0.146   7.792  0.2307 -0.0099 -0.0296
31199W        W37799  18.636   5.113  21.031  0.0072 -0.0080 -0.4261
31200W        W37800  16.847   1.986  16.113  0.1914  0.2160  0.1005
31201W        W37801  12.413   2.721   0.051 -0.1808 -0.1722  0.0547
31202W        W37802   1.396   1.661   0.273 -0.1428 -0.0989 -0.0081
31203W        W37803   4.583   4.175   0.883  0.0238 -0.0508 -0.0603
31204W        W37804  25.816   3.114  23.588 -0.0498  0.0584 -0.0221
31205W        W37805  21.028   1.452   9.586 -0.2151 -0.1902  0.3843
31206W        W37806   3.127   2.211  27.432 -0.0580 -0.0491  0.0845
31207W        W37807  16.998   5.013   7.464  0.2403  0.0283 -0.1134
31208W        W37808  14.765   2.105  21.096  0.2319  0.1543 -0.0800
31209W        W37809  23.595   5.697  23.809  0.1439 -0.2603  0.0056
31210W        W37810  20.459   3.701  33.781 -0.3342  0.0430  0.1183
31211W        W37811   0.071   3.666  35.845 -0.1274  0.2490 -0.1404
31212W        W37812   5.685   5.307   0.142 -0.1508  0.0401  0.0884
31213W        W37813  12.418   2.203  32.928 -0.0275 -0.0375 -0.0506
31214W        W37814   0.829   6.351  22.968 -0.1616 -0.0018 -0.0993
31215W        W37815  24.655   4.435  25.507 -0.0769  0.0249  0.1209
31216W        W37816   8.931   0.714  25.014 -0.1430  0.0338  0.0859
31217W        W37817   8.820   4.653   0.449 -0.1194  0.0280  0.0011
31218W        W37818  21.189   3.611  11.891 -0.1701 -0.1733  0.1338
31219W        W37819  21.446   5.153   2.299 -0.0461 -0.1883 -0.1606
31220W        W37820  10.110   5.433  10.953  0.0336 -0.0974  0.1398
31221W        W37821  20.521   0.936   4.195  0.2773 -0.1967 -0.0516
31222W        W37822   1.721   6.371   9.715 -0.0718 -0.2073  0.0456
31223W        W37823  15.230   0.368  23.221  0.0832 -0.1174  0.0342
31224W        W37824   7.059   4.888  20.671 -0.1377 -0.2174 -0.2493
31225W        W37825  13.122   0.896  34.341 -0.2293  0.0260 -0.1808
31226W        W37826  20.552   5.324   4.955 -0.3457  0.0033 -0.1845
31227W        W37827  18.564   4.886  15.342  0.0175  0.1092 -0.0682
31228W        W37828  22.661   4.495  34.374  0.0366 -0.0132  0.0902
31229W        W37829  21.711   3.535  11.766  0.0536 -0.3192  0.0239
31230W        W37830  11.758   1.451  23.556  0.0548 -0.0610  0.0838
31231W        W37831   5.686   5.454  20.898  0.4408  0.0511  0.3204
31232W        W37832  20.315   2.788   3.357 -0.0740  0.2480 -0.2123
31233W        W37833  13.995   2.509   4.142 -0.0901 -0.2663 -0.3519
31234W        W37834   8.439   0.000  11.681 -0.2152 -0.1582  0.1128
31235W        W37835   8.037   4.310  28.614 -0.2887 -0.1931  0.0352
31236W        W37836   2.133   3.659  21.491 -0.1007 -0.2754  0.0016
31237W        W37837  22.513   4.277   1.187  0.1396  0.3505  0.3410
31238W        W37838   4.766   1.917  28.817 -0.1721 -0.0503  0.0190
31239W        W37839   7.441   1.609   1.120  0.1907 -0.0245  0.1631
31240W        W37840  19.701   0.260  14.243 -0.1071 -0.1514 -0.1110
31241W        W37841   6.421   1.679  25.502 -0.1481 -0.0651  0.0808
31242W        W37842  25.149   3.672  30.306 -0.2117  0.3017  0.1545
31243W        W37843  21.866   0.628  11.232  0.1667  0.1189  0.0031
31244W        W37844  24.822   4.211  33.105  0.0956  0.0727 -0.0440
31245W        W37845  11.770   6.006  10.484  0.0424  0.0350 -0.1130
31246W        W37846  20.271   5.882  11.786  0.2101 -0.0642  0.1521
31247W        W37847  25.488   0.570  12.191  0.3475  0.0836 -0.0089
31248W        W37848  11.640   4.912  26.929 -0.3684  0.0376  0.1701
31249W        W37849  23.436   3.504   2.555  0.0623 -0.2224  0.1506
31250W        W37850   7.949   0.188  11.107 -0.0238 -0.1359  0.0721
31251W        W37851   5.322   6.554  32.201 -0.0945 -0.1298 -0.0117
31252W        W37852  11.592   5.616  24.750 -0.1608 -0.1873  0.0392
31253W        W37853   3.559   6.128  30.683 -0.0779  0.0877  0.1471
31254W        W37854  24.364   2.223  13.439 -0.0302 -0.1336  0.0227
31255W        W37855  18.593   4.821  30.167  0.0981 -0.1906 -0.0312
31256W        W37856   7.597   3.362  31.257  0.2750 -0.2475  0.2079
31257W        W37857  24.712   0.868  20.617 -0.1693 -0.2351  0.0920
31258W        W37858  20.950   4.456  35.890 -0.0665 -0.0011 -0.2676
31259W        W37859   4.694   0.734  23.219 -0.0230  0.2870  0.1906
31260W        W37860  16.429   5.420  21.584  0.1041  0.1220  0.1768
31261W        W37861   5.438   6.606  26.222 -0.0298 -0.1241  0.0672
31262W        W37862   4.791   2.737  33.645 -0.0784  0.1763 -0.3308
31263W        W37863   5.781   0.789   5.314 -0.1836  0.1296 -0.1134
31264W        W37864  16.031   5.776  15.054 -0.0311  0.2206  0.1223
31265W        W37865   3.836   6.553   9.244 -0.1131  0.2250  0.0017
31266W        W37866   5.630   2.086  26.208  0.1273  0.1160  0.1872
31267W        W37867  15.798   1.428   3.227 -0.0983 -0.0623  0.0113
31268W        W37868   2.874   4.246   5.731 -0.0314  0.1678 -0.4106
31269W        W37869   1.163   3.308  13.050  0.1846 -0.2697  0.1758
31270W        W37870   2.823   1.872  12.131  0.0305  0.1874  0.1531
31271W        W37871   6.601   4.037   5.274  0.0827 -0.1269  0.2783
31272W        W37872  15.826   2.536  22.664 -0.4271 -0.0291 -0.2752
31273W        W37873   6.880   6.299  15.150  0.1518  0.0520 -0.2559
31274W        W37874  11.345   4.508   6.928 -0.0792  0.0589  0.0588
31275W        W37875  14.675   0.368   1.171 -0.1042 -0.2436 -0.1889
31276W        W37876  11.364   4.223  15.386  0.0759  0.2250 -0.1987
31277W        W37877  26.032   0.358   1.027  0.0635 -0.3506 -0.0720
31278W        W37878  21.826   1.052   9.619 -0.0226 -0.2919  0.0392
31279W        W37879   8.315   6.591  15.494 -0.0057  0.0742  0.0894
31280W        W37880   6.729   2.033  11.633 -0.2684 -0.2984 -0.1560
31281W        W37881   1.616   2.861  33.968  0.0060 -0.2729  0.0297
31282W        W37882  15.429   6.115  27.197  0.0450  0.0012 -0.0790
31283W        W37883  14.177   5.747   4.091 -0.0840 -0.1340 -0.1043
31284W        W37884  18.566   2.529  21.093  0.0882 -0.0285  0.3420
31285W        W37885   0.431   4.692  32.546 -0.2281  0.0113  0.1033
31286W        W37886   8.977   4.893  32.332  0.0177 -0.1159  0.0133
31287W        W37887  20.578   5.715   1.490 -0.3443 -0.1540 -0.1577
31288W        W37888  13.525   1.573  25.371 -0.2299  0.0468 -0.0994
31289W        W37889  14.738   3.969  20.832  0.1389 -0.0880  0.1985
31290W        W37890  14.325   6.265  34.063 -0.1085 -0.1221 -0.0698
31291W        W37891   4.722   5.624  23.290 -0.1011 -0.0577  0.1581
31292W        W37892  25.308   4.397  20.758  0.1341  0.1063 -0.0450
31293W        W37893   3.331   3.716  23.895 -0.1033 -0.1578  0.2041
31294W        W37894   9.384   5.626  24.383  0.1833  0.2268 -0.0110
31295W        W37895   2.846   4.272   9.978  0.0552 -0.2514  0.2410
31296W        W37896  15.861   5.518   1.800  0.2477 -0.2770  0.2910
31297W        W37897  12.482   6.429   1.793  0.2517  0.2142  0.1677
31298W        W37898  14.307   5.156  33.537 -0.1538  0.2012  0.1613
31299W        W37899  11.900   1.065   6.600 -0.0027  0.3092  0.0074
31300W        W37900  21.632   2.389  34.453  0.0503  0.2145  0.2694
31301W        W37901   6.344   1.887  24.173 -0.3517  0.1136 -0.1336
31302W        W37902   1.642   5.329   5.323  0.0214  0.5501  0.2425
31303W        W37903  10.777   1.764   7.354 -0.2646 -0.3827 -0.0285
31304W        W37904  23.491   4.410  11.622 -0.1546 -0.0274 -0.0886
31305W        W37905  19.416   5.520  24.391  0.1988 -0.0330  0.1729
31306W        W37906   7.705   6.059  32.933 -0.0004 -0.0616  0.1091
31307W        W37907  17.593   6.483  22.911 -0.0247 -0.0169  0.0341
31308W        W37908  11.983   3.313  23.982  0.0277 -0.1080  0.0580
31309W        W37909  22.889   1.719  33.374 -0.0405  0.2079  0.3892
31310W        W37910  18.499   6.177   9.474  0.1682 -0.0980 -0.0163
31311W        W37911   2.394   4.633  10.138 -0.4321 -0.1681  0.1555
31312W        W37912   6.272   2.345  23.405  0.0506  0.1300  0.0248
31313W        W37913   7.690   5.123  29.008 -0.0701  0.1280  0.1440
31314W        W37914   4.023   3.616  15.964  0.0250 -0.0378 -0.0662
31315W        W37915  10.300   4.757  15.330  0.0840  0.5362 -0.0753
31316W        W37916  23.201   2.294  29.464 -0.2818 -0.0956 -0.0631
31317W        W37917  18.736   5.852   5.822  0.1399 -0.1223 -0.0034
31318W        W37918  17.451   6.457   0.807 -0.1576  0.3054  0.0657
31319W        W37919   8.148   6.395  14.991  0.1714 -0.0070  0.1319
31320W        W37920  15.278   0.903  11.408 -0.1198 -0.1950 -0.1671
31321W        W37921   8.116   5.777  32.620 -0.0258  0.1196 -0.0784
31322W        W37922  11.106   0.894   2.289  0.0103  0.0327  0.0448
31323W        W37923  11.780   2.246  13.984 -0.0760 -0.0145  0.1234
31324W        W37924  22.834   3.339  29.729  0.1030  0.2614  0.2081
31325W        W37925  17.606   2.744   2.602  0.3533  0.2271 -0.0318
31326W        W37926   6.147   2.394  35.074  0.0453  0.4049 -0.1367
31327W        W37927  22.050   1.027   1.506  0.2087  0.2058 -0.0336
31328W        W37928   9.122   5.760  32.201 -0.0097  0.0586  0.1867
31329W        W37929  10.540   2.745  24.233 -0.2242 -0.1211  0.1233
31330W        W37930  15.876   2.627  12.073 -0.2084 -0.1151  0.2841
31331W        W37931  16.163   6.088   0.219 -0.1659 -0.0722 -0.0642
31332W        W37932   2.219   3.203   0.606  0.0529 -0.1226  0.3221
31333W        W37933  16.314   5.583  35.197 -0.1810 -0.0790  0.0819
31334W        W37934   1.880   1.048  28.552 -0.1768  0.0705 -0.0395
31335W        W37935   6.764   2.493   3.935  0.0379 -0.0602 -0.0898
31336W        W37936   9.273   6.272  28.645 -0.0982 -0.3928 -0.1470
31337W        W37937  22.038   0.691   4.605 -0.3523 -0.1017  0.0819
31338W        W37938  16.590   0.059  27.314 -0.2042  0.0253 -0.1449
31339W        W37939  17.804   6.112  14.222  0.1309  0.2042  0.4176
31340W        W37940  17.417   3.702  30.451  0.4094  0.1749 -0.0236
31341W        W37941  12.071   4.571   7.822  0.0677  0.4961  0.3143
31342W        W37942  10.507   4.887   2.690 -0.2201  0.0845 -0.1546
31343W        W37943   4.002   5.711  34.274  0.0853 -0.0105  0.0146
31344W        W37944  22.964   1.253  20.950 -0.1661 -0.2145 -0.1116
31345W        W37945   1.802   3.692   1.434  0.1006 -0.0718  0.0180
31346W        W37946   1.458   3.306  25.868 -0.1461 -0.1886  0.0957
31347W        W37947  22.339   4.914  25.207 -0.1484 -0.4856  0.0205
31348W        W37948  15.207   6.382  11.775  0.1121  0.1571 -0.1355
31349W        W37949   4.443   0.651  29.302  0.0753 -0.2458 -0.1135
31350W        W37950   4.441   4.895  25.281  0.0191  0.1134 -0.0658
31351W        W37951  15.362   2.414  31.195  0.0960 -0.0323  0.0505
31352W        W37952  19.166   1.667  28.387 -0.2276 -0.2315 -0.1099
31353W        W37953  21.546   1.166   8.430 -0.1728  0.2463  0.0231
31354W        W37954   5.317   4.189  13.622  0.0817  0.0982  0.1358
31355W        W37955  15.246   3.384  26.248  0.1822 -0.3178 -0.1900
31356W        W37956   6.225   6.453  30.822  0.1104  0.1141 -0.2453
31357W        W37957  11.450   2.762   1.908 -0.1123 -0.1430  0.0446
31358W        W37958  19.168   1.580  13.236  0.1008  0.1401 -0.2651
31359W        W37959  25.429   0.558  21.124  0.1702  0.1352 -0.1787
31360W        W37960   7.414   4.435   0.387 -0.4015 -0.1736  0.2444
31361W        W37961   5.313   1.983  30.840 -0.2458 -0.0334  0.0769
31362W        W37962   5.438   1.657  10.644  0.0710 -0.0635  0.0769
31363W        W37963  17.315   5.265   8.727  0.5418 -0.3296  0.0920
31364W        W37964  21.843   2.781  35.800 -0.1395 -0.0388  0.0519
31365W        W37965   2.205   6.246  27.953 -0.1621  0.1764  0.0772
31366W        W37966  10.039   0.337  24.301 -0.1711 -0.2145 -0.1353
31367W        W37967  15.337   5.054  28.701  0.1591  0.0280 -0.0582
31368W        W37968  18.959   3.293   0.861 -0.0374  0.0976 -0.0989
31369W        W37969   3.019   2.696   2.914 -0.0143  0.1104  0.1675
31370W        W37970   1.439   2.729  30.875  0.0881 -0.3001  0.0410
31371W        W37971   5.969   4.492   4.955  0.3055 -0.0792  0.1004
31372W        W37972  17.390   3.964   1.812 -0.0579 -0.0701 -0.2857
31373W        W37973  17.900   6.484  24.957 -0.1318 -0.3753  0.1623
31374W        W37974  11.286   0.520  12.036 -0.0815  0.1266  0.1488
31375W        W37975  13.218   5.905  29.976 -0.0645 -0.5663  0.1294
31376W        W37976   3.967   5.234  23.070  0.2209  0.2907 -0.2559
31377W        W37977  20.368   2.241  24.754  0.1965 -0.0467  0.0155
31378W        W37978   5.562   1.870   9.913  0.0238  0.2014  0.2004
31379W        W37979  13.221   1.594   4.539 -0.0641 -0.2857 -0.1668
31380W        W37980  22.413   2.364  13.163 -0.0311  0.1527  0.0917
31381W        W37981   2.287   5.222  29.546  0.0156 -0.3016 -0.0808
31382W        W37982   4.029   0.014  20.787  0.1899  0.2052  0.2236
31383W        W37983  13.706   5.522  28.473  0.2001 -0.0173  0.0633
31384W        W37984  16.961   6.244   5.327  0.0280  0.4047 -0.4082
31385W        W37985   1.773   4.267  11.365  0.2103  0.0847  0.0419
31386W        W37986   1.402   1.134   0.221 -0.1135  0.1218  0.0946
31387W        W37987  21.079   3.021  30.255  0.1016 -0.0182  0.2093
31388W        W37988  19.008   1.563  33.264  0.0453  0.0344  0.0870
31389W        W37989  17.868   5.710  13.789  0.2050  0.1951  0.1356
31390W        W37990   9.778   0.840  23.030 -0.0353 -0.1814  0.1519
31391W        W37991   2.138   6.467  31.540 -0.0711  0.0496  0.2381
31392W        W37992  19.004   6.406  13.669  0.1109  0.0550  0.1236
31393W        W37993   7.095   1.995  33.874  0.0889 -0.0305 -0.1101
31394W        W37994  17.624   1.419  24.609  0.0023 -0.2503  0.0548
31395W        W37995  11.956   6.252   0.120  0.0832 -0.2301  0.0122
31396W        W37996   2.154   3.335   2.555 -0.0283 -0.1695  0.0625
31397W        W37997  21.161   4.431   2.571  0.1660  0.2438  0.0509
31398W        W37998  12.468   4.733  12.309 -0.0448  0.3079  0.1379
31399W        W37999  15.929   4.517  33.948  0.2371 -0.1401 -0.1879
31400W        W38000   9.846   5.614  28.613  0.0756  0.2179  0.1392
31401W        W38001  25.687   6.028   0.701 -0.0366  0.1197 -0.0039
31402W        W38002  15.960   5.730   0.444 -0.0168  0.0350  0.1943
31403W        W38003  21.237   2.838  35.686  0.1306  0.0380  0.1140
31404W        W38004  23.780   3.724  22.343  0.0919  0.0902 -0.1741
31405W        W38005   3.379   5.188   2.822 -0.1286  0.0684 -0.6870
31406W        W38006  20.421   1.466  23.973  0.1236  0.1141  0.1533
31407W        W38007  18.496   3.834  25.569  0.0786  0.1603  0.2419
31408W        W38008  23.904   0.308  24.164  0.1838  0.0835 -0.1288
31409W        W38009  24.937   4.001   5.508 -0.0515 -0.0188 -0.2249
31410W        W38010   1.920   1.637  13.512  0.0628  0.0140  0.0250
31411W        W38011  25.958   3.195  22.073 -0.0820 -0.0509  0.0757
31412W        W38012   2.089   4.510   6.778  0.0682  0.2595 -0.2299
31413W        W38013  24.537   2.834  23.923 -0.1241  0.0459  0.2608
31414W        W38014  22.317   1.380  32.701  0.0388 -0.0336  0.3765
31415W        W38015  22.328   1.582  10.327 -0.1255  0.5328 -0.0110
31416W        W38016  24.811   4.424  14.867 -0.0593 -0.0255 -0.0779
31417W        W38017  10.177   0.601  32.225  0.1906  0.0990  0.0911
31418W        W38018  21.748   6.295  28.997 -0.1297  0.1003 -0.0424
31419W        W38019  23.831   0.989  26.965 -0.1284  0.1254 -0.0103
31420W        W38020  18.691   5.907   8.119  0.0636 -0.3355  0.1404
31421W        W38021   9.970   1.503  22.325 -0.1685  0.2500  0.1172
31422W        W38022  23.642   4.516   2.361 -0.0350  0.2062 -0.0119
31423W        W38023  23.180   6.413   4.724 -0.0092 -0.3165 -0.0737
31424W        W38024  19.531   5.113   2.720  0.1152  0.0096 -0.1160
31425W        W38025   4.221   3.268   5.407  0.1445 -0.1357 -0.4482
31426W        W38026  24.788   0.738   0.352 -0.2443 -0.2769 -0.0095
31427W        W38027  16.661   2.423   2.728 -0.0557  0.1155  0.0795
31428W        W38028  11.997   0.016  34.417 -0.0233  0.0823  0.0640
31429W        W38029   1.406   0.027   4.220 -0.3127 -0.0831 -0.1929
31430W        W38030  17.139   3.601  12.947  0.2602  0.0617  0.0282
31431W        W38031  24.997   0.385  21.439  0.2279  0.0979  0.1416
31432W        W38032   8.226   0.570  10.270  0.0273 -0.1851  0.0197
31433W        W38033  19.254   1.357   1.649  0.0627  0.2457  0.0290
31434W        W38034  20.378   3.157   8.781 -0.0030 -0.1461 -0.1549
31435W        W38035  25.186   0.763   0.033  0.0676 -0.2454  0.0482
31436W        W38036  13.447   4.218  21.328 -0.1570  0.1611 -0.0587
31437W        W38037  11.417   0.089   7.000 -0.2261 -0.0378  0.2162
31438W        W38038  11.211   3.090  33.086  0.2562  0.0566 -0.1044
31439W        W38039   4.357   5.680  35.152  0.1642 -0.2861 -0.1443
31440W        W38040   2.715   3.178  35.813 -0.0006 -0.0843 -0.2031
31441W        W38041  18.167   0.755  26.663  0.0411 -0.0821 -0.3419
31442W        W38042   1.630   6.600  23.854 -0.0649  0.2018 -0.0499
31443W        W38043   7.978   0.547  32.445 -0.0266  0.2683  0.1125
31444W        W38044   7.704   1.534   6.607  0.2674  0.1095  0.3519
31445W        W38045  16.798   5.977  32.418  0.1274 -0.2469  0.1838
31446W        W38046  21.401   4.652  35.645  0.1873  0.2968 -0.0270
31447W        W38047  24.053   1.336  11.827  0.5265 -0.1062  0.4422
31448W        W38048  16.970   6.488  35.941  0.0629  0.1067  0.0905
31449W        W38049  24.776   5.308  33.297  0.0771  0.2301 -0.3287
31450W        W38050  17.964   2.528   3.376  0.1645 -0.1801  0.0980
31451W        W38051  13.669   5.214  27.191  0.0298  0.2221  0.1718
31452W        W38052  18.959   1.739  23.913 -0.0349 -0.2212 -0.0620
31453W        W38053  17.900   2.859  35.708  0.1811  0.1692  0.3529
31454W        W38054  16.042   5.888  11.981 -0.0495 -0.2305 -0.0802
31455W        W38055  19.588   1.120   5.718  0.1446  0.0519  0.0947
31456W        W38056  24.281   2.500   0.662  0.2043 -0.3844  0.0458
31457W        W38057   0.936   5.737  21.091 -0.0493 -0.1029  0.2436
31458W        W38058  17.486   4.678  27.642 -0.1545 -0.2182  0.4292
31459W        W38059   9.846   4.562   4.344  0.2157 -0.0896  0.2318
31460W        W38060  17.553   2.777   3.307  0.1296 -0.0127  0.1172
31461W        W38061  14.735   1.916  33.157 -0.3320  0.0353  0.0350
31462W        W38062  19.530   3.117  28.413  0.2077  0.0702  0.1288
31463W        W38063   1.371   3.408   0.114  0.2106 -0.3355  0.0896
31464W        W38064   1.702   3.954  33.105 -0.1202  0.0288  0.0804
31465W        W38065  10.261   5.794  11.296 -0.0466  0.0575  0.0203
31466W        W38066  15.242   6.196  26.298  0.0862 -0.2245 -0.0148
31467W        W38067  20.997   5.121   5.011  0.0286 -0.2746  0.3899
31468W        W38068   8.194   4.547  34.120  0.2020  0.3885  0.1225
31469W        W38069   4.996   1.760   7.901  0.2160  0.3358 -0.2551
31470W        W38070  21.902   4.427  20.454 -0.4049 -0.1766  0.0633
31471W        W38071  17.338   5.372  31.405  0.1997  0.1536 -0.0315
31472W        W38072   4.089   0.157   7.835  0.0870 -0.1183  0.4334
31473W        W38073   7.185   4.298  15.542 -0.2793  0.2182  0.0695
31474W        W38074  17.985   0.539  35.342  0.1908 -0.0382  0.0204
31475W        W38075   2.287   4.168  15.571  0.2967  0.1103  0.2943
31476W        W38076  18.148   1.915  11.369  0.0489  0.1067  0.0023
31477W        W38077  23.699   4.761  20.962  0.0002 -0.1565 -0.1177
31478W        W38078   9.486   2.862   8.605  0.0497  0.3328 -0.0011
31479W        W38079  18.424   3.508  34.729  0.1900  0.3311 -0.0611
31480W        W38080  11.705   4.219  28.615 -0.1920 -0.0262  0.2869
31481W        W38081   0.802   5.605   3.819  0.0835 -0.1872 -0.1643
31482W        W38082  21.117   6.094  10.519 -0.0060 -0.1789  0.2103
31483W        W38083  12.007   2.351  23.663 -0.0260  0.0301 -0.0211
31484W        W38084   5.247   5.216   5.203 -0.0519 -0.1539  0.0868
31485W        W38085  18.588   4.545  30.683 -0.2358 -0.2272 -0.0210
31486W        W38086   3.347   2.664  10.237 -0.2087  0.2008  0.1206
31487W        W38087  26.320   3.181   9.723 -0.3632  0.3341  0.1229
31488W        W38088   2.463   1.293   7.850 -0.0493  0.0065  0.2692
31489W        W38089   6.238   3.915   9.925  0.0588  0.2761  0.0414
31490W        W38090   6.734   4.682  22.121 -0.2724 -0.2268 -0.1320
31491W        W38091  23.186   1.085   6.520  0.2034  0.1875  0.0266
31492W        W38092  20.072   5.366  10.869 -0.4615  0.2557  0.1508
31493W        W38093  20.036   1.069  25.362 -0.3766  0.2586 -0.0525
31494W        W38094   3.747   2.385  11.533  0.2479 -0.1832  0.0635
31495W        W38095  18.571   5.311   2.396 -0.1562 -0.1168  0.0259
31496W        W38096   0.508   2.444  27.118 -0.1000 -0.0400  0.1384
31497W        W38097  21.672   6.319   4.528 -0.0136 -0.2098 -0.1203
31498W        W38098  23.632   0.073  35.345 -0.2768  0.0357 -0.0698
31499W        W38099  13.166   4.090  34.544  0.0682  0.0983 -0.0891
31500W        W38100   9.529   4.826  30.223 -0.0673  0.0836  0.2761
31501W        W38101  15.425   2.865  30.393 -0.4540 -0.0326 -0.1169
31502W        W38102  16.880   3.084  36.093  0.0120  0.0392 -0.1988
31503W        W38103   3.147   2.805  15.258 -0.1653  0.4362 -0.2089
31504W        W38104  21.569   0.238  22.757  0.2219  0.0239 -0.2459
31505W        W38105  16.151   2.525  21.418  0.1163 -0.2286  0.0074
31506W        W38106  18.684   2.387  22.535  0.0508 -0.0111 -0.0869
31507W        W38107  25.038   0.103   8.473 -0.3805 -0.1496 -0.2235
31508W        W38108  16.894   6.036   3.876  0.3209 -0.1784  0.2148
31509W        W38109   3.586   1.459  32.162 -0.2514  0.2364  0.1937
31510W        W38110  17.326   6.220   9.492  0.2472  0.4272 -0.0677
31511W        W38111   7.009   1.598  20.504 -0.2958  0.0124 -0.2025
31512W        W38112  24.235   4.462  21.421  0.3742  0.0600 -0.1608
31513W        W38113   2.677   2.345  27.097 -0.1634 -0.0566  0.2519
31514W        W38114  25.811   5.172   5.282  0.1884  0.3098  0.1870
31515W        W38115  18.732   4.951   4.408  0.0142  0.0033 -0.1202
31516W        W38116  13.006   3.171   6.968 -0.1034 -0.0239  0.3890
31517W        W38117  20.775   1.429  25.615 -0.1307 -0.0362  0.1595
31518W        W38118  17.260   0.290  25.707  0.0322  0.1341 -0.0279
31519W        W38119  10.572   3.838  10.386 -0.0334 -0.1703  0.0651
31520W        W38120  13.902   0.528   4.750 -0.1788  0.2288  0.2251
31521W        W38121  19.757   0.147  34.345  0.1500 -0.1808  0.2687
31522W        W38122  14.875   5.580   3.143  0.0470 -0.2322  0.0929
31523W        W38123  24.154   0.361  32.251 -0.1014  0.0538 -0.3482
31524W        W38124  23.455   0.429  26.404  0.1759 -0.1028 -0.1380
31525W        W38125   1.647   3.648  12.127  0.0224  0.1784 -0.1057
31526W        W38126   2.960   5.316   0.691 -0.0765 -0.0342  0.0013
31527W        W38127  26.264   0.107  12.491 -0.0331 -0.2160 -0.2931
31528W        W38128   0.661   4.321   3.036 -0.0203 -0.0006  0.0984
31529W        W38129  22.783   3.370  12.522  0.1367  0.0457  0.0064
31530W        W38130   2.344   1.183  22.716 -0.1168 -0.0488  0.1857
31531W        W38131  13.932   6.463  32.528 -0.0149  0.1317  0.3847
31532W        W38132   7.248   2.250   3.840 -0.0692  0.1801  0.2319
31533W        W38133   0.932   6.207  12.966  0.0208 -0.1454  0.1495
31534W        W38134   4.915   4.748  11.880  0.0968 -0.2397  0.0830
31535W        W38135   0.010   4.885  31.494 -0.0812 -0.1280 -0.0430
31536W        W38136   4.324   3.417  30.554 -0.4940  0.0558 -0.0692
31537W        W38137  21.141   1.041  22.004  0.1264 -0.0692  0.1598
31538W        W38138  24.238   3.208  28.459  0.0144  0.1167  0.0835
31539W        W38139  24.593   5.919  10.328 -0.0435 -0.0653 -0.0042
31540W        W38140   1.234   2.489  22.555 -0.2389  0.2135  0.1786
31541W        W38141  24.221   0.758  13.357  0.0821 -0.2248 -0.0540
31542W        W38142  26.012   0.881   7.639 -0.3013 -0.0765  0.1282
31543W        W38143   0.490   0.416   3.887 -0.1707 -0.0747  0.0113
31544W        W38144  22.845   2.909   4.080 -0.5168  0.0371  0.2389
31545W        W38145  10.188   6.591  35.767  0.2087 -0.0508  0.1376
31546W        W38146  11.403   0.646  35.430 -0.0617 -0.0160  0.1392
31547W        W38147   9.434   1.577  26.844  0.1222 -0.0679 -0.0992
31548W        W38148  15.024   5.387   4.150 -0.0795 -0.0933 -0.1622
31549W        W38149   2.886   4.185  32.657 -0.0491 -0.1516  0.0088
31550W        W38150  11.024   3.030   4.757  0.0574  0.2537 -0.0577
31551W        W38151   6.131   0.841   1.631  0.2328 -0.0429  0.2856
31552W        W38152  22.246   2.777   4.690 -0.1405 -0.1018 -0.0922
31553W        W38153  20.993   3.674  23.895  0.0313  0.0047 -0.0265
31554W        W38154   3.456   3.264  13.966  0.1923  0.0138 -0.0401
31555W        W38155   9.371   6.346   0.049 -0.1190  0.3768  0.0035
31556W        W38156  13.772   2.536  23.418  0.2840  0.0928 -0.0497
31557W        W38157   7.094   1.119  21.207  0.0354  0.1765 -0.2405
31558W        W38158   8.892   5.169  34.003  0.1391 -0.1602 -0.1831
31559W        W38159  21.094   0.240  36.018  0.1217 -0.0101 -0.0722
31560W        W38160  14.130   2.537  34.836  0.3150 -0.2850 -0.2569
31561W        W38161   3.598   6.007   5.689 -0.0273 -0.1239  0.1028
31562W        W38162  15.176   0.148   8.397  0.2466 -0.4585 -0.0357
31563W        W38163  22.812   2.504  35.612 -0.0425  0.1284  0.1312
31564W        W38164   1.275   3.640  32.800  0.0191  0.1921  0.2058
31565W        W38165  18.474   5.317  32.563  0.2562 -0.0415 -0.1925
31566W        W38166  14.452   2.754  10.251 -0.1681  0.0647 -0.0749
31567W        W38167   3.212   3.626   0.948  0.5848 -0.2384 -0.0782
31568W        W38168  21.212   1.053   7.337  0.1227  0.0151 -0.1828
31569W        W38169   0.153   5.817   7.508 -0.1977 -0.1804 -0.0457
31570W        W38170  11.965   4.395   1.537 -0.0727  0.1145 -0.0845
31571W        W38171  10.648   5.384  35.322  0.2242  0.0858 -0.0284
31572W        W38172   2.939   3.416  33.030 -0.0779  0.1767  0.1125
31573W        W38173   8.566   1.916   1.805  0.1221 -0.2130 -0.0224
31574W        W38174   3.823   0.448  22.104  0.0107 -0.0029  0.1344
31575W        W38175   0.467   3.908   4.719  0.3004  0.2594 -0.0403
31576W        W38176   2.416   5.650  30.935  0.1185  0.2742 -0.0191
31577W        W38177  21.758   2.984   1.328 -0.3026  0.4095 -0.1198
31578W        W38178  24.943   0.675  12.110  0.2327 -0.1190  0.1803
31579W        W38179   5.736   1.071  12.092  0.2493 -0.1460 -0.1886
31580W        W38180  20.549   2.346  25.714 -0.2966 -0.0085  0.2425
31581W        W38181  12.124   2.833  11.558  0.0128  0.1445  0.3175
31582W        W38182   2.631   2.779  28.288 -0.1643  0.2993 -0.0442
31583W        W38183  16.219   1.052  13.493 -0.1037 -0.1904 -0.1991
31584W        W38184  15.736   2.222   8.995 -0.0962 -0.2065  0.4816
31585W        W38185   3.391   0.926  23.736 -0.1889 -0.0744  0.0420
31586W        W38186  19.610   5.922  11.934 -0.1726 -0.0059  0.1007
31587W        W38187   1.114   6.312   4.537 -0.0838 -0.3477 -0.1627
31588W        W38188  19.222   0.749  12.896  0.2509 -0.1198  0.2302
31589W        W38189   5.152   1.257  28.469 -0.1574  0.0128  0.1523
31590W        W38190   3.697   4.518  25.359 -0.3254  0.3449 -0.0726
31591W        W38191  22.932   3.856  33.606  0.0480  0.0872 -0.0986
31592W        W38192   7.168   1.323  14.516  0.1860  0.2401 -0.4585
31593W        W38193  12.682   3.166   3.876 -0.0049  0.1488  0.0963
31594W        W38194   0.967   2.628  31.436 -0.2335  0.1303  0.0926
31595W        W38195   9.991   5.651  21.803 -0.0089  0.1655 -0.2318
31596W        W38196  16.055   0.532   0.950  0.2016  0.1031 -0.1356
31597W        W38197   8.879   1.218  10.709  0.0600 -0.1061  0.0887
31598W        W38198  14.691   2.672  13.450 -0.0049  0.0197 -0.0328
31599W        W38199  17.149   4.034   6.958 -0.0577  0.0267  0.2111
31600W        W38200  17.519   3.871   7.239  0.0295  0.0280 -0.0746
31601W        W38201   9.361   3.061   3.596 -0.0551 -0.3565  0.2443
31602W        W38202  18.147   3.641  21.229  0.0996  0.2894  0.4046
31603W        W38203  13.837   1.658  29.211 -0.1817 -0.0746 -0.0548
31604W        W38204  21.709   1.291   3.755  0.2187  0.4277 -0.2654
31605W        W38205  10.794   4.696  23.436  0.0900 -0.0535  0.0651
31606W        W38206  15.844   1.377  31.856 -0.0199  0.0488 -0.1241
31607W        W38207   3.671   2.306   6.093  0.0911 -0.4837 -0.3274
31608W        W38208   5.786   1.324  20.894 -0.0831 -0.2052 -0.1045
31609W        W38209  14.687   5.170   5.988  0.0142  0.0115 -0.2282
31610W        W38210  11.059   2.201  23.561  0.0919  0.2159 -0.0273
31611W        W38211  22.384   4.318   3.622  0.0563  0.1717  0.3093
31612W        W38212  13.373   4.659  26.165 -0.5065  0.0915 -0.0456
31613W        W38213  19.664   0.666  27.443  0.0247  0.2418  0.3365
31614W        W38214   4.478   0.393  13.192 -0.0223  0.0066 -0.0205
31615W        W38215  11.065   0.204  27.943 -0.1089 -0.3175  0.3693
31616W        W38216   3.656   1.665  12.366 -0.1637  0.3203  0.0750
31617W        W38217  23.127   1.340  13.879  0.1498  0.1449 -0.0481
31618W        W38218  14.818   3.820  31.261 -0.2819 -0.0901  0.0608
31619W        W38219  24.995   6.098   5.467 -0.3777  0.0714 -0.2125
31620W        W38220  10.993   6.452  10.126  0.2198 -0.0253 -0.2897
31621W        W38221  12.621   2.946   5.189  0.0102  0.1343  0.2343
31622W        W38222  18.974   2.093   4.845  0.0006 -0.1539 -0.0957
31623W        W38223  18.394   1.692  23.233 -0.0337  0.0028 -0.1428
31624W        W38224   4.250   2.334   9.629 -0.2949 -0.0649  0.0491
31625W        W38225   1.500   0.798  31.682  0.1106 -0.1031 -0.0012
31626W        W38226   4.771   3.476  34.746 -0.2524 -0.2811  0.1954
31627W        W38227   6.384   4.942  24.609  0.1523 -0.1683  0.1522
31628W        W38228  20.129   1.943   7.293  0.4451  0.0097  0.2687
31629W        W38229  17.750   6.535  31.717 -0.2667  0.1617  0.2686
31630W        W38230  13.982   5.063  34.644 -0.0627 -0.0779  0.0604
31631W        W38231   2.990   5.370  24.853  0.1648 -0.0042  0.1060
31632W        W38232  25.332   3.209  26.889  0.4096 -0.0356 -0.1051
31633W        W38233  18.091   6.547  35.609  0.2306  0.0424 -0.0759
31634W        W38234   3.267   3.654  12.277  0.0889 -0.0484  0.2394
31635W        W38235  22.699   1.563  26.280  0.2156 -0.0292  0.2520
31636W        W38236  15.581   6.539   3.122  0.1277  0.0573 -0.1560
31637W        W38237  10.310   3.964   1.645 -0.0075 -0.2701 -0.0928
31638W        W38238  17.114   2.070   9.134  0.2574  0.3009  0.2040
31639W        W38239   5.212   5.431  23.001 -0.2145 -0.1130  0.3277
31640W        W38240  23.544   1.245  32.705 -0.0251 -0.1746 -0.1226
31641W        W38241   6.824   3.943  14.908 -0.0255 -0.5555  0.0598
31642W        W38242  18.414   5.158  14.906 -0.1473  0.1197  0.0875
31643W        W38243   9.652   4.501   5.805  0.0283 -0.1118  0.1679
31644W        W38244   1.082   0.959  14.681  0.2065 -0.0013  0.1911
31645W        W38245  23.995   4.600  13.366  0.2228  0.0801  0.3492
31646W        W38246   4.956   0.154  27.541 -0.0702 -0.0078 -0.1790
31647W        W38247  17.883   4.288  32.333  0.1040 -0.1656 -0.0951
31648W        W38248  21.385   6.027  22.615  0.2266 -0.1806  0.0283
31649W        W38249   3.970   3.533  21.067  0.2080  0.0051 -0.1659
31650W        W38250   6.438   1.951  32.554 -0.0194  0.1038 -0.1404
31651W        W38251  23.584   4.001  31.275  0.0752  0.0307  0.0116
31652W        W38252  12.369   6.075   1.452  0.1084 -0.3739 -0.0195
31653W        W38253  18.744   1.612  21.119  0.0340 -0.1118  0.1839
31654W        W38254  12.333   1.571  34.181  0.0239 -0.0338 -0.1836
31655W        W38255  24.659   3.407   4.043  0.0378 -0.1543  0.1548
31656W        W38256  18.002   1.811  13.722  0.2796  0.1052  0.0911
31657W        W38257  24.832   3.417   7.963 -0.1476 -0.0957 -0.0305
31658W        W38258  15.128   5.212   6.921 -0.1310  0.1301  0.1433
31659W        W38259   0.467   2.882  31.723 -0.0517 -0.2242  0.3162
31660W        W38260   8.286   5.512  14.515  0.2309 -0.2218  0.0543
31661W        W38261   2.386   0.947  29.722 -0.0798 -0.2607 -0.1250
31662W        W38262  14.015   4.203  24.368  0.0395 -0.1764 -0.1815
31663W        W38263  23.573   6.421  34.663 -0.1304  0.2595 -0.1066
31664W        W38264  19.671   1.075  10.711  0.1412 -0.0660  0.0370
31665W        W38265  13.514   3.082   6.100  0.1032  0.1894  0.1997
31666W        W38266  22.995   6.251   0.409 -0.2413 -0.2652 -0.0804
31667W        W38267  18.917   0.614  29.033  0.0154  0.1117  0.2912
31668W        W38268  15.615   5.117  22.097  0.0833  0.1670 -0.0595
31669W        W38269   2.296   2.887  28.812 -0.2235 -0.2322  0.2148
31670W        W38270  18.080   6.154  14.630  0.0814 -0.0423 -0.2812
31671W        W38271  22.732   5.801  23.041 -0.0212 -0.1506 -0.0778
31672W        W38272  25.940   5.663   2.378  0.1577 -0.0531  0.0612
31673W        W38273   1.397   3.223  24.845 -0.2408 -0.2271  0.3198
31674W        W38274  22.235   1.450  11.716 -0.2851 -0.2606 -0.2101
31675W        W38275   1.211   2.474  31.976  0.0377  0.0764  0.0886
31676W        W38276  12.416   5.762  34.855  0.1530 -0.0608  0.1936
31677W        W38277   2.603   0.902  24.363 -0.0884 -0.2051  0.1973
31678W        W38278   8.794   5.953  27.691  0.1157  0.0711 -0.1353
31679W        W38279  18.721   6.555  29.315  0.0429  0.1922 -0.1371
31680W        W38280  17.160   0.700  21.726  0.0438 -0.1155 -0.0125
31681W        W38281   2.510   0.024   2.154 -0.1139 -0.0812  0.0481
31682W        W38282  26.372   0.391  28.842  0.1675  0.0575 -0.1130
31683W        W38283  13.396   2.732   2.838  0.1740  0.3972 -0.0447
31684W        W38284  21.952   0.973  35.590  0.3988  0.0028 -0.0162
31685W        W38285   7.794   3.834  27.688  0.0886 -0.2415 -0.2508
31686W        W38286   1.456   1.899   8.162 -0.3261 -0.0534  0.0406
31687W        W38287  20.803   3.038   5.391 -0.1571  0.3519  0.1321
31688W        W38288  12.469   6.034  13.040  0.1154  0.0335 -0.0694
31689W        W38289  13.341   4.122  25.335 -0.2265 -0.1422  0.0825
31690W        W38290  11.685   5.361  32.053  0.1251 -0.0685 -0.1249
31691W        W38291  17.747   1.976  23.621  0.0631  0.1138  0.1469
31692W        W38292  23.026   3.453   4.805  0.1328  0.2155  0.0305
31693W        W38293   9.690   6.196   4.328 -0.1935  0.1916  0.1425
31694W        W38294   3.586   5.978  24.090  0.0845  0.0010 -0.2644
31695W        W38295  23.241   2.320   9.101  0.0620  0.2006  0.0682
31696W        W38296  15.886   6.459  22.601 -0.1563 -0.3199  0.1218
31697W        W38297  14.013   5.716  26.540 -0.3159  0.0061 -0.0728
31698W        W38298  12.679   1.005   6.067  0.0190  0.0557  0.0316
31699W        W38299   2.708   4.973  24.983 -0.0930 -0.1708 -0.0536
31700W        W38300  21.266   3.775  25.609  0.1077  0.0303  0.0270
31701W        W38301   2.619   3.068  27.055 -0.3160  0.2660  0.0898
31702W        W38302  16.238   2.079  34.817  0.0081 -0.3730  0.0260
31703W        W38303  15.201   4.981   2.202  0.4572  0.4200  0.0281
31704W        W38304   0.443   1.874  10.647 -0.1092  0.0748  0.2116
31705W        W38305  11.478   2.404   7.807 -0.3618 -0.2231 -0.1815
31706W        W38306   8.505   1.095  15.401  0.0937  0.1530  0.0636
31707W        W38307  13.415   6.366  12.936  0.0156  0.0340 -0.1002
31708W        W38308  18.552   4.939   4.870 -0.1753  0.0211  0.1595
31709W        W38309   4.733   2.230  33.483 -0.0110  0.0160  0.1733
31710W        W38310   6.740   5.120  24.910 -0.2296 -0.0902 -0.3198
31711W        W38311  25.745   1.155  28.768  0.1797  0.1846  0.0249
31712W        W38312   4.695   3.325  28.850 -0.0581  0.0453 -0.0124
31713W        W38313   8.561   5.584  22.797  0.3315  0.1710 -0.1949
31714W        W38314  10.964   4.924  20.901  0.2235 -0.1478  0.0673
31715W        W38315  16.517   5.460   8.961 -0.0279 -0.0233 -0.0323
31716W        W38316  13.615   0.707  35.091  0.1154 -0.0598  0.0070
31717W        W38317  14.865   1.629   9.496  0.3502 -0.1419  0.3210
31718W        W38318   8.985   6.305  26.214  0.1326  0.2597  0.2249
31719W        W38319  22.440   4.722   8.233 -0.0757 -0.2048  0.0487
31720W        W38320   2.856   0.336  25.119 -0.2043 -0.0815 -0.1497
31721W        W38321  24.267   6.149   0.719 -0.2404 -0.0254 -0.1636
31722W        W38322   7.591   5.211  31.773 -0.0706 -0.2391 -0.1778
31723W        W38323  11.147   0.261  16.245  0.1077 -0.1008  0.0366
31724W        W38324  10.915   2.210  28.617  0.0598  0.0943 -0.1539
31725W        W38325   2.154   2.104  30.749  0.1395 -0.2537 -0.2660
31726W        W38326   9.363   1.412  10.027 -0.3156  0.0943 -0.2052
31727W        W38327  24.802   3.774  22.238 -0.1094 -0.0653 -0.0345
31728W        W38328  16.223   2.244   0.733  0.2731 -0.0535  0.5053
31729W        W38329  10.715   2.950   8.347 -0.0433  0.0168  0.1201
31730W        W38330  17.319   5.081  29.618 -0.0990  0.0436 -0.0505
31731W        W38331  10.748   3.362  30.455 -0.0777  0.0398  0.4210
31732W        W38332   6.892   6.130  24.654 -0.1137  0.1657  0.1518
31733W        W38333  15.855   4.267  25.058  0.0093  0.3385 -0.0175
31734W        W38334   4.841   0.947   4.146 -0.2817  0.1179  0.0806
31735W        W38335   7.086   5.497   5.778 -0.1337 -0.3839 -0.0686
31736W        W38336   3.050   4.326  34.407  0.0044 -0.0863 -0.0669
31737W        W38337   0.115   3.521  10.629 -0.1327  0.1700  0.1677
31738W        W38338  13.910   6.251  12.854  0.0698 -0.2682 -0.1207
31739W        W38339  22.110   1.710   8.954  0.1615 -0.0036 -0.1646
31740W        W38340  13.470   3.105  12.774  0.0151  0.0030  0.1213
31741W        W38341  20.034   1.523  14.564  0.1968  0.1377  0.1681
31742W        W38342   3.522   5.674  22.757  0.0148  0.1864 -0.1917
31743W        W38343  21.872   0.417   8.940 -0.0033  0.2004 -0.0905
31744W        W38344   0.830   2.695   8.253  0.2367 -0.2577  0.0102
31745W        W38345   0.145   0.352   5.412 -0.2005 -0.1009 -0.1236
31746W        W38346  22.011   0.146  33.296 -0.0273  0.0058  0.1552
31747W        W38347  10.834   0.461  34.174  0.2905  0.0610 -0.0856
31748W        W38348   5.466   5.951  24.856  0.0139  0.0364 -0.0462
31749W        W38349   8.857   4.176  26.250  0.3761 -0.2230 -0.0371
31750W        W38350  18.124   0.141   9.968 -0.0459  0.1457  0.2042
31751W        W38351  12.895   3.208  29.934 -0.3526  0.0489  0.1285
31752W        W38352   5.024   0.222  28.018  0.0065  0.4953 -0.0995
31753W        W38353  21.115   2.401   8.293 -0.3927 -0.0832 -0.1295
31754W        W38354  26.135   2.086  11.378  0.2152 -0.2204 -0.0335
31755W        W38355   1.970   5.959   9.944 -0.2471  0.0391  0.0286
31756W        W38356  22.861   6.600   5.818  0.1152 -0.1104 -0.0265
31757W        W38357  14.911   1.095  24.561 -0.2309  0.1969 -0.0192
31758W        W38358   3.362   5.150   2.317  0.2614 -0.2072  0.2889
31759W        W38359   0.368   2.136   1.443 -0.0742 -0.1461  0.0239
31760W        W38360  11.218   0.218   9.394  0.0299 -0.3485 -0.1984
31761W        W38361  21.101   5.809  32.622 -0.2152 -0.0894 -0.2773
31762W        W38362  25.618   0.437  22.603  0.2704  0.1330  0.1428
31763W        W38363   6.598   0.862  33.246 -0.1904  0.1939  0.3087
31764W        W38364  16.554   6.296  10.645  0.1655  0.2155 -0.4663
31765W        W38365   0.946   1.839  30.264 -0.0559  0.2258  0.0048
31766W        W38366   1.134   0.948   2.171  0.1295  0.1830 -0.0124
31767W        W38367   5.932   1.319  30.924 -0.0743  0.3322  0.1738
31768W        W38368  24.213   5.684   5.809 -0.1371  0.1304  0.2533
31769W        W38369  17.205   2.800  26.010  0.0672 -0.3324  0.1214
31770W        W38370  19.529   0.430  35.666  0.3901 -0.1551  0.0234
31771W        W38371  25.498   0.185  26.273  0.0172  0.1844 -0.1530
31772W        W38372   3.893   2.903   4.746 -0.4610  0.0284  0.2238
31773W        W38373   5.061   2.699   7.301 -0.0455 -0.0791  0.1060
31774W        W38374  25.224   2.758   0.774 -0.0871 -0.1697  0.0358
31775W        W38375  22.140   1.805  31.405  0.1328  0.1788 -0.2905
31776W        W38376  25.698   0.659   1.391 -0.3105 -0.1841 -0.3241
31777W        W38377  14.382   0.354  30.687  0.0473 -0.2775  0.0423
31778W        W38378  15.136   6.206  22.095  0.0916  0.2301  0.1885
31779W        W38379  22.288   2.975  29.232  0.0619  0.3038  0.0013
31780W        W38380  14.359   4.744  32.922 -0.2431  0.1927  0.2714
31781W        W38381  26.018   4.534  31.417  0.2201  0.0646  0.1145
31782W        W38382  25.948   2.669  25.644  0.0103 -0.1408  0.0145
31783W        W38383  17.439   5.006   4.171  0.0175  0.0962  0.1537
31784W        W38384  15.587   0.971   4.054  0.0558  0.2023 -0.0185
31785W        W38385  14.541   6.062  35.640  0.0869  0.1583  0.3417
31786W        W38386   8.750   2.259  33.037 -0.1194  0.2813 -0.0534
31787W        W38387   9.316   5.238  27.857 -0.0827  0.1619  0.1636
31788W        W38388  16.426   3.845  22.945 -0.0559  0.0748  0.2931
31789W        W38389  17.386   0.752   6.017 -0.2882  0.0733 -0.1249
31790W        W38390   6.151   6.248   6.947 -0.1828 -0.1876 -0.0998
31791W        W38391   5.435   5.077  26.940  0.0003 -0.0309 -0.1356
31792W        W38392  13.789   4.458  11.968 -0.1799 -0.0871 -0.2067
31793W        W38393  22.827   2.318  24.984  0.0586 -0.2652 -0.2326
31794W        W38394  10.560   3.362  10.585 -0.2066 -0.1195 -0.0402
31795W        W38395  12.567   3.328   8.080  0.1352 -0.0014 -0.0207
31796W        W38396  19.410   1.417  14.095  0.1796 -0.1475  0.0733
31797W        W38397   8.634   3.805  11.060  0.0371  0.1283 -0.2386
31798W        W38398  20.202   2.289   6.134  0.1764 -0.0138  0.0210
31799W        W38399  22.181   6.231   5.616  0.0627 -0.3285 -0.2782
31800W        W38400  23.211   5.720  19.712 -0.0254 -0.0342 -0.2486
31801W        W38401  22.121   0.776  30.826 -0.0492 -0.1284 -0.1199
31802W        W38402  15.226   5.765  24.324  0.2239 -0.0020  0.0530
31803W        W38403   8.436   6.291   1.500  0.1600 -0.0280  0.0920
31804W        W38404  21.146   5.132  11.580  0.2363 -0.2114  0.1084
31805W        W38405   4.873   0.019   6.769 -0.0477 -0.0175  0.1541
31806W        W38406  17.673   6.294  23.387 -0.0209  0.0955  0.0862
31807W        W38407  11.307   1.907   7.202 -0.0526  0.0723 -0.0212
31808W        W38408  15.337   2.400  20.835  0.0213  0.1909  0.0245
31809W        W38409  15.504   4.637  15.542  0.1044  0.0253 -0.1127
31810W        W38410  17.993   5.802   6.631  0.1557  0.1547  0.0937
31811W        W38411  22.661   2.915  23.766 -0.1891 -0.1985  0.2448
31812W        W38412  24.031   4.228   2.646  0.1799  0.0518  0.0571
31813W        W38413   4.648   5.322   4.959  0.0267  0.1194  0.4244
31814W        W38414  23.048   3.465  26.214 -0.0279  0.1578 -0.0103
31815W        W38415   5.495   0.647  30.996 -0.0927 -0.2769  0.1281
31816W        W38416  17.861   1.806  29.022  0.0101  0.0967 -0.0342
31817W        W38417  13.434   4.466  31.473 -0.2025  0.0529 -0.1563
31818W        W38418  25.869   0.142  32.741 -0.1323  0.2164 -0.2883
31819W        W38419  25.386   0.830  30.054  0.0678 -0.1278 -0.0649
31820W        W38420  25.980   2.384  28.419 -0.1303  0.2130  0.1817
31821W        W38421  17.791   2.494   1.019 -0.1719  0.2675 -0.0220
31822W        W38422  20.114   3.602  10.433  0.1445 -0.1372  0.1024
31823W        W38423  22.219   1.990   0.171  0.0298 -0.0569 -0.1586
31824W        W38424  24.796   0.313  13.641  0.0439  0.0355 -0.2343
31825W        W38425  20.688   2.504  26.287 -0.0686 -0.1333 -0.1072
31826W        W38426   1.999   0.625  35.211  0.1251  0.0056  0.2369
31827W        W38427   3.178   6.273  21.340  0.1734 -0.1242 -0.2133
31828W        W38428  17.316   3.121   1.823 -0.1519  0.1384 -0.2744
31829W        W38429  26.384   0.531  13.424 -0.1016  0.1476  0.0491
31830W        W38430  24.603   4.320  24.997 -0.1096 -0.1123 -0.0438
31831W        W38431  14.493   0.186  12.388  0.0971 -0.0820  0.1737
31832W        W38432  10.372   4.790   7.266 -0.1047  0.2179  0.0047
31833W        W38433  12.340   6.176  14.519  0.1846  0.1687 -0.2395
31834W        W38434   1.735   1.578  13.927  0.0515  0.2647 -0.0108
31835W        W38435  14.561   5.021   2.345  0.0275  0.3166 -0.1712
31836W        W38436   0.483   0.848  12.748  0.2224  0.0572  0.2839
31837W        W38437  26.345   1.941   6.946 -0.1349  0.1866 -0.0890
31838W        W38438  16.744   3.461   9.477 -0.3478 -0.1638  0.0176
31839W        W38439  24.517   0.032  30.714 -0.4109 -0.1363  0.1169
31840W        W38440  17.014   0.308  35.595 -0.1444  0.0708 -0.2040
31841W        W38441  23.409   0.602  33.977 -0.1187  0.0725 -0.0050
31842W        W38442   5.131   3.369  23.825 -0.0309  0.4723  0.0009
31843W        W38443   1.381   4.816  29.538  0.0522  0.0828 -0.0171
31844W        W38444  11.270   1.452  22.414  0.0419 -0.0724 -0.1238
31845W        W38445  18.685   2.855  32.575  0.3914  0.3536 -0.0524
31846W        W38446  21.386   2.688  30.462 -0.0208  0.1358 -0.1042
31847W        W38447  10.359   6.586  31.100 -0.2234  0.1131 -0.2551
31848W        W38448   9.000   3.119  35.224 -0.0216 -0.1358 -0.1812
31849W        W38449  16.774   0.678  25.177  0.0580  0.0174 -0.0325
31850W        W38450  15.213   1.974  25.369  0.0434 -0.0269  0.1523
31851W        W38451   4.001   2.149  15.084 -0.1019  0.1991  0.1333
31852W        W38452  21.353   5.826  15.061 -0.0220 -0.1537 -0.4373
31853W        W38453  23.162   0.784  10.762 -0.1309  0.2195  0.2706
31854W        W38454   2.694   5.531   8.764 -0.2029  0.1108 -0.0782
31855W        W38455   6.325   0.855   5.041 -0.4531  0.0758 -0.0997
31856W        W38456  14.922   6.437  14.832  0.0684 -0.0073 -0.0783
31857W        W38457  14.089   4.601  35.581 -0.1120  0.1078 -0.0441
31858W        W38458   5.550   3.246  29.846 -0.1775  0.3276 -0.0507
31859W        W38459  14.265   1.659   5.721  0.0066 -0.1909  0.0647
31860W        W38460   0.555   5.595  34.757  0.0609 -0.1261 -0.0947
31861W        W38461   4.799   2.011  11.860  0.1221 -0.0430 -0.0842
31862W        W38462   4.281   4.290  21.881  0.0933 -0.1767 -0.0558
31863W        W38463  10.033   5.488   3.640 -0.0207 -0.2610  0.1411
31864W        W38464   2.676   5.929  33.232  0.0340 -0.2166 -0.0949
31865W        W38465  20.289   0.302  10.518 -0.2711 -0.1450  0.1615
31866W        W38466   9.997   1.963  35.819  0.2573  0.3395  0.5636
31867W        W38467  14.044   4.756   5.394 -0.3718  0.2250  0.0432
31868W        W38468  15.891   4.627  30.804 -0.3197  0.0872  0.3220
31869W        W38469  24.713   1.995  24.051 -0.0595 -0.3094 -0.1320
31870W        W38470   7.377   4.309  22.999 -0.0734 -0.0404 -0.0295
31871W        W38471  21.969   0.524  22.022  0.0758 -0.1082  0.1043
31872W        W38472   3.155   4.157   0.760 -0.0326  0.0306  0.0431
31873W        W38473   6.680   2.506   1.896 -0.1305  0.1234  0.1182
31874W        W38474   7.690   5.344  23.796  0.0466  0.1085 -0.0201
31875W        W38475  20.054   2.068  25.298  0.1010 -0.0348 -0.2824
31876W        W38476  13.813   1.958  14.889  0.1926  0.0761  0.0982
31877W        W38477   7.229   5.160  36.115 -0.1472 -0.3101  0.1404
31878W        W38478  13.075   5.399  35.572 -0.0596  0.1705 -0.0188
31879W        W38479   1.637   5.486  24.367 -0.0643  0.1265  0.1991
31880W        W38480   2.273   6.129  31.870  0.1309  0.0892  0.2287
31881W        W38481  24.132   0.731   1.616  0.0728 -0.1833  0.3485
31882W        W38482  18.734   2.874   9.349  0.1971  0.1231  0.0912
31883W        W38483  19.136   5.933  10.587  0.2177  0.4527  0.2783
31884W        W38484   7.175   3.191  14.413 -0.2829 -0.0204  0.0406
31885W        W38485   1.224   2.078  27.832  0.2027 -0.0454 -0.4015
31886W        W38486   6.954   2.990  34.346  0.0326 -0.1684 -0.0445
31887W        W38487  17.919   0.143  32.563 -0.0157  0.0449 -0.1564
31888W        W38488   0.955   3.870  25.431  0.0995 -0.1023  0.0313
31889W        W38489   2.182   2.853  10.515  0.1643  0.1945  0.0989
31890W        W38490   3.096   6.424   8.556 -0.1216  0.1121 -0.1054
31891W        W38491  15.334   4.635   6.320  0.1371 -0.0761 -0.0277
31892W        W38492   5.944   4.735   3.170 -0.0879  0.1981  0.0044
31893W        W38493   2.448   3.652  23.144 -0.2326  0.1012  0.1613
31894W        W38494  10.966   4.926   0.796 -0.0138 -0.1916  0.1753
31895W        W38495   8.357   0.558  31.137 -0.1225 -0.1455 -0.0073
31896W        W38496  11.595   3.657  21.894 -0.5440  0.0313 -0.2033
31897W        W38497  24.727   0.850  23.185 -0.1971 -0.2436  0.2533
31898W        W38498   2.489   2.546  34.655  0.0956 -0.1753 -0.1650
31899W        W38499  14.853   2.564  24.169  0.2217 -0.3112  0.0959
31900W        W38500  23.431   4.484  14.622 -0.0368 -0.0391 -0.1703
31901W        W38501   8.093   2.507  10.093  0.0030  0.0179  0.1499
31902W        W38502  20.518   5.588   4.178  0.0346  0.1586  0.0518
31903W        W38503  25.766   3.220  34.601  0.2449 -0.2018 -0.1347
31904W        W38504  15.572   6.399   8.238 -0.0810 -0.1532  0.2785
31905W        W38505   5.265   1.728   8.332  0.2505 -0.3168 -0.1086
31906W        W38506   2.827   1.454  32.463  0.1132 -0.0596  0.2674
31907W        W38507   5.957   2.329   6.675 -0.0317 -0.1892  0.2601
31908W        W38508  13.462   5.201   4.421  0.2562  0.2232  0.0382
31909W        W38509   7.675   4.407  34.088  0.0148  0.0883  0.1117
31910W        W38510  10.633   0.425  27.942  0.1610 -0.0214  0.1653
31911W        W38511   9.041   6.556   2.844  0.3015  0.0216  0.1384
31912W        W38512   8.118   6.492  28.094  0.0989  0.1700 -0.0583
31913W        W38513  19.178   0.223   4.099 -0.0237 -0.2110  0.0432
31914W        W38514  21.380   2.996  27.279 -0.0067  0.3202 -0.0053
31915W        W38515  12.243   5.298  21.023 -0.3339 -0.1061 -0.1321
31916W        W38516   6.926   1.466  13.368 -0.0194  0.2268  0.1298
31917W        W38517  20.331   1.617   8.091 -0.0991 -0.1282  0.2131
31918W        W38518   6.115   2.184  31.480  0.2932  0.2567 -0.0477
31919W        W38519   4.536   5.588  26.138 -0.2541 -0.2033  0.0830
31920W        W38520  23.598   1.801  24.109 -0.0731  0.1192  0.1185
31921W        W38521  20.585   3.346  10.518 -0.0767  0.1081  0.0015
31922W        W38522  18.001   5.935   1.944 -0.2091 -0.1749  0.0087
31923W        W38523   0.324   6.313  34.898 -0.2592  0.0063 -0.5130
31924W        W38524  15.547   0.487  23.901 -0.1241 -0.0590  0.0050
31925W        W38525   2.941   1.273   4.115 -0.1217  0.1231 -0.0180
31926W        W38526   4.199   2.053  25.608  0.1045 -0.2207  0.1990
31927W        W38527  22.749   1.523  34.011 -0.0419  0.0727 -0.3379
31928W        W38528  24.191   1.199  14.308  0.0073  0.3087  0.3260
31929W        W38529  10.480   2.989  25.534  0.0044  0.0788 -0.0046
31930W        W38530   8.931   3.244  36.076 -0.0514 -0.0303 -0.0417
31931W        W38531  24.143   3.644  20.834 -0.5232 -0.0185 -0.0708
31932W        W38532  24.043   2.173   1.666 -0.0203  0.0219  0.2362
31933W        W38533  12.452   0.296   8.970 -0.0167  0.5035 -0.1999
31934W        W38534   8.693   5.880   1.574 -0.1736  0.0218  0.0073
31935W        W38535  10.220   1.665  12.329  0.2038 -0.4894 -0.1184
31936W        W38536  14.550   0.761  24.884  0.2226  0.1598  0.0477
31937W        W38537  20.663   0.063   7.415 -0.3031 -0.1235  0.3909
31938W        W38538  12.067   6.388   7.900  0.0237 -0.0140 -0.2170
31939W        W38539   7.943   2.034   6.035  0.1505 -0.1080 -0.0786
31940W        W38540   0.698   4.069  30.477 -0.2037  0.1743 -0.2903
31941W        W38541   9.646   3.795   5.989 -0.2105 -0.0817 -0.0455
31942W        W38542   7.893   3.941  15.409 -0.0824 -0.1746  0.0449
31943W        W38543  15.125   6.365  23.002 -0.0773 -0.3080  0.2198
31944W        W38544  22.067   4.292  21.308  0.2058  0.1538 -0.1726
31945W        W38545   0.141   4.120  27.107 -0.1500 -0.0461  0.0657
31946W        W38546   5.188   0.280   9.188  0.3091 -0.0587  0.3262
31947W        W38547  23.935   4.233  12.987  0.3502  0.1415  0.0753
31948W        W38548  25.217   3.693  32.352  0.2275 -0.2087  0.0768
31949W        W38549   1.099   1.332  32.375  0.1843 -0.1023  0.0456
31950W        W38550   7.147   3.577  29.586 -0.2331  0.3615  0.1869
31951W        W38551   7.376   3.833  29.136 -0.1801 -0.0345  0.2764
31952W        W38552   3.694   5.376  15.127  0.4015 -0.2855  0.0171
31953W        W38553  11.758   2.953  14.999 -0.1367  0.0287 -0.0014
31954W        W38554   4.596   6.437  27.659 -0.1548 -0.0197 -0.0195
31955W        W38555  17.194   5.222  29.144  0.0104 -0.0998  0.2766
31956W        W38556  24.248   4.953   9.015  0.1400 -0.0285  0.2088
31957W        W38557   6.140   4.412  30.320 -0.0271  0.1448  0.2779
31958W        W38558   9.275   1.999   6.005  0.1058 -0.1542  0.2787
31959W        W38559   2.051   1.216  10.628  0.0786 -0.0602  0.1818
31960W        W38560   8.797   6.534  12.078 -0.0366  0.3085 -0.0478
31961W        W38561   9.311   4.172  28.404 -0.3828  0.2831  0.1715
31962W        W38562  11.592   2.116  25.342 -0.2037 -0.1939  0.1118
31963W        W38563   5.876   5.321  27.151  0.0828 -0.0530  0.0202
31964W        W38564  14.817   2.169  22.568  0.0420  0.1008  0.0165
31965W        W38565  12.106   1.452  10.567 -0.0393 -0.4051 -0.0195
31966W        W38566  24.461   0.599  21.714  0.1406  0.0729  0.0422
31967W        W38567  14.818   5.899   4.128  0.0325 -0.0289 -0.1742
31968W        W38568  24.981   0.839   7.525 -0.0256 -0.0326 -0.0291
31969W        W38569   2.634   5.348  24.522 -0.1425 -0.4441 -0.0908
31970W        W38570  16.594   2.004  35.518  0.0226 -0.4510 -0.0745
31971W        W38571   8.113   2.546  27.183  0.0825  0.0937  0.0242
31972W        W38572  10.942   0.357  14.551 -0.0816  0.0230  0.1029
31973W        W38573   3.275   2.878  21.519  0.1656  0.0087 -0.1696
31974W        W38574  21.536   3.645  26.019 -0.0384 -0.4616  0.0248
31975W        W38575  14.232   4.600  10.337 -0.1503 -0.0105 -0.2417
31976W        W38576  21.435   0.660  22.244  0.3370 -0.2269 -0.1453
31977W        W38577   6.978   3.409  23.550 -0.1032  0.3936 -0.0681
31978W        W38578  13.941   3.335  15.279  0.0872 -0.1485 -0.2607
31979W        W38579  13.253   5.597  10.541 -0.1149 -0.0231  0.1161
31980W        W38580  22.841   2.583   0.734 -0.4275  0.0111  0.3726
31981W        W38581  21.949   4.664   8.527  0.1270 -0.0934  0.1943
31982W        W38582  14.271   3.334  14.371 -0.0338 -0.3890  0.3949
31983W        W38583  13.398   4.984   2.328 -0.1668 -0.1734 -0.3113
31984W        W38584   4.976   1.940   9.849 -0.1730 -0.1834  0.0127
31985W        W38585  10.197   3.389   3.459 -0.1113 -0.2571  0.0838
31986W        W38586   2.518   0.990  14.108 -0.1839  0.0108  0.0688
31987W        W38587  15.936   3.435  26.832 -0.1937  0.0661 -0.0201
31988W        W38588   6.567   2.877  25.226 -0.2882  0.1623  0.0467
31989W        W38589   4.127   0.072  13.350 -0.0331  0.1574 -0.0367
31990W        W38590   3.735   5.634  26.741  0.1439 -0.1602 -0.0558
31991W        W38591   0.200   1.080  34.422 -0.1361  0.3590  0.1936
31992W        W38592   6.554   3.309  11.563 -0.2207  0.1233  0.0507
31993W        W38593   0.871   1.458  35.831  0.0242  0.0723 -0.0050
31994W        W38594  24.871   4.248  31.535  0.1747  0.0571  0.0641
31995W        W38595  17.115   0.743  25.540 -0.0391 -0.1400 -0.0608
31996W        W38596   9.790   6.229  27.377 -0.0490  0.1696 -0.1735
31997W        W38597   5.359   6.121  22.294 -0.1138 -0.0388 -0.1531
31998W        W38598  15.375   6.556  14.650  0.2321  0.0425 -0.1466
31999W        W38599   3.009   3.948  20.876 -0.3037  0.3683  0.4293
32000W        W38600  15.893   4.271  22.245  0.1778 -0.0530  0.0272
32001W        W38601  13.225   2.111   1.865  0.0215 -0.0813 -0.0352
32002W        W38602  14.027   0.914   2.248  0.0765 -0.1988 -0.0561
32003W        W38603  24.839   3.659   9.412 -0.0134  0.0373 -0.4411
32004W        W38604  19.974   3.884   8.958  0.0810  0.1981 -0.1237
32005W        W38605   8.249   4.827  34.595 -0.0735 -0.1469 -0.2645
32006W        W38606  21.096   1.404   1.485  0.0034 -0.2367  0.0938
32007W        W38607  24.662   2.021   5.169 -0.1980 -0.0192  0.0549
32008W        W38608   1.478   2.842   9.984 -0.0198 -0.1278 -0.1026
32009W        W38609   1.380   5.116   7.136  0.1277  0.0159 -0.1657
32010W        W38610   2.674   5.723   8.186 -0.1477  0.0219 -0.0302
32011W        W38611   9.886   5.760  25.399 -0.3062 -0.3155 -0.3588
32012W        W38612   4.053   5.982   1.750  0.1026  0.2368  0.0225
32013W        W38613   2.527   2.465  12.650  0.1682  0.4022 -0.2172
32014W        W38614  16.003   5.868  35.440  0.0222 -0.0717  0.0966
32015W        W38615   2.530   0.085  11.455 -0.1616 -0.0131  0.0015
32016W        W38616  16.594   5.372  32.748 -0.2692 -0.0945 -0.2828
32017W        W38617  11.576   1.186  26.588  0.1801  0.0343  0.0564
32018W        W38618  22.685   2.871   9.081 -0.2603 -0.0181 -0.0255
32019W        W38619  16.427   1.383  14.232 -0.0559  0.1026 -0.2484
32020W        W38620  18.417   4.628   6.306 -0.1668 -0.0378 -0.2865
32021W        W38621   6.363   6.157  33.853 -0.4019  0.1424 -0.1192
32022W        W38622   9.055   2.469  28.949  0.1501 -0.0487  0.0602
32023W        W38623  25.936   4.593  30.346 -0.2217  0.0670 -0.0746
32024W        W38624  22.517   1.009  30.977  0.0713 -0.1740 -0.0210
32025W        W38625  23.075   2.168  27.323  0.0037  0.2273  0.1299
32026W        W38626   4.535   1.024   2.282  0.5507 -0.0911 -0.0411
32027W        W38627  24.703   5.107  31.212  0.0024  0.0520  0.0716
32028W        W38628  19.629   2.440   1.567  0.2320  0.2233 -0.1008
32029W        W38629   2.917   4.019   2.698  0.1145 -0.1602  0.1381
32030W        W38630   0.276   1.465  12.983 -0.1950  0.3055 -0.2484
32031W        W38631  24.926   1.783   4.334  0.1735  0.1613 -0.1408
32032W        W38632  11.095   3.810  35.635 -0.2109  0.0388  0.2734
32033W        W38633  21.520   0.176  28.256 -0.2039 -0.3757 -0.1294
32034W        W38634   8.662   4.211   7.431 -0.0902  0.0768  0.0661
32035W        W38635   2.493   3.230  26.555  0.1405  0.0304  0.2395
32036W        W38636  23.475   3.272  35.637 -0.0807  0.0556  0.0651
32037W        W38637   7.887   1.506   6.136 -0.1578  0.0683  0.0580
32038W        W38638   5.405   2.561   2.124  0.0025 -0.2517 -0.0707
32039W        W38639  14.953   4.083  29.986 -0.0098 -0.0862  0.0868
32040W        W38640   8.943   0.699  12.134 -0.0973 -0.2971 -0.0518
32041W        W38641  11.881   0.679   0.777  0.0730 -0.3827 -0.0399
32042W        W38642  12.106   4.678  29.139  0.0024 -0.0926 -0.3594
32043W        W38643  14.084   2.128   6.838  0.1345  0.3546  0.0793
32044W        W38644  19.704   2.869  11.192 -0.0628  0.3534 -0.2167
32045W        W38645  25.511   2.286  27.032 -0.1794 -0.1700 -0.1114
32046W        W38646  18.100   2.194  23.965  0.2423  0.2271 -0.0132
32047W        W38647  23.002   3.808  22.232  0.0210 -0.2762 -0.1395
32048W        W38648  21.785   3.531  32.235  0.1056 -0.0668  0.2011
32049W        W38649  25.371   3.930  26.649  0.1114  0.2884  0.0933
32050W        W38650  25.656   2.718  23.378  0.0113 -0.2825 -0.1407
32051W        W38651   0.667   5.549  24.946  0.2718  0.0253  0.1245
32052W        W38652   0.298   0.474   5.975 -0.0208 -0.0248  0.1424
32053W        W38653  18.744   2.208  32.779 -0.0306  0.0265  0.0954
32054W        W38654  25.110   5.666   1.439  0.0447 -0.0617  0.0505
32055W        W38655   4.478   6.276  11.989  0.3522  0.0148  0.1006
32056W        W38656   1.490   4.575  33.319 -0.0130 -0.1810  0.0840
32057W        W38657   3.909   1.873  10.790 -0.2279 -0.0374  0.0788
32058W        W38658   6.125   4.897  29.522  0.0204 -0.0868  0.1098
32059W        W38659   2.375   1.321  32.697 -0.3038 -0.2273 -0.2025
32060W        W38660   6.428   2.225  25.758 -0.2539 -0.2509 -0.0163
32061W        W38661  14.457   1.309  30.567  0.0107 -0.0777 -0.1633
32062W        W38662   4.157   2.338  32.833  0.1445  0.1112 -0.3972
32063W        W38663  22.989   3.018  28.023  0.2360 -0.0069 -0.1807
32064W        W38664  13.993   5.264  29.412  0.2107 -0.0305  0.0585
32065W        W38665  17.958   5.770  13.220  0.1421 -0.0359 -0.1343
32066W        W38666  15.456   6.451  24.491  0.3835  0.0176 -0.1922
32067W        W38667  17.004   3.482  14.752 -0.2223 -0.1567  0.0560
32068W        W38668  21.602   6.312   1.183 -0.2536  0.2702  0.1337
32069W        W38669   1.296   2.125   5.655  0.3663  0.3590 -0.0545
32070W        W38670  24.061   1.977  29.878  0.0062  0.0749 -0.0764
32071W        W38671  13.217   1.617   3.223  0.0556  0.1230 -0.0461
32072W        W38672  16.007   6.212   0.732  0.1136  0.0248 -0.3912
32073W        W38673   8.405   2.782  30.366 -0.0419 -0.1212  0.2000
32074W        W38674  16.183   4.681  26.678  0.0931 -0.1045  0.1595
32075W        W38675  12.289   0.141  15.455  0.0724  0.1469  0.0659
32076W        W38676   3.928   1.199  21.251  0.1644  0.0672 -0.1834
32077W        W38677   2.327   1.463   3.403  0.3296 -0.3294 -0.1401
32078W        W38678  21.110   3.888  31.722  0.2993  0.1445  0.0317
32079W        W38679  20.418   2.908  13.773  0.1624  0.1865 -0.2109
32080W        W38680  13.001   0.639   8.487 -0.1939 -0.1041  0.1306
32081W        W38681  12.516   1.342  22.942  0.3014  0.2893  0.1255
32082W        W38682  15.572   2.066  13.426  0.0691  0.0495 -0.0324
32083W        W38683  11.346   3.675   7.623  0.0812  0.0542  0.0811
32084W        W38684  21.299   5.467  26.814 -0.0556  0.1693 -0.0735
32085W        W38685  21.269   5.729   6.146 -0.0658  0.1886  0.2013
32086W        W38686  10.380   1.656   6.650  0.1611  0.2107  0.0622
32087W        W38687  12.116   4.026  25.129  0.0893 -0.1219  0.0242
32088W        W38688  11.880   4.846  24.957 -0.0356 -0.1330 -0.0487
32089W        W38689  11.165   1.101  10.773  0.0555  0.1309  0.0868
32090W        W38690  22.518   4.988  30.640  0.1146 -0.3049 -0.2650
32091W        W38691  25.412   1.328  26.653 -0.1965  0.1879  0.4642
32092W        W38692   1.156   1.827  33.422 -0.0769  0.0584 -0.1861
32093W        W38693  11.322   0.433  22.166  0.1688 -0.0071  0.2758
32094W        W38694   7.303   5.185  20.982 -0.0657  0.0134 -0.1966
32095W        W38695   9.845   0.199  27.464  0.0429  0.0836  0.0146
32096W        W38696  21.720   6.587  26.667 -0.1077  0.2577 -0.2071
32097W        W38697   8.178   4.542  35.054 -0.1161 -0.0972  0.0508
32098W        W38698   6.644   5.708   2.515 -0.1615  0.0493  0.0564
32099W        W38699  25.305   2.170  14.068 -0.0404 -0.0238 -0.2997
32100W        W38700   5.196   2.596  12.787  0.2571  0.2311  0.1611
32101W        W38701   6.377   2.623  15.093 -0.2105 -0.0220  0.2208
32102W        W38702   9.356   5.168  21.814 -0.3943  0.1232  0.2464
32103W        W38703  16.565   1.759  35.103  0.0272  0.1148 -0.1079
32104W        W38704  22.679   5.694  14.430  0.1829 -0.1023 -0.2749
32105W        W38705   0.495   0.536   9.393  0.2570  0.0083  0.1817
32106W        W38706  11.908   1.167   5.255  0.5283  0.2282 -0.1458
32107W        W38707  17.799   5.548  10.532 -0.2648 -0.0986 -0.2738
32108W        W38708  18.509   1.230  20.763  0.1994 -0.2511  0.3607
32109W        W38709  21.688   6.511  26.133  0.2779 -0.1593 -0.0663
32110W        W38710  21.297   4.149  24.011  0.1337 -0.0743 -0.1275
32111W        W38711   5.159   5.999  25.674 -0.0136  0.2568  0.2647
32112W        W38712   4.355   0.357   4.006  0.0439  0.1817  0.1025
32113W        W38713   7.267   0.394  33.066 -0.0290  0.2218 -0.0771
32114W        W38714   4.273   0.548   4.612  0.2695 -0.1398  0.0191
32115W        W38715   2.077   1.049   4.151 -0.0467 -0.0603  0.1665
32116W        W38716  11.231   1.827  34.377 -0.1099 -0.0443 -0.1465
32117W        W38717  22.410   4.259  14.005 -0.1057 -0.1171 -0.1697
32118W        W38718  24.361   5.299   9.572 -0.1392 -0.0818 -0.1088
32119W        W38719  26.222   1.624   2.534 -0.1220  0.3084 -0.0826
32120W        W38720   4.409   2.245   8.677 -0.3419 -0.0445 -0.1017
32121W        W38721  15.271   1.963  34.787  0.0099 -0.3224  0.0616
32122W        W38722  11.916   2.000  29.689  0.1888 -0.1316 -0.2003
32123W        W38723  17.972   4.147  10.774 -0.0736  0.1830 -0.1219
32124W        W38724   1.757   1.671  24.673 -0.2128  0.2339  0.0679
32125W        W38725  24.895   3.340  14.655  0.0638  0.2121 -0.3403
32126W        W38726   9.776   5.948   2.907 -0.2365  0.0446  0.0932
32127W        W38727  18.176   4.313  26.295 -0.2432 -0.2614  0.0104
32128W        W38728  10.180   3.409   4.847  0.0499 -0.2752 -0.0976
32129W        W38729   8.435   6.591  13.623 -0.5276 -0.1678 -0.0442
32130W        W38730   2.951   0.093  31.519 -0.4071  0.0847  0.0950
32131W        W38731   9.293   0.244  33.579  0.1780 -0.1552 -0.0510
32132W        W38732  22.930   6.592  14.929  0.1335 -0.1842 -0.0668
32133W        W38733  26.080   0.985  12.807  0.1536 -0.4205  0.0444
32134W        W38734  20.571   5.328   5.887  0.0268  0.1023  0.0282
32135W        W38735   8.125   0.287  32.877 -0.0394  0.0772 -0.2208
32136W        W38736  12.470   3.483  22.310  0.1029  0.1815 -0.3600
32137W        W38737  13.616   2.389   0.969  0.2721 -0.1708 -0.1077
32138W        W38738  25.790   3.529   2.332 -0.2873  0.1950  0.2324
32139W        W38739   5.936   5.318   3.277  0.2488  0.1610  0.0930
32140W        W38740  16.092   0.431  22.525 -0.2606 -0.2270 -0.0858
32141W        W38741   7.929   3.180  22.440 -0.1664 -0.1903  0.0657
32142W        W38742  23.197   2.202  28.782  0.2449  0.0584 -0.1728
32143W        W38743   3.220   3.189  34.905 -0.0063  0.0653  0.0828
32144W        W38744   6.516   1.743  34.440 -0.0129  0.3005  0.1284
32145W        W38745  17.004   4.696  25.288  0.0615 -0.1824 -0.2813
32146W        W38746  14.377   0.047  26.355  0.1342 -0.1635  0.2412
32147W        W38747  23.374   1.474   6.797  0.2766  0.4680 -0.0429
32148W        W38748  16.229   4.967   6.710  0.2700 -0.0037  0.2657
32149W        W38749  20.126   5.885   4.024 -0.3135  0.1393  0.1173
32150W        W38750  17.194   1.357   2.359  0.1955  0.1317  0.1483
32151W        W38751   6.680   4.167  23.254 -0.0333  0.0145  0.2130
32152W        W38752   5.698   5.058  28.586  0.1892 -0.1917  0.1191
32153W        W38753  21.698   5.843  27.724  0.0092 -0.2281  0.2152
32154W        W38754   4.943   5.615  11.673  0.1050 -0.0898  0.2932
32155W        W38755  13.442   2.952  26.131 -0.2272  0.3178  0.0264
32156W        W38756  16.891   3.951   5.425  0.0408  0.0771  0.1678
32157W        W38757   3.762   0.362   0.965 -0.3499 -0.2225  0.0063
32158W        W38758   0.601   2.630  23.534  0.1392  0.0593  0.1658
32159W        W38759  25.989   4.803   9.621 -0.1286  0.1297 -0.1887
32160W        W38760   8.551   6.404  34.057 -0.0775 -0.0508 -0.0695
32161W        W38761  21.084   4.610  29.155  0.0538 -0.0843  0.0894
32162W        W38762  25.678   5.551  20.187 -0.1275  0.2142 -0.3425
32163W        W38763  24.708   3.288   2.706  0.0841 -0.0312 -0.0034
32164W        W38764   2.929   1.889  30.432  0.1712 -0.0542  0.0216
32165W        W38765  26.273   4.050   4.592 -0.1984  0.1237 -0.2768
32166W        W38766  14.122   3.644  23.502  0.1359  0.2000 -0.1179
32167W        W38767  12.284   2.342   6.979 -0.1544  0.0922 -0.3526
32168W        W38768  12.311   4.299   6.146  0.0012 -0.0699 -0.2091
32169W        W38769  15.058   0.451   7.093 -0.2771 -0.0676 -0.1424
32170W        W38770  26.134   5.784  21.464 -0.0592 -0.2726  0.2085
32171W        W38771  23.356   3.578   3.251 -0.1532 -0.2896  0.0355
32172W        W38772  20.814   5.273   4.526 -0.1302 -0.0566  0.1244
32173W        W38773   4.702   3.477   4.147 -0.0709  0.0849 -0.2193
32174W        W38774  10.853   1.222   4.056 -0.0916  0.1903  0.1448
32175W        W38775   2.046   4.442   8.502 -0.2563 -0.3969 -0.2925
32176W        W38776  13.601   5.627  26.228  0.2238  0.1884 -0.1356
32177W        W38777  23.931   1.233  23.096 -0.0518 -0.2105 -0.1036
32178W        W38778  23.097   3.479  24.453 -0.0315  0.1518  0.1537
32179W        W38779  11.297   5.492  14.451  0.0033 -0.2842  0.1918
32180W        W38780  14.275   2.094  30.903 -0.0267 -0.1265  0.2125
32181W        W38781   6.138   2.144   5.789 -0.2527 -0.0310 -0.0281
32182W        W38782  10.350   5.591  34.071 -0.0245 -0.2341 -0.1400
32183W        W38783   7.207   5.120   8.744  0.2718 -0.1842  0.0277
32184W        W38784  15.330   6.585  27.254 -0.0809 -0.0895  0.2427
32185W        W38785   7.933   0.205  14.132  0.0836 -0.1937 -0.2204
32186W        W38786   1.781   4.847  28.875 -0.1399 -0.0866  0.0179
32187W        W38787  19.381   0.933   0.776  0.3676  0.2109  0.3096
32188W        W38788  17.410   1.162  32.951 -0.1418  0.2987  0.2552
32189W        W38789  16.603   2.871  22.377  0.0884 -0.1846 -0.2166
32190W        W38790  11.205   3.686   6.851  0.1044 -0.0975 -0.0168
32191W        W38791   5.905   3.502  28.578 -0.0166 -0.2701  0.1998
32192W        W38792   5.779   6.472  23.964  0.2630  0.2902  0.0982
32193W        W38793   9.850   5.978  31.673 -0.1965  0.0694  0.0622
32194W        W38794   8.720   2.979  28.274 -0.2465 -0.2244  0.1035
32195W        W38795  22.092   4.897   5.086  0.2540  0.1417 -0.0973
32196W        W38796   9.711   4.235  28.126 -0.0038  0.0509 -0.1204
32197W        W38797   8.678   4.259  35.052 -0.0766 -0.3264 -0.1917
32198W        W38798  11.228   3.000  31.140 -0.1506  0.0905  0.1474
32199W        W38799  10.110   5.077  11.458  0.2866 -0.1276 -0.2683
32200W        W38800  10.640   6.347  24.179 -0.1575 -0.0205  0.1557
32201W        W38801  10.973   6.085  11.037 -0.0632  0.1640  0.0994
32202W        W38802  25.160   1.343   7.613 -0.1134 -0.0626 -0.0495
32203W        W38803  25.530   4.281  33.120  0.1606  0.0119 -0.0474
32204W        W38804  10.975   6.360   3.455  0.2119 -0.1735  0.2745
32205W        W38805  21.456   2.656  33.562 -0.0122  0.0179  0.0244
32206W        W38806   0.500   1.372   7.936 -0.2018  0.1186 -0.3420
32207W        W38807  12.389   2.971  30.967  0.1419 -0.3374  0.1476
32208W        W38808  17.822   5.676  35.327 -0.4441  0.2587  0.2558
32209W        W38809   0.191   0.354   9.014 -0.0031  0.0538 -0.1484
32210W        W38810   3.790   2.015  35.939 -0.2286  0.2946 -0.0106
32211W        W38811   7.246   4.224  36.073 -0.1497  0.0118  0.1730
32212W        W38812   3.803   5.335  29.554  0.1586  0.3891 -0.0482
32213W        W38813   6.663   1.734  33.847  0.0018  0.0965  0.1331
32214W        W38814  11.539   0.569   8.491 -0.3173 -0.0051 -0.2830
32215W        W38815   8.825   4.610   3.232 -0.1454 -0.3434 -0.2377
32216W        W38816  21.477   5.525  33.339 -0.0809 -0.0436 -0.0598
32217W        W38817  18.289   4.877   1.615 -0.0427  0.0421 -0.0848
32218W        W38818  24.539   0.520  32.533  0.1719 -0.2045  0.1879
32219W        W38819   1.212   0.496  34.820  0.0098 -0.2231  0.3085
32220W        W38820   5.745   1.585  33.055  0.0277 -0.0494 -0.2957
32221W        W38821  10.715   5.771   9.488 -0.2536  0.1109  0.0534
32222W        W38822  24.079   6.509  20.700  0.0715  0.0546  0.0786
32223W        W38823  16.395   4.174   9.673 -0.0615  0.0194  0.0321
32224W        W38824  23.284   1.423   3.116  0.2866  0.1505  0.1620
32225W        W38825   6.542   4.111  28.794 -0.1490 -0.1341 -0.0272
32226W        W38826  11.325   4.587  34.706  0.1173  0.0528 -0.3353
32227W        W38827  14.742   0.502   6.613  0.1431 -0.0891 -0.0969
32228W        W38828  12.147   5.852   6.158  0.0057  0.0663  0.0796
32229W        W38829   3.118   5.851  21.634  0.3808 -0.2094 -0.0409
32230W        W38830  14.900   5.102  28.555 -0.0262  0.0614  0.0408
32231W        W38831  23.176   5.018  35.471  0.0204 -0.1224 -0.0480
32232W        W38832  14.670   2.506  12.384 -0.0552 -0.0165  0.0568
32233W        W38833   2.824   4.920  21.905  0.0237 -0.3151 -0.0086
32234W        W38834  13.598   4.810  14.181  0.2886  0.0659 -0.2024
32235W        W38835  23.401   1.821  36.045 -0.3167  0.0339 -0.0289
32236W        W38836   1.561   6.367  34.232 -0.0441  0.1521  0.2171
32237W        W38837  19.325   2.369  23.269 -0.0606 -0.0917 -0.1410
32238W        W38838   3.378   0.988  31.282 -0.3042 -0.0016  0.1131
32239W        W38839  22.781   2.001  26.896 -0.0385  0.1349  0.1180
32240W        W38840   8.723   5.520   3.737  0.0529 -0.0008 -0.1764
32241W        W38841  11.224   3.043  32.512  0.0040  0.1625  0.2137
32242W        W38842   9.813   5.532   6.567  0.0118 -0.2082 -0.0123
32243W        W38843  23.606   3.186   6.798  0.0335 -0.1571  0.1193
32244W        W38844  10.311   2.227   6.565 -0.1697 -0.3145  0.2357
32245W        W38845  13.316   5.906  15.512 -0.2666  0.0802 -0.1483
32246W        W38846  22.051   2.712  26.542 -0.1547 -0.3770  0.0542
32247W        W38847  24.833   1.685   5.546 -0.0657  0.1020  0.1343
32248W        W38848  23.699   2.331  14.230  0.3597 -0.2060 -0.1932
32249W        W38849  20.488   4.926  21.936 -0.1512  0.4145 -0.1125
32250W        W38850   6.543   1.974  26.304  0.0704  0.0094 -0.2913
32251W        W38851   5.478   1.609  11.140  0.0301  0.1166  0.1163
32252W        W38852  15.860   5.057   9.410 -0.3939 -0.1107  0.2959
32253W        W38853  21.191   1.621  34.317 -0.1513  0.2310  0.0192
32254W        W38854  15.361   3.417  10.620 -0.1539 -0.0198  0.3791
32255W        W38855   6.918   1.994  30.761  0.1648 -0.2841  0.0637
32256W        W38856  24.965   6.291   3.416  0.0721  0.0031 -0.2323
32257W        W38857   4.060   1.320  20.185  0.0427 -0.1672  0.1662
32258W        W38858  21.776   1.673  31.099  0.2025  0.0549 -0.1313
32259W        W38859  15.623   1.912  30.683  0.0425 -0.1813  0.1468
32260W        W38860  22.834   0.487  35.955 -0.0976 -0.0186 -0.1981
32261W        W38861  25.047   0.239  26.742 -0.2438  0.1022 -0.1992
32262W        W38862  14.196   0.449   0.876  0.1875  0.1197  0.0333
32263W        W38863  21.732   0.174  25.092 -0.2367 -0.2982  0.0014
32264W        W38864  25.826   5.024  23.022 -0.1136 -0.0391  0.0834
32265W        W38865  11.279   1.690  26.068 -0.0819 -0.0441  0.1558
32266W        W38866   2.943   2.480  24.554  0.2117 -0.2783 -0.1201
32267W        W38867   0.291   0.232  28.560  0.1551 -0.0821  0.1562
32268W        W38868   3.875   1.523  14.802  0.4465  0.2087 -0.0948
32269W        W38869  21.249   0.598  22.745  0.2420 -0.1437 -0.1688
32270W        W38870  24.210   0.720  12.463 -0.2903 -0.0163 -0.3098
32271W        W38871   6.129   5.979  26.560  0.0840 -0.2273 -0.1577
32272W        W38872  20.618   4.503   2.529 -0.0154  0.1308 -0.0069
32273W        W38873  22.759   4.486  27.405 -0.0666  0.1639  0.0617
32274W        W38874  21.971   2.263  34.869 -0.4026 -0.2285 -0.0329
32275W        W38875  13.539   1.202  29.268  0.1892  0.1025  0.1626
32276W        W38876  24.704   2.310   8.452  0.0389  0.0169  0.0229
32277W        W38877  14.833   2.700   2.561 -0.1148 -0.0611 -0.1845
32278W        W38878  16.632   3.891  12.961  0.0466 -0.2012 -0.1219
32279W        W38879  10.633   0.786  33.586  0.3406 -0.0940  0.2509
32280W        W38880  10.378   1.581  15.486 -0.0106  0.1033  0.0732
32281W        W38881  19.771   4.936  30.878 -0.0628 -0.1555  0.0457
32282W        W38882  16.963   1.493   0.085 -0.0770  0.2365 -0.2058
32283W        W38883   8.473   0.748  34.767 -0.1141  0.0944 -0.0408
32284W        W38884  20.006   0.113   0.216  0.1260 -0.1286 -0.1488
32285W        W38885  18.288   2.623  24.326 -0.0549  0.2214  0.3958
32286W        W38886  21.356   3.051   2.939  0.0006 -0.2298 -0.0049
32287W        W38887  22.040   0.365  31.094 -0.2906  0.0751  0.1519
32288W        W38888   4.462   0.919  35.548  0.0706  0.0058  0.1562
32289W        W38889   9.346   2.579  13.713 -0.1210 -0.1407 -0.0972
32290W        W38890  23.202   2.148   3.928  0.2357  0.2071 -0.1483
32291W        W38891   5.885   3.774  28.146  0.0185 -0.0785  0.1247
32292W        W38892  10.545   1.909  13.696 -0.1048 -0.0346  0.1154
32293W        W38893  24.775   4.039  30.609 -0.0854  0.0237  0.0113
32294W        W38894   3.478   5.745  29.860 -0.3306 -0.0780  0.1547
32295W        W38895   0.351   5.643   8.758  0.0645 -0.0401 -0.0085
32296W        W38896  11.881   3.314  29.252  0.0031  0.2710  0.0976
32297W        W38897   0.120   4.694  13.989  0.0221 -0.0228 -0.1067
32298W        W38898  19.918   0.552  34.700  0.1508 -0.0398 -0.1041
32299W        W38899  12.584   3.833   5.434  0.3532  0.1314  0.0881
32300W        W38900   2.438   0.994  13.094 -0.0201  0.0175  0.1863
32301W        W38901  11.818   2.386  25.791 -0.0354  0.2834  0.1051
32302W        W38902   9.154   6.249  13.516  0.2978 -0.0245 -0.0626
32303W        W38903   7.568   4.201  25.165  0.2282 -0.0430 -0.0724
32304W        W38904   8.608   5.707  28.212 -0.2084 -0.1982  0.1180
32305W        W38905   7.773   2.291  31.944  0.0975  0.0228 -0.0799
32306W        W38906  22.205   2.560  11.231 -0.1848 -0.1106  0.1368
32307W        W38907  22.318   3.757  27.328 -0.0178  0.2090  0.0397
32308W        W38908  16.765   2.418  31.552 -0.2154  0.2610 -0.2268
32309W        W38909   0.274   4.387  23.939 -0.3019  0.1524  0.0939
32310W        W38910  12.034   4.493  25.297  0.1715  0.0559  0.0469
32311W        W38911   8.189   2.061   1.177 -0.0015  0.1714 -0.1481
32312W        W38912   0.562   0.056   3.527  0.0701  0.1095  0.0947
32313W        W38913   4.699   1.053  31.062 -0.3223  0.0465 -0.0298
32314W        W38914  10.534   0.683   9.603  0.4668  0.1285 -0.2513
32315W        W38915   6.128   0.143  34.611  0.1549 -0.4530 -0.0163
32316W        W38916  16.598   5.573   4.575  0.0848  0.1532  0.1320
32317W        W38917   4.845   0.015  13.136  0.0004 -0.0478 -0.0440
32318W        W38918   3.817   5.217  23.592  0.0912 -0.0530 -0.1330
32319W        W38919  12.829   0.170  35.218 -0.2769  0.2834 -0.1323
32320W        W38920  22.387   1.660  29.741 -0.2404 -0.3141  0.2084
32321W        W38921   7.465   6.358  31.959 -0.0473  0.0980  0.2035
32322W        W38922  19.983   6.181   8.409 -0.0381  0.2162  0.3018
32323W        W38923   3.000   0.785   3.894 -0.2595  0.0871 -0.0928
32324W        W38924  17.666   1.482   3.989  0.0461 -0.0488 -0.0662
32325W        W38925  18.857   0.681   2.775 -0.0381  0.2439  0.2585
32326W        W38926  23.947   0.305  31.392 -0.2378 -0.1166  0.2618
32327W        W38927  13.212   1.354  35.333  0.0120  0.1078  0.0968
32328W        W38928   7.951   1.540   1.247  0.0560 -0.1618  0.1917
32329W        W38929  20.254   1.451   5.396  0.0480 -0.1569 -0.0380
32330W        W38930   7.977   5.014  28.317 -0.0475 -0.0400  0.1987
32331W        W38931  21.703   2.005   8.389 -0.0659 -0.1133  0.2014
32332W        W38932  14.116   5.066   0.387  0.0368 -0.0230 -0.0247
32333W        W38933   4.661   1.571  31.369  0.1271 -0.1214  0.0834
32334W        W38934  18.306   4.887  25.642 -0.2773  0.1226  0.0595
32335W        W38935  13.488   0.887  36.101 -0.5381  0.0284 -0.2437
32336W        W38936   0.582   6.144   6.799  0.4140 -0.3069  0.3472
32337W        W38937  25.316   5.354   7.345  0.0594  0.0054  0.3694
32338W        W38938   6.110   5.170  34.066  0.2126 -0.2220 -0.0381
32339W        W38939  15.379   2.358  10.418  0.0119 -0.2087 -0.3502
32340W        W38940  11.410   4.409   2.257 -0.0698 -0.0069 -0.2124
32341W        W38941  18.238   2.181   9.623 -0.0681  0.2689  0.1470
32342W        W38942   8.430   5.770  28.671 -0.0384 -0.4551  0.2731
32343W        W38943  11.090   4.502   4.148 -0.0978 -0.0598  0.1263
32344W        W38944   9.466   4.999   5.100  0.0248 -0.0675  0.1713
32345W        W38945   9.814   4.468   1.293 -0.1472 -0.2873  0.0380
32346W        W38946  25.047   5.853  12.619  0.2443  0.0134  0.0120
32347W        W38947  24.596   2.059  14.597  0.0324 -0.0414 -0.1374
32348W        W38948  14.668   2.054  30.158 -0.1124 -0.0691 -0.2174
32349W        W38949  21.568   6.150  32.717 -0.4419  0.0847  0.0369
32350W        W38950   8.526   1.609  13.331  0.1273 -0.3016 -0.0020
32351W        W38951  24.291   4.430   8.713 -0.1252  0.0961 -0.0977
32352W        W38952   9.890   6.201   6.831 -0.0660  0.1608 -0.0470
32353W        W38953  25.507   4.613  11.919 -0.2107 -0.0134  0.1597
32354W        W38954  25.347   4.637  34.177 -0.0208  0.0134  0.0120
32355W        W38955  17.463   4.177  26.675  0.1615 -0.2851  0.1604
32356W        W38956  25.164   0.478  27.829 -0.4136 -0.0678 -0.0113
32357W        W38957  21.538   0.978   5.364 -0.1610  0.1425 -0.1600
32358W        W38958   3.383   3.244  11.968  0.0552 -0.2419  0.0495
32359W        W38959   7.818   0.635   6.968 -0.0285  0.1255 -0.2444
32360W        W38960  15.064   2.028  15.250 -0.0254 -0.0994 -0.0268
32361W        W38961  19.490   1.532  33.317 -0.0619 -0.1759 -0.2003
32362W        W38962  19.651   1.642   7.450 -0.1979  0.2878 -0.0149
32363W        W38963   9.538   3.743  33.485 -0.1275  0.3378  0.0255
32364W        W38964  23.365   5.574   3.524  0.2189 -0.1949  0.1020
32365W        W38965   0.149   2.719   0.728  0.0598 -0.2454  0.2066
32366W        W38966  13.727   1.394   9.269 -0.1610 -0.1792 -0.1186
32367W        W38967   4.126   3.908  30.522  0.2135  0.0459 -0.0380
32368W        W38968  20.306   4.027  14.337  0.0726  0.3483  0.1130
32369W        W38969   9.609   6.055  32.583 -0.0446 -0.0304 -0.0132
32370W        W38970  18.258   3.959  29.823  0.0610 -0.3178 -0.1584
32371W        W38971  10.740   0.245   7.396  0.1195  0.0299  0.2138
32372W        W38972   7.809   2.980  10.168  0.0395  0.2333  0.1876
32373W        W38973  21.924   2.687  26.071 -0.0023 -0.2976 -0.1732
32374W        W38974   6.324   4.399  31.391  0.0004  0.2056 -0.1954
32375W        W38975   7.655   5.612  10.005 -0.1760  0.0171 -0.0841
32376W        W38976  16.311   4.537   1.407 -0.0171 -0.0801 -0.3538
32377W        W38977  22.160   6.555  21.881  0.1556  0.0493  0.2147
32378W        W38978  12.431   5.523  29.696  0.1161  0.1246 -0.1640
32379W        W38979   9.894   1.112  31.718 -0.1118  0.1956 -0.1926
32380W        W38980  15.482   4.655  34.348  0.1215  0.0591  0.1842
32381W        W38981   5.793   1.506  24.368  0.0709  0.0618  0.1935
32382W        W38982   3.820   0.495  20.702 -0.0221 -0.2605 -0.0897
32383W        W38983  14.478   6.219  31.888 -0.0765  0.3052 -0.0437
32384W        W38984  24.841   5.999  29.879 -0.2855 -0.0586  0.1962
32385W        W38985   3.119   2.391  21.729 -0.1902  0.1644  0.2229
32386W        W38986  14.863   2.238  35.415  0.0639 -0.0130 -0.0537
32387W        W38987  19.193   0.216  25.184 -0.2705  0.1707  0.0584
32388W        W38988  17.879   6.375  27.545 -0.0931 -0.1724  0.1932
32389W        W38989   0.336   5.065   1.727  0.2485 -0.0233 -0.0707
32390W        W38990  16.875   3.889  32.948  0.0414 -0.0057  0.3178
32391W        W38991  19.277   6.339  33.238 -0.2947 -0.1318 -0.0526
32392W        W38992   9.946   5.864  32.268  0.2450  0.0452 -0.1807
32393W        W38993   2.257   0.155  10.346  0.2604  0.0781  0.2562
32394W        W38994  23.135   6.422  24.556  0.2175  0.0146 -0.1477
32395W        W38995   8.622   0.006  27.158  0.3037  0.1603 -0.0786
32396W        W38996   3.636   5.032  21.376 -0.1049 -0.0479  0.4649
32397W        W38997   3.164   2.287   4.089 -0.1488  0.0997  0.2724
32398W        W38998  25.713   0.341  29.585  0.0604 -0.0243  0.1346
32399W        W38999  22.514   3.639   3.590 -0.3205  0.0740 -0.3795
32400W        W39000   4.894   5.734  22.754 -0.0404 -0.0502  0.0127
32401W        W39001  11.969   4.032   9.195 -0.0140 -0.1750 -0.0628
32402W        W39002   5.779   1.941   5.515 -0.1513 -0.1312  0.0934
32403W        W39003  25.078   2.438  33.751 -0.3904 -0.0295 -0.1296
32404W        W39004  13.096   2.605   1.097  0.3877 -0.3261 -0.0218
32405W        W39005  23.200   5.942  25.566  0.2206 -0.1385  0.1604
32406W        W39006   7.505   6.408  34.534  0.0051 -0.0312  0.2229
32407W        W39007  17.278   1.953   6.510  0.4662 -0.1938  0.1615
32408W        W39008   4.109   5.239   9.758 -0.2056 -0.0211 -0.4532
32409W        W39009  12.973   0.383   5.203 -0.0206 -0.0965  0.1248
32410W        W39010  20.568   0.967  34.670 -0.3980 -0.0466  0.2664
32411W        W39011  11.197   0.887  32.397 -0.1634 -0.1357 -0.0074
32412W        W39012   8.248   5.478   5.273 -0.2092  0.0438 -0.0584
32413W        W39013  11.132   5.455  25.110  0.0393 -0.1394 -0.2220
32414W        W39014   8.288   5.134  34.179  0.1787  0.0672  0.0038
32415W        W39015  24.735   5.615  12.296  0.3840 -0.0335 -0.2879
32416W        W39016   9.091   5.006  14.278  0.1756 -0.0087 -0.0741
32417W        W39017   2.693   5.777   3.147  0.0608 -0.0777 -0.0879
32418W        W39018  21.701   4.756   0.142  0.0113  0.1232 -0.0461
32419W        W39019  24.040   1.679   4.913  0.1676  0.1374 -0.2152
32420W        W39020  19.352   2.991  34.311 -0.1510  0.0345 -0.0456
32421W        W39021  24.620   2.714  35.215  0.1591  0.0516 -0.1089
32422W        W39022   1.195   6.025  33.081  0.1535 -0.0473 -0.0096
32423W        W39023   8.650   5.410  20.761  0.1249  0.0335  0.0921
32424W        W39024   6.871   4.855   8.556  0.1626 -0.0441  0.0064
32425W        W39025  22.675   3.071   5.867  0.2499  0.1544 -0.0169
32426W        W39026  13.370   2.965  31.115 -0.1818 -0.3422  0.1286
32427W        W39027  11.188   1.071  14.682 -0.3117  0.1046  0.4461
32428W        W39028   6.984   4.972   3.059 -0.0611 -0.0419  0.2970
32429W        W39029  18.216   0.363  30.133  0.1095  0.1116  0.1686
32430W        W39030  20.979   1.650  22.720  0.0939  0.0912  0.1081
32431W        W39031   0.241   3.977  28.772  0.0748 -0.0163 -0.1275
32432W        W39032   0.830   6.493   4.015 -0.2067  0.0494 -0.2568
32433W        W39033  18.839   6.353   2.452 -0.2507  0.1092 -0.0492
32434W        W39034  20.925   0.571  34.794  0.1589  0.3982  0.1226
32435W        W39035  18.479   6.328  35.860 -0.1363  0.1176  0.2244
32436W        W39036   1.591   1.570  34.720 -0.0370 -0.0389 -0.0067
32437W        W39037  20.114   0.960  30.042  0.2413 -0.3613 -0.0052
32438W        W39038   4.890   2.679   6.816 -0.3689 -0.1392  0.1298
32439W        W39039  24.389   3.275  26.934 -0.2357  0.1459 -0.0897
32440W        W39040  16.067   3.115  12.434 -0.0461  0.1884  0.1033
32441W        W39041  21.984   5.511  11.534 -0.1653  0.0958 -0.2103
32442W        W39042  19.098   5.790  14.498  0.1831  0.1366  0.1010
32443W        W39043  18.647   6.037  13.794 -0.0317  0.1981  0.0587
32444W        W39044  24.855   5.633  31.364  0.2039  0.2822  0.0629
32445W        W39045  22.788   5.374  20.472  0.2660 -0.0743  0.2206
32446W        W39046  10.271   1.240  29.020  0.1240  0.0081  0.0114
32447W        W39047  23.318   6.083  12.610  0.1545  0.0624 -0.0982
32448W        W39048   9.617   4.196  10.817 -0.0699 -0.0444  0.1268
32449W        W39049   7.310   2.874  24.337 -0.2044  0.0466  0.1853
32450W        W39050   8.486   0.911  13.560  0.0219  0.2179 -0.1807
32451W        W39051   5.050   2.154   0.328 -0.0209  0.0820 -0.0689
32452W        W39052  12.754   4.517   8.225  0.0020 -0.0787  0.2965
32453W        W39053  19.576   0.585   6.187 -0.0241 -0.2249  0.1808
32454W        W39054  11.946   3.735  23.601 -0.1342  0.0174  0.1369
32455W        W39055  25.596   1.320  24.096 -0.0757 -0.0758  0.1011
32456W        W39056   8.798   1.042  14.905  0.5221  0.3381 -0.1246
32457W        W39057  17.750   1.239   9.378 -0.0879 -0.0200 -0.2789
32458W        W39058  16.860   5.851  23.406 -0.0882  0.0952 -0.1605
32459W        W39059  19.226   0.243  33.467  0.0168  0.1528  0.0068
32460W        W39060   1.822   4.877  11.920  0.0364  0.1923 -0.2194
32461W        W39061  15.074   4.630  11.078 -0.1775  0.2141  0.2245
32462W        W39062  20.616   1.396  26.611  0.0381 -0.0637  0.1646
32463W        W39063  13.223   3.671  24.566 -0.0059 -0.0353 -0.0005
32464W        W39064  18.054   0.506   0.439 -0.3206 -0.2570  0.1129
32465W        W39065  16.023   2.675   8.842 -0.0126 -0.1021 -0.1157
32466W        W39066  25.465   2.684   9.001 -0.2150  0.2003 -0.3029
32467W        W39067  12.957   6.436   9.538 -0.3287 -0.1526 -0.0883
32468W        W39068   3.238   6.286  34.744  0.0551 -0.1358 -0.0868
32469W        W39069   0.267   5.330   9.794 -0.0098  0.0254  0.1143
32470W        W39070  11.148   3.134  12.290  0.2353  0.3603  0.0832
32471W        W39071   7.897   4.545  28.121  0.2022 -0.0199  0.0636
32472W        W39072   6.162   1.330   8.048  0.1175 -0.1138  0.2648
32473W        W39073   6.529   1.757   4.011 -0.1104  0.0617  0.1344
32474W        W39074  20.902   5.597   8.546 -0.3247 -0.3344  0.0089
32475W        W39075   9.392   4.006  29.615  0.1866 -0.2215  0.0374
32476W        W39076  22.164   0.936  14.122  0.0614 -0.4286  0.0951
32477W        W39077  19.208   5.371   5.013  0.0980  0.2103 -0.1173
32478W        W39078  19.232   2.780  11.026 -0.0076 -0.0533 -0.0807
32479W        W39079   2.621   3.586  29.684 -0.1446  0.0335 -0.1145
32480W        W39080   0.553   2.176   2.344  0.0225  0.3776 -0.0564
32481W        W39081   1.170   1.226  35.558  0.3806  0.1945 -0.1033
32482W        W39082  21.029   2.309  30.333  0.0815  0.0748  0.0323
32483W        W39083  10.275   2.953  13.393 -0.0044 -0.0056 -0.1301
32484W        W39084   5.125   4.067   0.517 -0.0734 -0.0042  0.1140
32485W        W39085  13.893   6.534  14.264  0.3109  0.0752 -0.2305
32486W        W39086  12.371   4.746  26.702 -0.1864 -0.0179 -0.0975
32487W        W39087  10.963   1.804  33.483 -0.0344  0.1468 -0.0807
32488W        W39088  12.491   2.803   3.330 -0.2620  0.2234  0.0535
32489W        W39089  19.015   2.765   2.865 -0.1021 -0.1143 -0.2604
32490W        W39090  26.061   1.322   0.316 -0.1757 -0.0216 -0.5387
32491W        W39091  11.115   4.778   4.823 -0.1535 -0.1634  0.0131
32492W        W39092   5.484   2.430  27.982 -0.1250 -0.2053  0.0251
32493W        W39093  26.361   6.041  24.382 -0.1680  0.1790  0.3581
32494W        W39094   0.071   2.778  30.820  0.1266  0.2568  0.1246
32495W        W39095   9.694   5.984   9.733  0.1253 -0.5141  0.0498
32496W        W39096  14.792   1.242  12.438  0.0059 -0.0718  0.0538
32497W        W39097  21.776   4.126  22.371  0.1570 -0.0336 -0.2420
32498W        W39098   2.223   5.647  22.039  0.3407 -0.0366 -0.1970
32499W        W39099   3.162   5.905   8.605 -0.0033  0.1024  0.1036
32500W        W39100  10.979   5.241   2.646  0.0236  0.1939  0.0675
32501W        W39101  18.842   5.238  23.497 -0.0113 -0.0184 -0.0280
32502W        W39102  12.248   4.882   1.256 -0.0487  0.1853  0.1888
32503W        W39103  16.834   1.989   6.218 -0.2377  0.0302  0.0049
32504W        W39104  21.151   2.129   6.586 -0.3985  0.2314 -0.1313
32505W        W39105   9.419   6.470  21.498  0.0038 -0.1415  0.4234
32506W        W39106  13.173   0.817   9.422  0.2294 -0.3022 -0.2562
32507W        W39107  21.384   5.817  21.748 -0.0668 -0.0102  0.2824
32508W        W39108  14.156   3.812  30.482  0.0747 -0.3017  0.0331
32509W        W39109  17.449   5.139  31.771  0.2273  0.2899 -0.1041
32510W        W39110  10.669   2.003  11.503 -0.0532  0.0961 -0.1482
32511W        W39111   7.229   2.151  14.734  0.0202  0.1053 -0.0356
32512W        W39112  25.466   2.826  34.794  0.2884 -0.0913  0.0745
32513W        W39113  19.829   6.234   7.265  0.0764 -0.1596 -0.1485
32514W        W39114   3.897   3.587  10.445  0.0008  0.3083  0.1150
32515W        W39115  25.656   3.065  14.435  0.1389 -0.0089  0.0679
32516W        W39116  19.965   0.576  28.699  0.0700  0.0594 -0.2099
32517W        W39117   6.753   4.860  27.100  0.0946  0.2573  0.3653
32518W        W39118   4.122   3.411  33.659  0.2447  0.3907 -0.0397
32519W        W39119   6.231   1.400  30.525  0.1851  0.0752  0.1067
32520W        W39120  17.202   5.205  32.750 -0.0969 -0.1483  0.1922
32521W        W39121   7.998   1.524  10.507 -0.0997  0.1289  0.1831
32522W        W39122  25.215   1.461  21.831 -0.1101  0.1117 -0.1785
32523W        W39123  26.314   2.154  35.639 -0.1060 -0.2922 -0.0329
32524W        W39124   6.382   4.055  34.874 -0.0103  0.2532  0.0528
32525W        W39125   7.020   4.557  21.715 -0.0778  0.0047 -0.1323
32526W        W39126   6.626   3.290   8.719 -0.1840  0.3857  0.2212
32527W        W39127  25.294   1.374  28.819  0.0099  0.0915 -0.1622
32528W        W39128  24.648   4.970  29.358  0.2156 -0.1534 -0.3072
32529W        W39129   6.193   2.618  20.373  0.1146 -0.1163  0.0090
32530W        W39130   1.709   3.604   7.495 -0.0445 -0.2302 -0.0319
32531W        W39131  11.224   1.635   1.039 -0.1847  0.1257  0.0851
32532W        W39132  16.232   2.539  23.733  0.0172 -0.2210 -0.0967
32533W        W39133   3.963   5.256  32.025 -0.1763  0.2496  0.0793
32534W        W39134   6.871   4.231  32.939  0.1118 -0.1149  0.0745
32535W        W39135  12.195   5.487  25.507  0.4469  0.2003 -0.3412
32536W        W39136  20.661   1.873  14.678 -0.3072  0.0090 -0.1101
32537W        W39137  24.660   5.754  35.282 -0.0735  0.1476 -0.0617
32538W        W39138  19.677   5.598  32.931 -0.1900 -0.1192 -0.0600
32539W        W39139  17.245   4.381  29.064 -0.3516 -0.1413  0.1134
32540W        W39140   5.623   2.206  29.982  0.0753 -0.0497  0.1125
32541W        W39141  18.493   1.946  21.699 -0.3113 -0.2833  0.2517
32542W        W39142   7.182   5.134   4.955 -0.2303 -0.0998 -0.3960
32543W        W39143  23.912   4.474  30.581 -0.3061  0.0093 -0.0035
32544W        W39144   7.550   6.182   2.254 -0.0719 -0.0999 -0.0647
32545W        W39145  26.114   1.786  22.954 -0.2829 -0.3300 -0.1025
32546W        W39146  13.038   0.294   1.325  0.1708  0.3827  0.0687
32547W        W39147  18.225   1.341  30.319  0.0034 -0.1784 -0.4153
32548W        W39148  23.602   1.568  25.789 -0.1053  0.2236  0.0381
32549W        W39149  24.749   5.399  34.925  0.2707  0.3682  0.1166
32550W        W39150  10.314   3.553  12.761  0.2923 -0.0567 -0.0429
32551W        W39151  14.037   2.545  33.829  0.2719  0.2057 -0.0545
32552W        W39152  18.091   6.130   5.277 -0.2149  0.0462 -0.1506
32553W        W39153  19.145   2.869  24.533 -0.1817 -0.2263  0.1268
32554W        W39154  18.936   0.653  22.502 -0.0730  0.0147 -0.0763
32555W        W39155  20.267   4.656  25.683 -0.0404  0.0088 -0.3564
32556W        W39156   4.470   4.978   4.168  0.0693 -0.1393  0.0892
32557W        W39157  11.304   2.899  34.607  0.3439  0.1267 -0.0409
32558W        W39158  11.229   1.757   0.216 -0.1374 -0.0052  0.0157
32559W        W39159  15.546   3.912   4.166  0.0783 -0.1977 -0.1885
32560W        W39160  22.131   5.305   6.376 -0.0767  0.1053  0.2429
32561W        W39161   0.138   2.482  35.362 -0.0929  0.5183 -0.3251
32562W        W39162  11.772   4.694  35.212 -0.0734 -0.1808  0.1312
32563W        W39163  20.961   2.610   7.229 -0.1309 -0.0240 -0.0965
32564W        W39164  16.565   2.775   6.941 -0.1573 -0.1868 -0.0839
32565W        W39165  10.095   6.421  23.348  0.0811  0.3150 -0.1739
32566W        W39166   0.730   2.367   6.863  0.3554 -0.2153  0.0178
32567W        W39167   7.296   6.126  33.374 -0.1270 -0.2844  0.1149
32568W        W39168  16.464   1.399  26.139  0.0837 -0.2524  0.2030
32569W        W39169   3.551   5.982   4.317 -0.2419  0.1825 -0.3205
32570W        W39170   1.496   5.361  32.769 -0.0541  0.1621 -0.0704
32571W        W39171  17.238   0.559   9.744  0.0400  0.1002 -0.0722
32572W        W39172  11.926   5.810   1.425  0.1290 -0.0408  0.1150
32573W        W39173   4.590   5.216  26.676  0.1765  0.0170  0.1988
32574W        W39174   1.299   0.371  29.486  0.0999 -0.1014  0.1025
32575W        W39175  10.241   2.719   6.717 -0.2489  0.1691 -0.3312
32576W        W39176   5.728   3.747  33.157  0.1827  0.1832  0.2382
32577W        W39177  21.241   6.299  10.068  0.2575 -0.3118  0.1891
32578W        W39178   7.386   3.225  34.264 -0.0969 -0.0916  0.0914
32579W        W39179  15.769   5.445   3.286 -0.2056 -0.0746 -0.0923
32580W        W39180  12.595   5.861  31.134 -0.0432  0.3105 -0.0228
32581W        W39181  21.623   0.811   7.375  0.2018  0.0570 -0.1843
32582W        W39182  13.135   0.612  25.012 -0.1179  0.0575 -0.0739
32583W        W39183   5.713   4.041  28.592  0.0451  0.0942  0.2852
32584W        W39184   1.226   1.459  31.221  0.4881  0.0344 -0.2262
32585W        W39185   4.568   6.056   1.532  0.1872 -0.1137 -0.0621
32586W        W39186  15.802   2.553  28.598  0.0607 -0.0647 -0.1830
32587W        W39187   8.739   1.214  21.847  0.1024  0.0050  0.0434
32588W        W39188   1.267   1.716   7.545 -0.1902  0.0219  0.0194
32589W        W39189   1.598   2.858  35.784 -0.1174  0.0827  0.2051
32590W        W39190   5.689   2.212  12.720  0.0217 -0.0514 -0.1948
32591W        W39191  12.073   1.283  27.214 -0.2503  0.2352  0.2426
32592W        W39192  18.951   3.953  21.563 -0.0697  0.0034 -0.1981
32593W        W39193   7.452   6.185   4.053  0.0264 -0.0571  0.2912
32594W        W39194  18.820   6.309  32.082 -0.0314 -0.2126 -0.1333
32595W        W39195   9.272   0.611   3.369  0.1217  0.4166 -0.0250
32596W        W39196   6.596   2.224   4.747 -0.0989 -0.1508  0.1140
32597W        W39197  10.073   3.998  34.563  0.2134  0.1959  0.0164
32598W        W39198   5.827   2.001  11.768  0.0814 -0.3489 -0.1684
32599W        W39199  10.797   6.531  11.082 -0.0155 -0.0287  0.2689
32600W        W39200  11.805   5.353  15.010  0.1160 -0.1520 -0.0349
32601W        W39201  12.660   0.203   5.560 -0.1594  0.1913  0.0262
32602W        W39202  20.849   1.880  21.596  0.1211  0.0088 -0.1357
32603W        W39203  19.621   0.322   0.928  0.0587 -0.0730  0.1024
32604W        W39204  25.368   1.619   8.167  0.0924  0.0684 -0.1183
32605W        W39205   0.362   1.358  23.668 -0.2099  0.4110  0.0931
32606W        W39206  16.510   5.960  23.026  0.1564  0.2258 -0.2091
32607W        W39207   1.104   5.804  12.609  0.0265 -0.2001 -0.1708
32608W        W39208  25.780   3.709  10.424 -0.3580  0.0505  0.3605
32609W        W39209  18.395   0.638   2.454 -0.2315 -0.3314  0.1908
32610W        W39210  16.797   4.961  34.019 -0.1477 -0.2105 -0.0404
32611W        W39211  11.981   5.293   8.643  0.0687 -0.0551 -0.0295
32612W        W39212  25.435   1.340   9.842  0.1657 -0.2377 -0.1663
32613W        W39213  13.384   4.809  34.237 -0.0554  0.2604  0.2708
32614W        W39214  14.303   0.225   2.619  0.0455  0.2165  0.1350
32615W        W39215  24.764   3.586   0.870  0.4105  0.1308 -0.1445
32616W        W39216  17.127   2.051  12.374  0.1889  0.0226 -0.0719
32617W        W39217   0.788   1.260   1.120 -0.1271 -0.0031 -0.2935
32618W        W39218   0.717   3.946  25.861  0.0840  0.0220 -0.2136
32619W        W39219  18.305   3.297   8.310  0.0821  0.1477  0.1987
32620W        W39220   4.929   3.048  12.504  0.0407 -0.2934 -0.0189
32621W        W39221   0.498   0.237  21.782 -0.1819  0.2064 -0.0814
32622W        W39222  10.477   1.523  35.824  0.0707 -0.4941  0.0569
32623W        W39223   3.758   1.408  24.951 -0.0525 -0.1837  0.0326
32624W        W39224  22.983   6.442  10.800  0.0500 -0.1680 -0.0265
32625W        W39225   1.127   4.344  20.514  0.2047 -0.2464  0.1067
32626W        W39226  11.525   4.347  33.954  0.1044  0.0695 -0.1056
32627W        W39227   8.609   3.213   9.816 -0.1015  0.1318 -0.3782
32628W        W39228  12.746   6.014  23.022  0.1685  0.0776  0.0135
32629W        W39229  19.185   6.505  27.837 -0.1365 -0.0947 -0.0222
32630W        W39230  18.677   0.104  13.024 -0.0475 -0.2167 -0.1355
32631W        W39231   0.143   6.359  32.994 -0.2540 -0.1619 -0.1641
32632W        W39232  26.056   0.473  12.941  0.1982 -0.4008  0.1716
32633W        W39233  24.370   5.739   0.965  0.1413 -0.0034  0.1272
32634W        W39234  20.176   2.586  26.633 -0.3548  0.0195 -0.0810
32635W        W39235   4.499   3.306  12.508  0.0149  0.3584  0.0568
32636W        W39236  17.270   4.291  31.216  0.0022 -0.0639 -0.0560
32637W        W39237   1.448   4.169  25.369  0.2250 -0.0326 -0.0231
32638W        W39238   1.944   0.323  32.967 -0.0623  0.1668 -0.0428
32639W        W39239  25.670   1.410  15.305 -0.3292 -0.1468 -0.0098
32640W        W39240   9.418   0.595  27.126  0.0895 -0.0851  0.3063
32641W        W39241  16.544   3.654  33.756  0.0875 -0.0796 -0.2539
32642W        W39242  23.892   0.053   6.205  0.0316  0.0688 -0.2602
32643W        W39243   7.374   3.875  11.744  0.0673  0.0400  0.0759
32644W        W39244  13.596   5.233  32.170  0.0786  0.1135  0.1420
32645W        W39245  22.993   3.674  20.344 -0.1677 -0.2951 -0.0018
32646W        W39246  24.436   5.285  25.754  0.0849  0.1768  0.1257
32647W        W39247  17.448   4.574  20.745  0.0317  0.2121 -0.1405
32648W        W39248  19.417   5.455   3.938 -0.0134  0.0891  0.3674
32649W        W39249  13.575   3.694  21.168  0.3115  0.1087 -0.1372
32650W        W39250  16.486   0.247   1.759  0.0107  0.0705 -0.0270
32651W        W39251  21.998   4.607  25.684 -0.1806  0.0046 -0.2761
32652W        W39252  23.528   1.970  22.123  0.0405 -0.1351  0.0384
32653W        W39253  11.534   5.485   9.856  0.1337 -0.2240  0.0464
32654W        W39254  24.286   6.006   7.083 -0.0812  0.2376  0.2639
32655W        W39255  20.750   5.782   6.120 -0.1258  0.3057  0.0374
32656W        W39256   1.268   6.577  20.992  0.2452 -0.0202  0.1384
32657W        W39257  12.611   3.958  13.597 -0.0286 -0.1391  0.1513
32658W        W39258   1.698   2.747   3.810  0.0508  0.0914  0.0667
32659W        W39259  15.006   4.053   9.121 -0.0366 -0.2334 -0.0690
32660W        W39260  24.946   2.356   3.352 -0.3049 -0.0702 -0.0701
32661W        W39261  12.626   4.804  15.042 -0.2377  0.1312 -0.2076
32662W        W39262  11.898   5.649  28.330  0.0526 -0.0228  0.0168
32663W        W39263   3.964   1.510  33.188 -0.2273 -0.1372  0.1909
32664W        W39264   5.446   0.138  10.739 -0.0509  0.3560 -0.1337
32665W        W39265  10.786   2.530  30.238 -0.1120 -0.2103 -0.0669
32666W        W39266  18.924   5.836  32.301  0.0517 -0.0435  0.0466
32667W        W39267  22.136   4.107  34.902  0.0794 -0.0874  0.1196
32668W        W39268  24.578   6.149   5.184 -0.1054  0.0654 -0.0444
32669W        W39269   4.622   3.343  28.186 -0.0438 -0.0387 -0.0995
32670W        W39270  13.099   1.094  33.411 -0.0001  0.1932  0.1501
32671W        W39271  19.908   4.520  22.326 -0.0507  0.0993  0.0643
32672W        W39272  10.400   5.689  25.139 -0.0440 -0.2631 -0.1726
32673W        W39273  17.173   0.922  31.863  0.0383  0.1760 -0.0733
32674W        W39274   3.225   3.274  25.552  0.0887 -0.1604  0.1307
32675W        W39275  10.172   4.980   9.129 -0.2521  0.1974  0.1783
32676W        W39276  17.166   2.180  10.308 -0.0285  0.3705  0.2757
32677W        W39277   2.972   1.985   5.421 -0.0939 -0.0291  0.2016
32678W        W39278  19.333   2.128  15.398 -0.0617 -0.3506 -0.3616
32679W        W39279  20.976   3.800  22.702  0.0355 -0.0171 -0.1053
32680W        W39280  15.807   1.565  28.325  0.2175  0.2543 -0.2594
32681W        W39281  16.425   2.274  32.019  0.0712  0.0334  0.1591
32682W        W39282   7.188   6.511   2.455  0.1197  0.3553  0.3198
32683W        W39283  12.144   2.609   2.588  0.0089  0.0125 -0.0104
32684W        W39284  19.468   1.478   6.029  0.0190 -0.0351 -0.0128
32685W        W39285  25.163   1.314  14.041 -0.0274  0.0564  0.2471
32686W        W39286  20.803   2.201   6.908 -0.1715  0.3933  0.0598
32687W        W39287  14.689   3.462   3.586  0.1701  0.0021 -0.1423
32688W        W39288  23.169   3.327  11.725  0.2222  0.2475 -0.1512
32689W        W39289  18.843   5.528  21.165 -0.3181 -0.0733  0.2413
32690W        W39290  11.452   5.157   9.485 -0.3584  0.3367 -0.1662
32691W        W39291  12.162   2.477  29.533 -0.0177 -0.0882  0.4176
32692W        W39292   0.929   3.130  27.251 -0.0687 -0.0801  0.0380
32693W        W39293  12.092   4.529  11.908  0.3429  0.0325  0.2403
32694W        W39294   4.984   4.483   0.989  0.1130 -0.1937 -0.0852
32695W        W39295  17.946   1.212   7.913  0.0919  0.0057 -0.3191
32696W        W39296  25.069   4.678   4.284  0.0711 -0.0264 -0.1294
32697W        W39297   1.277   6.128  14.589  0.0390  0.0349 -0.1668
32698W        W39298  19.567   3.598  27.248 -0.0843 -0.0011  0.1110
32699W        W39299  17.879   0.335   9.589  0.2929 -0.0962 -0.0806
32700W        W39300  26.314   0.626   0.047  0.0462 -0.4117  0.0085
32701W        W39301  21.878   6.326  33.535 -0.3256  0.3581 -0.2150
32702W        W39302  23.272   1.954   6.058 -0.3018 -0.0958 -0.0068
32703W        W39303  24.249   4.913   3.253 -0.0036  0.0068  0.0882
32704W        W39304  11.828   0.552   0.051  0.1035  0.0905  0.0131
32705W        W39305  15.522   1.957   4.416 -0.0665 -0.0011  0.0661
32706W        W39306  10.672   3.851  15.187  0.0172 -0.2753 -0.1414
32707W        W39307   2.557   1.514  27.203  0.0808 -0.0775 -0.0773
32708W        W39308  16.343   2.415  28.210  0.0433  0.3994 -0.1371
32709W        W39309  12.671   6.054   2.386 -0.0292  0.0035  0.1241
32710W        W39310   5.221   6.132  21.084 -0.0354  0.1352 -0.1413
32711W        W39311   6.404   1.898  29.195 -0.0135 -0.0241 -0.1141
32712W        W39312  15.057   5.593  31.180  0.1865  0.1598 -0.0451
32713W        W39313  21.040   3.559   2.469 -0.1078  0.3237  0.0512
32714W        W39314  10.112   4.021  27.411  0.2814  0.3054  0.1736
32715W        W39315  21.814   6.380  30.770  0.2973  0.0538 -0.1671
32716W        W39316  15.577   5.784  21.387  0.0417  0.0939 -0.2194
32717W        W39317  20.339   4.327  15.494  0.2989 -0.2287  0.0344
32718W        W39318  19.302   2.307   2.403 -0.2735 -0.2179  0.3718
32719W        W39319  10.481   4.579  13.385 -0.3278  0.0062  0.1868
32720W        W39320   0.990   1.468  27.024 -0.1056 -0.0827  0.0308
32721W        W39321  21.461   1.384  24.561 -0.0545  0.0643  0.3785
32722W        W39322   3.130   3.401  35.760 -0.0256  0.1562  0.1007
32723W        W39323  14.347   0.420   8.587  0.0951 -0.0321  0.0373
32724W        W39324   6.440   1.340  23.110 -0.3964  0.1150  0.1841
32725W        W39325   4.608   4.809  24.019  0.0144 -0.0040 -0.0495
32726W        W39326  10.955   1.966  29.094 -0.1131  0.1124 -0.1050
32727W        W39327   9.025   3.925   7.152 -0.2405  0.0071  0.2405
32728W        W39328  10.738   4.983  28.107  0.1981  0.0448 -0.0874
32729W        W39329   3.869   4.374   8.716  0.1456  0.1558 -0.0864
32730W        W39330  14.877   1.051   4.666  0.1074  0.2161  0.0262
32731W        W39331  21.089   6.433  10.905 -0.0663 -0.0751 -0.1210
32732W        W39332   7.575   2.361   3.283  0.0742 -0.1758 -0.2687
32733W        W39333  24.960   4.067  12.268  0.2622  0.1342 -0.0129
32734W        W39334   5.196   2.921  11.646  0.0243 -0.1050  0.3138
32735W        W39335  14.765   2.968  11.116  0.2515 -0.3133 -0.0016
32736W        W39336  24.416   1.095   3.622 -0.0797  0.2063 -0.0378
32737W        W39337   8.020   6.052   7.344  0.1554  0.0981 -0.2126
32738W        W39338   0.889   1.384  33.646 -0.0231  0.1146 -0.0282
32739W        W39339   3.414   2.252  31.426  0.2811 -0.1576  0.1250
32740W        W39340   1.474   3.399   8.264 -0.1085  0.2004 -0.1632
32741W        W39341  12.853   0.366   9.324 -0.0932 -0.1178  0.0585
32742W        W39342  13.708   3.071  27.325 -0.0705  0.2060  0.0715
32743W        W39343   9.311   2.645  25.056 -0.1652  0.1670 -0.2473
32744W        W39344   5.990   1.685  33.528 -0.2436  0.0489 -0.1894
32745W        W39345  14.250   1.851  31.931 -0.2812  0.0394 -0.3790
32746W        W39346   9.114   3.536   6.754 -0.0033 -0.1351 -0.1306
32747W        W39347  10.064   5.371  12.194  0.1936 -0.3522 -0.1406
32748W        W39348  12.506   5.275  34.549  0.2603 -0.4064  0.0567
32749W        W39349   2.285   6.447   2.571 -0.0323 -0.0085  0.0399
32750W        W39350   1.508   1.721  14.928 -0.2862 -0.2782  0.1054
32751W        W39351  13.859   4.446  24.794 -0.1348  0.1057  0.0505
32752W        W39352  16.572   1.661  24.679 -0.3813 -0.0306  0.0183
32753W        W39353  15.781   6.212  33.295 -0.3592 -0.0309  0.4392
32754W        W39354  14.214   4.511  25.163 -0.1614 -0.0624 -0.1499
32755W        W39355   5.509   2.520  11.247 -0.1239 -0.0484  0.2306
32756W        W39356  11.185   5.846  21.760  0.4283 -0.5163 -0.2199
32757W        W39357  10.140   1.206   2.235  0.2400  0.1271 -0.0077
32758W        W39358  10.982   5.451  23.611 -0.0008  0.0621 -0.0813
32759W        W39359  15.719   1.575  23.136 -0.2604  0.0771 -0.0200
32760W        W39360   4.161   2.114  29.805 -0.0686 -0.2274 -0.1787
32761W        W39361  14.811   3.010  12.069  0.2435 -0.3349  0.2770
32762W        W39362  19.139   0.315   5.304  0.0506 -0.0223 -0.1708
32763W        W39363  15.917   6.577  29.469  0.0213 -0.0093  0.1699
32764W        W39364   8.303   6.261   3.815 -0.1003  0.0281 -0.1830
32765W        W39365  17.495   0.955  13.596 -0.2979  0.1126 -0.0408
32766W        W39366   8.032   3.482   2.837  0.1079  0.1559  0.1132
32767W        W39367  26.095   1.533  29.551 -0.0880 -0.0832 -0.2481
32768W        W39368  19.947   2.630  10.263 -0.1720 -0.1381 -0.1375
32769W        W39369  17.306   5.508  12.952  0.1306 -0.1232  0.1933
32770W        W39370  19.368   3.842   2.776 -0.2150  0.1347 -0.0053
32771W        W39371  10.267   3.560  30.225  0.2276 -0.0721 -0.1019
32772W        W39372  25.397   2.779   8.180  0.0350 -0.3236 -0.2179
32773W        W39373  11.761   1.227  28.469 -0.1765  0.1055  0.0854
32774W        W39374  21.579   4.529  24.805  0.1371 -0.3478 -0.0116
32775W        W39375  24.696   3.833  32.391 -0.2454  0.1517  0.2219
32776W        W39376   2.884   1.185  24.695 -0.1967 -0.0109 -0.1157
32777W        W39377  23.460   1.293  21.078  0.1596  0.2426  0.0421
32778W        W39378  12.387   1.437  35.329 -0.0033 -0.1458 -0.0905
32779W        W39379   5.410   1.468  27.009  0.0214 -0.2156  0.1669
32780W        W39380   3.133   5.421   8.462  0.0067  0.2399  0.0654
32781W        W39381  24.391   3.052   1.344  0.0722 -0.1346 -0.3619
32782W        W39382  15.806   2.675   8.096  0.0679  0.0922  0.2551
32783W        W39383  12.844   6.580  27.078 -0.0307  0.0575  0.2708
32784W        W39384  12.313   1.378   8.327 -0.4233  0.0267 -0.1478
32785W        W39385   2.952   0.102  23.769  0.0270  0.0375  0.1316
32786W        W39386  20.960   4.408   0.499  0.0600 -0.0664 -0.0972
32787W        W39387  11.293   2.149  33.332  0.0530  0.0220 -0.0333
32788W        W39388   5.049   0.677  10.192 -0.2645 -0.0255 -0.1074
32789W        W39389  12.284   4.917  28.553  0.0842 -0.0576 -0.0001
32790W        W39390  15.992   0.716  22.059  0.1238 -0.1621  0.2065
32791W        W39391  15.335   1.898  32.915 -0.1327 -0.0271 -0.1165
32792W        W39392  13.802   0.827  26.993  0.0985 -0.0970 -0.2974
32793W        W39393  24.006   2.709  11.355  0.2008  0.1490 -0.0776
32794W        W39394   5.503   0.994  28.175 -0.2814  0.0221 -0.0250
32795W        W39395  25.142   3.730  33.724 -0.0242 -0.0622  0.0552
32796W        W39396   3.688   0.950   1.963 -0.1495 -0.0147  0.2489
32797W        W39397  12.748   3.003  29.162 -0.1002  0.0906 -0.1746
32798W        W39398  18.652   5.307  31.558  0.0876  0.1714  0.0106
32799W        W39399  21.871   3.239   9.884 -0.2269  0.1618 -0.0672
32800W        W39400  20.826   1.620  32.550 -0.1568 -0.2548 -0.0540
32801W        W39401   8.300   6.391  34.555 -0.0119 -0.1830  0.0701
32802W        W39402   2.213   2.550  22.050 -0.2404  0.0010  0.1114
32803W        W39403   2.724   3.286   6.514  0.0274 -0.1249  0.0749
32804W        W39404  23.696   3.821  12.779 -0.0548 -0.1381  0.0314
32805W        W39405   8.662   6.561  23.541  0.0898 -0.2444  0.1689
32806W        W39406  21.559   4.405   8.340 -0.1778 -0.2495  0.4126
32807W        W39407  17.384   0.232   9.413  0.2325 -0.2335  0.0423
32808W        W39408  15.435   4.763  33.867 -0.2130 -0.2653  0.0076
32809W        W39409  11.073   3.498  28.830 -0.1494 -0.0630  0.0577
32810W        W39410  25.197   1.555   1.251 -0.0668  0.3133  0.0943
32811W        W39411   5.199   3.333  34.388  0.0346  0.1908 -0.0666
32812W        W39412  20.779   1.020   1.306  0.0354 -0.0077  0.2212
32813W        W39413  19.919   4.786  10.804  0.0839 -0.0200  0.0651
32814W        W39414  10.597   1.611  25.744 -0.0183  0.0837 -0.0629
32815W        W39415  20.374   0.476   0.155 -0.0436  0.2570  0.0485
32816W        W39416  22.284   1.164  26.058 -0.1582 -0.2291 -0.1399
32817W        W39417   8.987   4.116  13.773  0.0689  0.0564 -0.1322
32818W        W39418  17.653   2.129  11.735  0.3397  0.0383 -0.0413
32819W        W39419  13.132   2.723  32.483 -0.2435 -0.2282 -0.2974
32820W        W39420  23.993   2.200  32.796 -0.2477 -0.2333  0.1177
32821W        W39421   7.002   3.901  34.771 -0.3341  0.0807  0.1671
32822W        W39422  18.562   5.046  34.145 -0.1004  0.0303  0.0004
32823W        W39423   5.104   6.309  27.380  0.1376 -0.1893  0.0586
32824W        W39424  12.461   2.238  36.056  0.2829  0.0951  0.0606
32825W        W39425   2.701   0.944  31.652 -0.1235  0.0803  0.0412
32826W        W39426  16.460   0.755  22.583 -0.0248  0.0943  0.0918
32827W        W39427  25.604   5.389  10.991  0.1925  0.0838  0.0276
32828W        W39428  21.153   1.508  21.658  0.0994  0.2828  0.0446
32829W        W39429  23.683   1.042   9.281 -0.0794  0.1821 -0.3557
32830W        W39430  20.856   5.113   3.555 -0.2146  0.0629  0.0851
32831W        W39431  18.203   2.221   0.359 -0.0169 -0.0592 -0.3084
32832W        W39432   1.637   3.733  23.582  0.0647  0.0386 -0.1856
32833W        W39433  12.413   4.766   6.186  0.0024 -0.0769  0.0643
32834W        W39434  10.670   6.004  31.597  0.0038  0.1299  0.2262
32835W        W39435   2.975   5.290  10.435  0.2425 -0.2912  0.1865
32836W        W39436  12.519   1.152   3.814  0.2329 -0.1387  0.0549
32837W        W39437  22.627   4.755   5.208 -0.0863  0.1946  0.0728
32838W        W39438   0.352   2.585  34.348  0.0134  0.1154  0.1084
32839W        W39439   1.072   4.729  24.105 -0.1787  0.1313 -0.2067
32840W        W39440   1.438   5.940  21.334 -0.1513 -0.3972 -0.1524
32841W        W39441  12.881   5.019  31.715 -0.2877  0.0185  0.0513
32842W        W39442  14.804   0.115  30.693  0.0585 -0.3940 -0.0230
32843W        W39443  12.116   0.043  14.422 -0.0121 -0.0343  0.1692
32844W        W39444  14.629   0.246  24.814  0.0252  0.4929 -0.0750
32845W        W39445  14.418   5.003  15.420 -0.0822  0.1012 -0.1324
32846W        W39446  25.212   0.316   0.392 -0.2023  0.1774 -0.0720
32847W        W39447   7.223   3.813   2.260  0.0832 -0.0969 -0.1239
32848W        W39448  12.448   5.643  22.757  0.1771  0.0923 -0.2746
32849W        W39449  19.907   0.490  29.203  0.1041 -0.0652 -0.4227
32850W        W39450  16.206   0.648  14.654  0.0147  0.0348  0.0469
32851W        W39451   0.518   0.612  32.922  0.1496  0.0513 -0.2740
32852W        W39452  23.754   0.211   6.707  0.0796 -0.0325  0.0141
32853W        W39453   4.114   6.274  13.635 -0.0368 -0.3561 -0.0347
32854W        W39454  22.684   1.349  30.305  0.0414  0.0783  0.1682
32855W        W39455  13.954   6.467   2.221 -0.0495 -0.2603 -0.1048
32856W        W39456   2.712   6.227   8.245 -0.2818 -0.4221  0.3126
32857W        W39457   7.354   3.125  33.538  0.2134 -0.0145 -0.2209
32858W        W39458  12.966   6.057  21.193  0.0875  0.0658  0.1335
32859W        W39459   5.446   2.536  26.194 -0.3427 -0.3122  0.1982
32860W        W39460  25.095   1.297  29.329  0.0312 -0.3255  0.3195
32861W        W39461   2.071   4.989   5.553  0.2429 -0.2833  0.0916
32862W        W39462  18.320   0.664   4.572  0.2986 -0.0719 -0.0578
32863W        W39463  26.141   0.320   7.725 -0.2365 -0.0836 -0.0855
32864W        W39464   2.356   1.106  32.162 -0.1669  0.0393  0.0600
32865W        W39465  11.447   1.121  31.875 -0.0263 -0.0053 -0.0203
32866W        W39466   7.550   3.170   5.533  0.1730 -0.1084 -0.2686
32867W        W39467   9.538   3.553   3.823 -0.2673  0.0698 -0.1156
32868W        W39468   2.357   5.024   7.165  0.1484  0.0499 -0.4261
32869W        W39469   6.420   6.154   8.535  0.2582 -0.0697  0.1529
32870W        W39470   2.436   4.428  32.667 -0.0931  0.1285 -0.1735
32871W        W39471  19.329   4.722  31.333 -0.2986 -0.1147 -0.0677
32872W        W39472  16.783   1.948  22.792 -0.0318  0.1489 -0.1393
32873W        W39473   8.522   2.608  31.672 -0.2541  0.0469  0.0752
32874W        W39474   8.372   5.609  27.685 -0.1081 -0.2586  0.0829
32875W        W39475  12.584   0.643   2.113  0.0314  0.0404 -0.1649
32876W        W39476   1.449   1.485   9.686  0.4501 -0.0536  0.2112
32877W        W39477  22.354   6.354  29.786 -0.2405  0.1919 -0.2255
32878W        W39478  19.264   1.283   3.291 -0.3243  0.0089  0.4865
32879W        W39479  25.931   4.872   2.652  0.1141  0.0194 -0.3218
32880W        W39480  10.625   2.533   0.142 -0.0653  0.5113 -0.1185
32881W        W39481   4.113   3.437  22.087  0.2500 -0.2825 -0.1749
32882W        W39482   9.283   4.677  28.525  0.2173  0.1567 -0.2729
32883W        W39483   8.559   3.183  30.570 -0.1136  0.2769 -0.2619
32884W        W39484  23.945   1.629  14.458  0.2449 -0.0109  0.1115
32885W        W39485  20.913   6.447  12.358  0.0249  0.1021  0.1491
32886W        W39486   3.846   4.069  25.491  0.1587  0.0695 -0.1338
32887W        W39487  17.042   6.440  26.566 -0.2001  0.2410  0.0792
32888W        W39488   6.258   5.891   6.436  0.3686 -0.0162 -0.1781
32889W        W39489  25.569   5.010  33.850 -0.0005  0.1969 -0.0982
32890W        W39490  14.830   5.064   3.168  0.2611 -0.2758 -0.0388
32891W        W39491   8.418   2.194  33.994  0.3054  0.2450  0.0907
32892W        W39492   9.700   2.238   7.695  0.2110 -0.2667  0.0901
32893W        W39493  24.296   3.203   2.365 -0.0102  0.2464 -0.1510
32894W        W39494  20.314   0.217  23.769  0.1074 -0.0557 -0.2327
32895W        W39495  18.441   1.701  14.105  0.1955 -0.0916 -0.1260
32896W        W39496  17.369   5.877  14.475  0.0209 -0.2744 -0.0817
32897W        W39497   1.606   4.198   2.695 -0.1271 -0.1457 -0.0921
32898W        W39498  15.466   6.257  21.180  0.3375 -0.0281 -0.0080
32899W        W39499  25.848   0.707   4.739 -0.2091 -0.1540 -0.2847
32900W        W39500  14.010   5.821   0.112  0.0888  0.1872 -0.1954
32901W        W39501   5.663   3.711  31.798 -0.3040  0.0219  0.1513
32902W        W39502  23.325   1.398   0.029 -0.1345 -0.0690 -0.0861
32903W        W39503   5.311   4.332  35.260 -0.0215 -0.0413 -0.1048
32904W        W39504  10.495   1.903  11.969 -0.2470  0.1707 -0.0916
32905W        W39505  21.080   4.660  28.640 -0.0837 -0.3946 -0.0877
32906W        W39506   5.264   3.105  32.593 -0.6077  0.1541  0.0306
32907W        W39507  13.936   3.352  23.039 -0.0153 -0.0610  0.2599
32908W        W39508  10.342   1.649  30.932  0.0362 -0.2219  0.2358
32909W        W39509  17.457   1.263  15.169 -0.1763  0.2858 -0.0067
32910W        W39510   5.447   4.085  10.525  0.0409  0.1800  0.0669
32911W        W39511   1.634   5.853  11.792  0.0855  0.0465  0.0136
32912W        W39512  12.302   2.816   5.993  0.1058  0.0334 -0.0515
32913W        W39513   2.139   4.108  20.967 -0.2146  0.0458  0.2900
32914W        W39514  21.852   5.058  21.423 -0.0977  0.0336 -0.0930
32915W        W39515  15.290   5.216  10.747  0.2190 -0.0795 -0.1248
32916W        W39516   7.121   0.280  26.997  0.1406  0.0070 -0.0299
32917W        W39517  18.854   3.720   3.762  0.2500 -0.0590 -0.0328
32918W        W39518   0.372   0.467  27.550 -0.1075 -0.1804  0.0844
32919W        W39519  26.048   6.069  29.857 -0.0138  0.0932 -0.1398
32920W        W39520  10.227   4.077  33.644  0.0019  0.0562  0.0740
32921W        W39521  10.221   6.473  27.589  0.1010 -0.0350 -0.0220
32922W        W39522   0.562   6.607   9.189 -0.0678 -0.2593  0.1009
32923W        W39523  15.478   0.386  28.686 -0.2608  0.1733  0.0754
32924W        W39524   2.256   4.853  35.177  0.2227 -0.1205 -0.2060
32925W        W39525  20.402   5.893  35.353  0.1905  0.0696  0.0951
32926W        W39526   2.109   4.559   5.363  0.1342 -0.0012  0.0272
32927W        W39527  22.878   2.975  31.519  0.2585  0.0602  0.1188
32928W        W39528   1.945   3.377   8.351  0.0744 -0.0237  0.0842
32929W        W39529   9.136   6.593   1.038 -0.1050 -0.2918 -0.2808
32930W        W39530  15.838   5.614  29.184  0.0530  0.0958  0.2672
32931W        W39531  17.461   1.805  26.886 -0.1499 -0.0161 -0.1314
32932W        W39532   2.209   1.032  34.879 -0.0017  0.0449 -0.0744
32933W        W39533  20.095   4.571  29.485 -0.2423  0.0087  0.2472
32934W        W39534   7.085   2.525  11.649  0.0613  0.0131 -0.1027
32935W        W39535   2.437   5.386   4.947  0.2361 -0.0146  0.0386
32936W        W39536   6.249   4.990  30.366 -0.0696 -0.0741 -0.1778
32937W        W39537  13.616   1.550   9.702 -0.1828 -0.2585 -0.2340
32938W        W39538  17.382   1.074  14.634  0.1861  0.0183  0.1927
32939W        W39539   8.561   1.380  29.828  0.0420 -0.0382 -0.0909
32940W        W39540  10.143   0.487  34.950 -0.0402  0.1323  0.0656
32941W        W39541  14.153   1.809  13.487 -0.1951  0.1614  0.2696
32942W        W39542   1.237   2.557  11.266  0.0883 -0.0461 -0.2520
32943W        W39543  19.162   4.630  22.117  0.0386  0.1047 -0.1436
32944W        W39544   7.964   1.190  23.617 -0.0723 -0.2501 -0.2996
32945W        W39545  12.346   4.603   9.849  0.3537  0.2226 -0.3263
32946W        W39546  17.447   0.334  21.695  0.0120 -0.2374  0.2705
32947W        W39547  16.936   0.174  30.258  0.3623  0.3627  0.0149
32948W        W39548   4.433   2.566  27.202 -0.1724 -0.0930 -0.1521
32949W        W39549  14.547   3.880  13.922 -0.0793  0.1628  0.1332
32950W        W39550   3.834   4.190  10.927  0.1324 -0.1167 -0.0873
32951W        W39551  11.583   4.552  21.547 -0.2557 -0.0386 -0.0500
32952W        W39552   6.829   5.989  23.988 -0.0986  0.1939  0.1927
32953W        W39553   7.494   4.146  32.459  0.1165 -0.0105 -0.2511
32954W        W39554  13.039   4.842  35.546 -0.1977  0.0360  0.0568
32955W        W39555  14.802   1.128  23.398  0.3041 -0.5273 -0.3172
32956W        W39556   8.713   4.446   0.942  0.0934 -0.0992 -0.3296
32957W        W39557  10.607   1.385  12.242 -0.2478  0.3356  0.0481
32958W        W39558  12.231   3.353  31.252  0.1817  0.0521 -0.1729
32959W        W39559  12.101   4.732  31.061  0.0086  0.0293 -0.2910
32960W        W39560  10.137   6.219  29.930  0.1643  0.1710  0.0055
32961W        W39561  17.722   4.351  25.186 -0.0428 -0.1184  0.1915
32962W        W39562  17.913   1.594  30.790 -0.0485 -0.1195 -0.0168
32963W        W39563   6.422   3.413  24.442  0.0913 -0.1009  0.1962
32964W        W39564   2.821   1.562   5.302 -0.2500  0.1052  0.1971
32965W        W39565  23.363   4.763   9.677 -0.3141  0.3411 -0.1907
32966W        W39566   4.611   0.047   2.792 -0.1934  0.0918  0.4190
32967W        W39567  10.754   0.349   7.998  0.2431 -0.0109 -0.1424
32968W        W39568  12.074   1.890   0.017 -0.0769  0.2460  0.0195
32969W        W39569   0.033   5.399  24.953 -0.0674 -0.0014 -0.0506
32970W        W39570  25.395   5.872  28.641 -0.3927 -0.0915 -0.0743
32971W        W39571  11.755   4.156  12.110 -0.1037 -0.1721  0.0037
32972W        W39572  13.915   2.337   1.868  0.0053 -0.0175 -0.1281
32973W        W39573  12.109   0.485  11.407 -0.2465 -0.0344 -0.0213
32974W        W39574  18.693   0.598  35.288 -0.1510 -0.1635  0.2376
32975W        W39575   1.707   4.805  11.354  0.0821 -0.0605 -0.0578
32976W        W39576  21.989   4.637   3.601 -0.1956  0.0683  0.2043
32977W        W39577   8.562   0.055  29.350  0.1327  0.1212 -0.0632
32978W        W39578  11.114   4.053  22.898  0.2887 -0.0220 -0.4662
32979W        W39579   4.919   1.146   5.042 -0.0424  0.0679  0.2910
32980W        W39580   6.431   0.511   5.399 -0.1497  0.0061 -0.0570
32981W        W39581  12.042   0.659  23.138  0.0258  0.1853 -0.1918
32982W        W39582  23.627   0.739   3.799  0.0238 -0.2213 -0.1248
32983W        W39583   8.592   5.053  29.024 -0.1934  0.1287  0.1722
32984W        W39584   2.244   6.148   5.482 -0.0120  0.2380  0.1820
32985W        W39585   1.255   3.252  32.527 -0.2643 -0.0849  0.0136
32986W        W39586  13.429   1.803   6.000  0.0512 -0.0079  0.1651
32987W        W39587   3.133   4.474  11.219  0.2957  0.2688 -0.2430
32988W        W39588  14.173   2.283  10.134  0.1465 -0.1432 -0.0003
32989W        W39589  16.318   4.198  24.183  0.0441 -0.0360 -0.2715
32990W        W39590  26.177   4.862  31.983 -0.0000  0.0236 -0.1035
32991W        W39591   6.111   6.570   4.100 -0.3099 -0.2435  0.0629
32992W        W39592  14.202   0.461  11.412 -0.1052  0.1250 -0.1709
32993W        W39593  17.492   3.705  34.114  0.0674 -0.2637 -0.1483
32994W        W39594  22.329   3.760  11.019  0.0935 -0.1876 -0.0817
32995W        W39595  17.955   4.313  33.608 -0.1008 -0.0840  0.0541
32996W        W39596  10.734   5.691   4.980  0.0581  0.1418 -0.3337
32997W        W39597  21.139   5.774   1.684 -0.1290  0.4871  0.1843
32998W        W39598  22.503   0.800  27.205 -0.1190 -0.3260 -0.0001
32999W        W39599  18.631   0.422  23.605  0.2330  0.2433 -0.1416
33000W        W39600   6.936   0.292  21.652  0.1459 -0.0079  0.0616
33001W        W39601  20.027   6.545   8.870 -0.3610  0.3396 -0.0530
33002W        W39602  18.359   2.924  31.012  0.1787  0.0735  0.0160
33003W        W39603   9.435   5.349   2.927 -0.0582  0.0292 -0.3135
33004W        W39604  13.430   3.644  31.316  0.0871  0.0847 -0.1127
33005W        W39605  18.910   4.505  28.045  0.1764 -0.1255 -0.1813
33006W        W39606  21.166   5.339   0.115  0.0562 -0.0359  0.1674
33007W        W39607  15.525   2.088  29.739 -0.0084  0.2170 -0.1214
33008W        W39608  20.574   0.335   8.319  0.0414  0.0407  0.0254
33009W        W39609  13.907   3.199   8.453 -0.0673 -0.1043  0.0546
33010W        W39610  21.501   0.963  21.070 -0.0284  0.2994  0.0751
33011W        W39611  11.255   4.981   8.970 -0.0353 -0.0182  0.0373
33012W        W39612  22.329   0.537   1.339  0.1294 -0.0485 -0.0856
33013W        W39613  14.634   5.621  14.789 -0.0617 -0.2663  0.1611
33014W        W39614  11.020   6.321  35.601 -0.1470  0.1478 -0.0765
33015W        W39615   6.766   2.639  25.655 -0.0845  0.3753 -0.0319
33016W        W39616  17.006   1.581  22.571 -0.0292  0.3606  0.0696
33017W        W39617   8.292   5.536   4.428  0.0045 -0.1247 -0.0729
33018W        W39618  17.302   4.907  24.409 -0.2695 -0.1704  0.0618
33019W        W39619  18.396   6.072  32.152 -0.2157  0.0461 -0.2180
33020W        W39620   2.328   6.585  21.694  0.1576  0.2383  0.0018
33021W        W39621  19.006   4.400  13.370 -0.0472  0.4890  0.0947
33022W        W39622   2.452   3.607   6.858  0.0030  0.2118  0.2199
33023W        W39623  10.440   4.766  35.233  0.0343 -0.2407  0.0369
33024W        W39624  17.205   0.343  14.111  0.0581  0.0049  0.0311
33025W        W39625  23.229   0.854  20.832 -0.3037 -0.0643  0.0480
33026W        W39626  22.585   1.355  11.282 -0.1090  0.0643  0.2385
33027W        W39627   6.878   3.074  13.550 -0.0265 -0.0811  0.1020
33028W        W39628  11.978   2.064  26.151  0.1998 -0.0633  0.1593
33029W        W39629  18.376   3.753  33.865 -0.1088 -0.0421 -0.0496
33030W        W39630  17.859   3.279  33.143 -0.0676  0.1267 -0.1296
33031W        W39631   7.110   6.020  26.912  0.0291 -0.0529  0.0748
33032W        W39632  26.325   5.496  10.999  0.3619 -0.1216  0.0581
33033W        W39633   7.050   2.471  36.110  0.1074 -0.0749  0.2697
33034W        W39634  13.937   4.594   9.904 -0.0232  0.2121 -0.1314
33035W        W39635   6.480   2.969  12.535 -0.0809 -0.1781  0.1619
33036W        W39636  11.657   1.064  31.473  0.0864 -0.0766 -0.0011
33037W        W39637   7.582   3.399  23.571 -0.0929 -0.2824  0.3288
33038W        W39638   8.413   1.458  31.023  0.2989  0.0391  0.1815
33039W        W39639  12.914   0.123  27.591 -0.2317 -0.1733  0.2330
33040W        W39640   1.226   6.607  23.151 -0.3684  0.1215  0.1752
33041W        W39641  13.057   4.240  24.332 -0.1559  0.0710 -0.1643
33042W        W39642   4.985   4.701  11.336 -0.0124  0.2882  0.0846
33043W        W39643  14.146   6.309  25.627 -0.0133 -0.2313 -0.4445
33044W        W39644   5.791   5.289   8.581  0.2549 -0.1341 -0.0308
33045W        W39645  25.341   4.725   7.980  0.2898 -0.1208 -0.1241
33046W        W39646  10.191   0.696  23.918  0.1102  0.0379 -0.1119
33047W        W39647  13.358   1.635  29.018  0.0011 -0.0349  0.1069
33048W        W39648   5.476   1.241   7.263  0.3527  0.2707 -0.1224
33049W        W39649  11.713   5.386  23.393  0.0497 -0.3096 -0.2156
33050W        W39650  17.702   0.288   0.680 -0.0856 -0.0987  0.2976
33051W        W39651  10.147   4.787   8.134  0.0981 -0.1745  0.1641
33052W        W39652  25.255   1.985  31.671 -0.3267  0.0055  0.2326
33053W        W39653  20.510   1.275   5.786  0.0154 -0.0173 -0.1357
33054W        W39654  12.746   3.663   7.164 -0.1057  0.2568  0.0858
33055W        W39655   9.768   3.598  35.193  0.0740  0.0285 -0.2291
33056W        W39656  10.504   5.575   5.661 -0.1352 -0.2028  0.0136
33057W        W39657  22.249   4.745   0.722  0.3146  0.2775 -0.1208
33058W        W39658  18.786   1.998   4.357 -0.1990 -0.1136 -0.3867
33059W        W39659   5.894   2.861   8.379 -0.1664 -0.1467  0.2682
33060W        W39660  13.499   5.858  28.166 -0.1205 -0.1039  0.2450
33061W        W39661   5.675   3.133   6.910  0.0146  0.2172 -0.3206
33062W        W39662   9.330   1.509   6.818  0.0780  0.0668  0.2473
33063W        W39663  15.953   5.044  25.639  0.0965 -0.2148  0.1231
33064W        W39664  10.306   4.198  25.837 -0.3065  0.0005  0.0901
33065W        W39665   9.775   6.276   3.638  0.0600  0.1382 -0.1283
33066W        W39666   4.783   0.397   5.532 -0.1706 -0.1337 -0.2440
33067W        W39667  23.321   2.269  33.960 -0.0698 -0.0034 -0.3658
33068W        W39668   5.408   5.717  34.098 -0.3497  0.2428 -0.0512
33069W        W39669  13.897   5.877   2.667  0.0107  0.1510  0.0270
33070W        W39670  19.118   5.111  27.264 -0.1791 -0.2010 -0.0445
33071W        W39671  17.672   0.644  13.131  0.0037  0.2520  0.0076
33072W        W39672  12.583   3.579   6.241  0.2764  0.1646 -0.0362
33073W        W39673   2.358   4.966  34.723 -0.0749 -0.0501  0.0704
33074W        W39674   2.023   2.217  24.186 -0.2178 -0.0413 -0.3224
33075W        W39675   3.384   6.368   8.957 -0.0809  0.1021  0.0149
33076W        W39676  18.247   6.002  33.528 -0.2685  0.1508 -0.0242
33077W        W39677   4.436   3.445  27.355 -0.2058 -0.2666  0.0821
33078W        W39678  18.994   3.516  32.386 -0.1188  0.1093 -0.0953
33079W        W39679  23.095   1.790  26.512  0.3229  0.0069 -0.2313
33080W        W39680   4.400   1.895  32.677  0.0294 -0.0046 -0.0928
33081W        W39681  13.683   3.296  10.959  0.0351  0.0207 -0.0162
33082W        W39682   1.273   6.450   6.412  0.0912 -0.3861  0.4285
33083W        W39683   4.561   0.382  27.167  0.2332  0.0469  0.0619
33084W        W39684  17.825   5.703  26.347  0.1040 -0.0929 -0.1647
33085W        W39685   7.057   0.632  12.377 -0.1797 -0.2771 -0.2059
33086W        W39686   8.886   6.139  33.393 -0.0008  0.2451 -0.0079
33087W        W39687   4.348   3.448   7.506 -0.0123 -0.2583 -0.3100
33088W        W39688  16.317   1.533   6.959  0.1087 -0.2433 -0.1458
33089W        W39689  13.687   3.418   3.885 -0.0058  0.0142  0.1604
33090W        W39690  13.546   3.271   5.339 -0.0329  0.0923 -0.1027
33091W        W39691  21.585   3.969  33.451  0.0521 -0.0423 -0.0613
33092W        W39692   9.433   1.257   7.844 -0.2104  0.1261 -0.1348
33093W        W39693  11.127   0.644  31.144  0.1270  0.1872 -0.0716
33094W        W39694  20.581   2.823  28.582  0.2821  0.4002 -0.0372
33095W        W39695  18.301   1.714   9.976  0.2279 -0.2003 -0.1617
33096W        W39696  13.500   4.174   7.151 -0.2667  0.0600  0.4159
33097W        W39697   7.378   0.927  11.284 -0.1432  0.1158 -0.1679
33098W        W39698   2.409   3.615  28.277  0.0875 -0.0226 -0.0763
33099W        W39699   6.922   2.271   1.488  0.0717  0.0791 -0.3491
33100W        W39700  16.941   1.206  14.905 -0.1604  0.0561 -0.0946
33101W        W39701   7.030   2.630  25.102  0.0333  0.0765 -0.2884
33102W        W39702  23.895   5.492   4.972  0.0535  0.2414  0.2345
33103W        W39703   7.311   0.659   9.859  0.1550  0.1410 -0.2785
33104W        W39704  20.420   1.141  27.880  0.0574  0.0140 -0.1493
33105W        W39705  21.240   1.914  36.079 -0.4220  0.0537  0.1943
33106W        W39706   6.098   4.238  32.373 -0.2334 -0.3157  0.0172
33107W        W39707   6.980   1.855   1.065 -0.3755 -0.2337  0.0818
33108W        W39708  14.524   3.212   5.362 -0.1044 -0.2026  0.0161
33109W        W39709  15.824   2.730   4.812  0.2299  0.0169  0.0664
33110W        W39710  18.714   5.347  28.406  0.1085  0.0755  0.1010
33111W        W39711  15.616   5.139  30.646 -0.0362  0.2295  0.1371
33112W        W39712  12.460   0.498  32.718  0.0903 -0.0392  0.0919
33113W        W39713  24.652   0.428   3.109 -0.0822  0.3447 -0.2349
33114W        W39714  22.368   5.068  13.868  0.2785 -0.1552  0.2141
33115W        W39715  12.427   6.476   2.278 -0.2257 -0.2614 -0.2483
33116W        W39716  23.007   3.630   6.818 -0.0604  0.0866  0.0023
33117W        W39717  11.061   4.681  24.312  0.0562  0.1448 -0.0110
33118W        W39718  17.033   0.104   4.579  0.2380  0.1102  0.1515
33119W        W39719  25.177   0.144   6.610 -0.1620 -0.0932 -0.0743
33120W        W39720  11.694   5.839   2.552 -0.0764 -0.0061  0.0186
33121W        W39721  15.079   2.985   6.931 -0.1215 -0.0312  0.0187
33122W        W39722  23.265   1.283   7.627 -0.2063 -0.0003  0.2636
33123W        W39723   0.196   1.491   6.821  0.0359  0.0606  0.2690
33124W        W39724   2.090   2.041  21.633  0.1138  0.4322 -0.2340
33125W        W39725   7.888   0.645  26.985  0.1198 -0.0076  0.1764
33126W        W39726  19.860   6.175  28.606 -0.0800 -0.3590  0.0086
33127W        W39727   2.282   4.040  12.034 -0.2070  0.1679  0.1864
33128W        W39728  10.464   6.005   9.132  0.0140  0.1139 -0.1223
33129W        W39729   9.289   2.937   9.449 -0.0015  0.2208 -0.1299
33130W        W39730  18.873   4.433  12.847  0.1074 -0.3972  0.0304
33131W        W39731  25.880   2.350  13.226  0.0485  0.0337  0.1437
33132W        W39732  26.114   4.136   6.289 -0.0954 -0.2087 -0.1208
33133W        W39733  22.324   0.186  11.527  0.3005  0.4427 -0.2717
33134W        W39734  18.317   0.246   4.278  0.0383 -0.1259 -0.0832
33135W        W39735  13.633   2.995  27.901  0.4112 -0.2236 -0.0648
33136W        W39736   4.647   5.273  34.783 -0.1644  0.2103  0.2071
33137W        W39737   9.557   3.565   8.129  0.3386 -0.0618  0.4734
33138W        W39738  17.639   4.052  24.788 -0.1276  0.1055  0.1439
33139W        W39739  20.228   5.301  13.259  0.2710 -0.0703  0.1154
33140W        W39740   6.947   4.343   5.015  0.1660 -0.0952  0.1295
33141W        W39741   2.631   1.742  14.530  0.0048 -0.1363  0.0795
33142W        W39742   6.232   3.719   7.965  0.1061  0.0246 -0.4401
33143W        W39743  11.613   6.071   3.073  0.1370  0.0630  0.4121
33144W        W39744  24.255   4.084   9.665  0.1263  0.1566  0.1137
33145W        W39745  18.714   1.337  35.024  0.0335  0.0130 -0.0686
33146W        W39746  22.409   3.562   6.653  0.0503  0.0185 -0.1073
33147W        W39747   1.358   3.958  21.320  0.1803 -0.0080  0.1561
33148W        W39748  14.213   3.345  26.617  0.0025  0.0449  0.2001
33149W        W39749  15.981   0.083  27.873 -0.2986 -0.3825  0.1226
33150W        W39750   2.197   3.961   1.383 -0.2546 -0.1732  0.0023
33151W        W39751  21.020   3.157  35.164 -0.2166  0.1433 -0.3799
33152W        W39752  25.931   5.470   8.154 -0.0780 -0.1369 -0.0866
33153W        W39753  26.039   6.048  33.813  0.2870  0.3255 -0.3989
33154W        W39754  21.207   3.695  29.222 -0.1707 -0.1180 -0.1491
33155W        W39755   1.534   3.397  20.427 -0.0959  0.0982 -0.0665
33156W        W39756  13.912   4.074  28.905  0.0060  0.1413  0.1130
33157W        W39757  19.967   4.269  25.897 -0.1185 -0.1300  0.0638
33158W        W39758  17.185   6.192   7.675  0.2489 -0.0777 -0.1292
33159W        W39759  16.000   0.707  20.493  0.5399  0.1796 -0.1090
33160W        W39760  25.872   1.115  25.542  0.1245  0.3037  0.0067
33161W        W39761   6.552   5.891  35.798  0.2417  0.1417  0.1500
33162W        W39762  10.081   0.078   4.240 -0.0832 -0.0525  0.1313
33163W        W39763  18.765   3.351  22.773  0.3347 -0.1459  0.2064
33164W        W39764  11.763   2.940  23.522 -0.0407  0.1914  0.0473
33165W        W39765  23.691   1.365  34.126 -0.0648 -0.3278  0.1448
33166W        W39766   5.960   0.707  24.499 -0.2188  0.0495  0.1443
33167W        W39767   5.469   4.598   2.769  0.1306 -0.2716  0.2247
33168W        W39768  13.429   4.170   4.974  0.1589 -0.0131 -0.2840
33169W        W39769  22.752   6.574  24.807 -0.3446  0.0684 -0.0576
33170W        W39770  15.840   1.999  21.582  0.0429 -0.1528 -0.0568
33171W        W39771  15.679   5.128  29.557  0.0286  0.0580  0.0749
33172W        W39772   5.109   4.811  12.793 -0.0503  0.0734  0.1885
33173W        W39773  25.881   4.123  23.759 -0.0423 -0.2165  0.2359
33174W        W39774  18.942   4.915  11.846  0.0810  0.0032 -0.2886
33175W        W39775  20.234   1.933  28.075 -0.0522  0.0183  0.1177
33176W        W39776   8.516   4.794  33.223  0.0915  0.4943  0.1133
33177W        W39777  17.180   6.297  30.896  0.0177  0.0290 -0.0452
33178W        W39778   0.931   6.030   5.082 -0.4426  0.0017 -0.0105
33179W        W39779   4.847   2.657   9.206  0.0403  0.0238  0.1704
33180W        W39780  12.758   5.967  22.442 -0.2909 -0.2054  0.0129
33181W        W39781  18.164   5.226  22.126  0.0168  0.1496 -0.4484
33182W        W39782  11.864   5.723   3.885  0.0383 -0.0142 -0.2029
33183W        W39783  16.784   0.834  27.840 -0.0641  0.1942  0.1266
33184W        W39784  14.532   6.108  14.961  0.0849  0.1648  0.2296
33185W        W39785  17.473   5.499  34.132 -0.1382  0.1774  0.0610
33186W        W39786  20.504   3.640   2.769  0.3052  0.0822 -0.2262
33187W        W39787  21.184   3.331   5.243  0.1316 -0.2432  0.0055
33188W        W39788  21.012   3.448  32.442  0.0479 -0.0309  0.0219
33189W        W39789   6.303   4.437  27.264 -0.0949 -0.2707 -0.2849
33190W        W39790   8.273   2.739  31.262 -0.0736  0.1500  0.0932
33191W        W39791  24.800   0.583  34.649 -0.2905  0.0580  0.0831
33192W        W39792  24.552   6.037   5.831  0.1436  0.2511 -0.3452
33193W        W39793   0.499   6.597  25.112  0.0074 -0.1491  0.0230
33194W        W39794   4.893   0.795  15.118  0.1711 -0.1547 -0.4225
33195W        W39795  25.374   3.603   4.815 -0.1858 -0.5524 -0.0922
33196W        W39796   4.372   4.623   8.484  0.0889 -0.0424 -0.2827
33197W        W39797   4.552   4.730  30.012 -0.1956  0.2273 -0.1225
33198W        W39798   2.916   4.950  28.272  0.0425 -0.0578  0.1939
33199W        W39799  25.469   2.377  23.701  0.1653 -0.2690  0.0816
33200W        W39800   9.682   6.163  22.657 -0.0512 -0.0188  0.0119
33201W        W39801   0.839   2.011   6.374 -0.0645  0.3045  0.0352
33202W        W39802   2.575   5.099  27.840  0.1255  0.0244 -0.2034
33203W        W39803   9.228   3.481  24.903  0.3698  0.0895  0.0213
33204W        W39804  20.193   2.061   3.933 -0.1263  0.2982 -0.1790
33205W        W39805  14.380   5.939  20.761  0.0439 -0.1545 -0.0606
33206W        W39806  21.669   5.993  24.671  0.0371  0.1340  0.0004
33207W        W39807   1.274   5.321  31.232  0.0047 -0.2990  0.0082
33208W        W39808  17.747   4.075   8.750 -0.1857  0.3654  0.1067
33209W        W39809  23.842   2.404  23.917  0.0731 -0.3541  0.0509
33210W        W39810   3.525   2.459  15.178  0.0284  0.0441  0.0714
33211W        W39811   9.397   2.371  10.394 -0.0995 -0.1150  0.0244
33212W        W39812  25.788   4.334   3.444  0.0297  0.0443  0.0998
33213W        W39813  24.411   0.062  20.303  0.2291 -0.2679 -0.0455
33214W        W39814  15.945   2.689  31.205 -0.0428 -0.1132 -0.2542
33215W        W39815  15.147   5.075  21.179 -0.2835  0.0464  0.1140
33216W        W39816  24.577   3.698  24.826  0.0843 -0.0355  0.1230
33217W        W39817  22.143   2.179  24.895 -0.2571  0.2081  0.1116
33218W        W39818  17.200   4.923  35.684 -0.1406 -0.1315 -0.0621
33219W        W39819  19.809   4.567  27.065 -0.0782  0.0282 -0.0703
33220W        W39820  14.861   2.834   4.869  0.0136  0.1849  0.1785
33221W        W39821   4.927   1.666  22.845 -0.1957 -0.0688 -0.3543
33222W        W39822   2.570   4.495  11.878  0.0856  0.0054 -0.2379
33223W        W39823  12.708   3.037   6.170  0.3474  0.0002  0.3001
33224W        W39824  20.118   0.948  23.187  0.0448 -0.0526  0.1573
33225W        W39825  19.596   4.900  31.878  0.0321 -0.1261  0.0155
33226W        W39826   2.394   5.097   1.390 -0.0897  0.0425  0.2266
33227W        W39827  25.666   6.271   2.173  0.0130  0.0946 -0.3836
33228W        W39828   8.496   1.276   8.916 -0.1118 -0.1866 -0.0285
33229W        W39829   1.718   4.438  32.907  0.1595 -0.2071 -0.1620
33230W        W39830   7.565   3.755   5.488 -0.0806 -0.3026 -0.0250
33231W        W39831   4.285   2.027   4.878 -0.2140  0.0754  0.1126
33232W        W39832  25.649   5.671   7.291  0.0428 -0.0225 -0.1489
33233W        W39833  12.842   3.685  26.306 -0.1341 -0.0592 -0.1566
33234W        W39834  19.698   0.727   3.368 -0.1160 -0.1879  0.0935
33235W        W39835  16.931   6.065  11.721  0.0647  0.1682  0.0377
33236W        W39836   2.655   1.704  20.794 -0.1013 -0.3558  0.0083
33237W        W39837  25.794   2.059   7.855  0.1381 -0.2218 -0.3487
33238W        W39838  12.251   3.738  14.464 -0.0691 -0.2286  0.2500
33239W        W39839   0.497   1.926  33.470  0.2022 -0.0229  0.1149
33240W        W39840  23.691   3.068   9.497 -0.2093 -0.1808 -0.2478
33241W        W39841  15.731   0.110  34.687  0.1051 -0.0609 -0.1965
33242W        W39842   2.731   0.811  14.564 -0.1580  0.0276  0.1222
33243W        W39843   0.697   2.574  12.028 -0.0293  0.0734  0.0413
33244W        W39844   4.205   5.757   4.761  0.0812 -0.1208  0.1097
33245W        W39845  22.314   5.936  11.294 -0.2998  0.2265  0.0432
33246W        W39846   4.253   1.955  28.864  0.0066 -0.0531 -0.1714
33247W        W39847  12.404   2.846  25.875 -0.2347 -0.1641 -0.1286
33248W        W39848  14.184   1.635   4.709 -0.0930 -0.1798  0.0597
33249W        W39849   6.044   0.409   1.236 -0.1340 -0.0072 -0.3559
33250W        W39850  23.392   3.252  26.503  0.2100 -0.5591 -0.1275
33251W        W39851   6.153   5.011   0.566  0.2150 -0.2961 -0.0439
33252W        W39852  14.549   3.392  24.309  0.0189 -0.2567  0.1009
33253W        W39853  20.736   5.855   6.963 -0.0139 -0.1394 -0.0849
33254W        W39854  10.883   5.943   3.122  0.1123  0.1960 -0.2287
33255W        W39855  15.526   3.175   2.610  0.1215 -0.2010 -0.0913
33256W        W39856  12.062   1.373   3.674  0.0104 -0.2734  0.1081
33257W        W39857  22.464   2.241  21.294 -0.2751 -0.0959  0.1231
33258W        W39858   0.056   1.442  31.503  0.1150 -0.0634  0.0970
33259W        W39859   7.758   1.575   5.290  0.2370 -0.0325  0.0187
33260W        W39860  11.074   1.767  14.526 -0.0009 -0.1017  0.0659
33261W        W39861  11.706   3.233   7.622 -0.1126  0.4011  0.1028
33262W        W39862  10.287   0.896  30.541  0.1589 -0.0246  0.0901
33263W        W39863  25.316   0.063  20.253 -0.1609 -0.0253 -0.1801
33264W        W39864  23.070   4.582   4.399 -0.2761  0.1590 -0.0180
33265W        W39865  14.244   3.484   5.022  0.1057  0.2921 -0.0581
33266W        W39866   9.209   5.185  12.367  0.1668 -0.0058  0.1124
33267W        W39867  24.200   2.213   9.690  0.1396 -0.4737  0.2898
33268W        W39868   4.612   4.502  10.981 -0.0649  0.1517  0.6452
33269W        W39869   9.951   3.673   8.479 -0.0726  0.1100 -0.0756
33270W        W39870  11.959   0.167  27.524  0.0734  0.0760  0.0677
33271W        W39871  20.094   5.188  25.614  0.1236  0.1049  0.0986
33272W        W39872   6.219   0.566  29.835 -0.1162 -0.0882 -0.0175
33273W        W39873  15.054   4.817  35.157 -0.2839  0.0507  0.0586
33274W        W39874  22.378   5.979  27.405  0.0692 -0.1349 -0.2149
33275W        W39875  23.202   0.308  14.693 -0.0614 -0.0585  0.1738
33276W        W39876  11.815   1.531  11.832  0.1949 -0.2837  0.1796
33277W        W39877   9.898   6.227   7.328  0.1907  0.1361  0.0220
33278W        W39878   6.262   4.467  26.339  0.2009 -0.3082 -0.3885
33279W        W39879   7.870   4.205  21.330 -0.4254  0.1670  0.3237
33280W        W39880   7.499   5.700  33.333  0.0817  0.0733  0.0423
33281W        W39881  25.948   0.379  14.682 -0.0991  0.0345 -0.1090
33282W        W39882  21.773   1.440  14.829  0.1872 -0.2134 -0.0912
33283W        W39883   1.452   0.224  33.529 -0.0137  0.0725 -0.0589
33284W        W39884  21.922   4.834  27.335 -0.2195 -0.1317  0.2323
33285W        W39885   8.337   4.864  21.980 -0.1637 -0.1687  0.3362
33286W        W39886  22.026   6.593  14.278  0.0464  0.1726 -0.5244
33287W        W39887  10.539   0.536  13.212  0.1859  0.0729 -0.1048
33288W        W39888  19.087   0.517  32.156 -0.1460 -0.0762 -0.2146
33289W        W39889  21.923   4.942  24.868 -0.2102 -0.1425 -0.1192
33290W        W39890  24.746   1.214   8.360  0.1325  0.1850 -0.0488
33291W        W39891  14.355   1.798   4.276 -0.1378  0.0184  0.4029
33292W        W39892  20.346   5.683  12.477  0.0597  0.1346  0.0488
33293W        W39893  18.787   5.735  27.163  0.1234 -0.2888 -0.3038
33294W        W39894   6.600   3.748  29.964 -0.0801  0.0519 -0.2820
33295W        W39895  13.473   5.787   2.002 -0.0916 -0.0055 -0.0121
33296W        W39896  24.944   4.214  27.763  0.2039 -0.0663 -0.0647
33297W        W39897  18.727   5.730  23.885  0.1135 -0.0505  0.1944
33298W        W39898   0.225   5.377  11.657  0.0189  0.0601 -0.1373
33299W        W39899   9.954   5.043  30.015  0.1236  0.0630 -0.2011
33300W        W39900  23.606   5.733   7.190 -0.2038 -0.2534  0.2448
33301W        W39901   1.407   5.308  22.694 -0.0431 -0.2162 -0.0178
33302W        W39902   9.197   0.105   9.890 -0.1581  0.1487 -0.4320
33303W        W39903  12.683   1.318  28.312  0.0853  0.0764  0.0921
33304W        W39904  15.857   1.465   8.397  0.0680 -0.1344  0.0223
33305W        W39905  10.986   6.211  22.652  0.0124 -0.0474  0.0100
33306W        W39906  24.989   2.190  23.535 -0.0639  0.0959 -0.3860
33307W        W39907  25.063   5.585  30.074  0.0168  0.1482 -0.0526
33308W        W39908  10.457   2.406  30.660  0.0569 -0.0199 -0.0803
33309W        W39909  18.571   1.844  32.405  0.1553  0.2813  0.0637
33310W        W39910   3.927   0.951  14.251 -0.0874  0.1890 -0.0254
33311W        W39911   6.798   6.406  14.652  0.1407  0.0606  0.2439
33312W        W39912   5.159   3.260  10.936 -0.1212  0.1785 -0.0092
33313W        W39913  23.679   2.530  22.496  0.1467 -0.3012 -0.1274
33314W        W39914   9.838   4.978  11.967  0.1812 -0.2041  0.1581
33315W        W39915  21.483   4.316   9.881  0.1362 -0.2450  0.0064
33316W        W39916  25.088   0.566  28.486 -0.1525 -0.0768  0.1890
33317W        W39917  22.977   0.391   4.703 -0.0813 -0.0018 -0.2400
33318W        W39918   2.696   1.097  29.270  0.1184 -0.1490  0.1959
33319W        W39919  15.854   0.313  13.396  0.0055 -0.1378  0.1535
33320W        W39920   5.386   5.717  31.781 -0.0658  0.2870 -0.2005
33321W        W39921   0.704   2.137   2.863 -0.1622  0.0557 -0.2182
33322W        W39922  19.666   0.931  21.184 -0.0927  0.0284  0.0596
33323W        W39923  11.690   1.927   6.440 -0.3796 -0.0143  0.2853
33324W        W39924   1.416   1.531  10.203 -0.1027 -0.0168 -0.1290
33325W        W39925  11.231   5.142   1.180 -0.1224 -0.0344 -0.5011
33326W        W39926   9.599   2.138   0.924 -0.3615  0.2227  0.1615
33327W        W39927  17.933   1.819  14.918  0.1449  0.3893  0.1732
33328W        W39928  16.729   0.095   4.967  0.1157  0.0143 -0.0616
33329W        W39929  11.672   1.947  26.536 -0.0642  0.1384 -0.1047
33330W        W39930   8.607   5.802  13.684 -0.0082  0.0836  0.1808
33331W        W39931  17.354   3.539   2.149 -0.5839  0.2163 -0.1089
33332W        W39932  23.443   5.021  34.087  0.0504  0.0112  0.0466
33333W        W39933   8.680   3.953   0.015 -0.1903 -0.1966 -0.1040
33334W        W39934  24.565   0.112  14.975  0.2562 -0.0708 -0.0001
33335W        W39935   6.309   5.908   8.964 -0.3611  0.2121 -0.0095
33336W        W39936  10.087   0.032   6.991  0.2053 -0.0822 -0.0498
33337W        W39937  11.620   4.753  30.790  0.0372 -0.1539 -0.0036
33338W        W39938  23.316   0.446  21.055  0.3248  0.4487  0.3717
33339W        W39939  21.623   6.070  10.428  0.1232  0.1065 -0.0658
33340W        W39940   9.706   5.556  34.765 -0.0746 -0.1706 -0.3213
33341W        W39941  18.199   1.294   6.949 -0.1291 -0.1085 -0.0982
33342W        W39942  12.689   3.841   2.408  0.2730 -0.1656  0.0951
33343W        W39943   0.251   5.439   7.813 -0.0712 -0.0460  0.1292
33344W        W39944  26.278   1.384  14.474 -0.1439 -0.1012  0.3506
33345W        W39945  13.566   3.288  34.364 -0.1755 -0.0297 -0.0212
33346W        W39946   5.709   0.679   2.782  0.0020 -0.2293  0.1476
33347W        W39947  24.771   0.160  20.649 -0.0781  0.0278 -0.1278
33348W        W39948  11.437   2.360  26.855 -0.2654 -0.1362 -0.0056
33349W        W39949  17.269   1.109   3.838  0.0997  0.0235 -0.0538
33350W        W39950  13.407   5.851  24.886 -0.1805  0.0464 -0.0182
33351W        W39951   8.960   1.620   7.137 -0.3000  0.1156  0.2722
33352W        W39952   1.380   6.391  11.741 -0.0050 -0.2226  0.0210
33353W        W39953  18.606   0.064   7.971  0.2698  0.3012  0.1067
33354W        W39954   8.698   4.530   1.893 -0.3072  0.0804  0.0524
33355W        W39955  19.832   0.045   4.924  0.2994 -0.0270 -0.1814
33356W        W39956  14.817   1.561   3.455 -0.0850  0.2139 -0.1363
33357W        W39957  16.607   1.880   5.672 -0.2458 -0.0658 -0.0574
33358W        W39958  19.129   6.403  22.184  0.1138  0.3364  0.1094
33359W        W39959  13.913   0.741  14.922  0.0371  0.0312 -0.0495
33360W        W39960  25.257   6.232  27.765 -0.0809 -0.3547  0.1392
33361W        W39961   0.087   2.040  25.291  0.0373  0.1272 -0.2595
33362W        W39962  13.547   2.059  25.836 -0.0313  0.0896 -0.1172
33363W        W39963  13.427   6.489  34.644 -0.0462 -0.0645 -0.2699
33364W        W39964   0.958   1.879  31.181  0.1501 -0.1285 -0.0938
33365W        W39965  13.642   4.153   8.523 -0.3376  0.1398  0.0421
33366W        W39966  20.152   4.454   9.582  0.1056  0.0220  0.3464
33367W        W39967   8.653   6.328  23.995 -0.1801 -0.2367 -0.1763
33368W        W39968  13.972   3.070  10.040 -0.1399 -0.2606 -0.0367
33369W        W39969  16.084   3.108  11.167  0.3044 -0.1525 -0.1312
33370W        W39970  18.128   4.257  34.107  0.0070  0.2615  0.1967
33371W        W39971   2.093   1.663  34.714  0.1739 -0.0368  0.0446
33372W        W39972   8.330   0.778  23.582 -0.1170  0.0519  0.1211
33373W        W39973  20.864   0.771   8.153  0.0580  0.1143  0.0704
33374W        W39974   3.384   1.889  35.178 -0.0624  0.2210  0.0488
33375W        W39975   3.246   0.919  14.662 -0.1440 -0.1231  0.0236
33376W        W39976   8.064   2.090   2.102 -0.0150  0.5137 -0.2004
33377W        W39977  17.314   4.931  12.443  0.0497  0.3210 -0.3252
33378W        W39978   1.872   3.743   2.612  0.1266  0.0991 -0.4635
33379W        W39979  26.265   6.540  23.399 -0.1185 -0.1881  0.1538
33380W        W39980   6.986   5.528   2.974 -0.1248  0.2249  0.1021
33381W        W39981   4.030   3.500  15.483  0.1270  0.1635  0.0562
33382W        W39982  24.949   0.405   7.767 -0.1880 -0.1781  0.2181
33383W        W39983  10.367   4.105  11.534 -0.1337  0.0872 -0.0526
33384W        W39984  25.166   5.596  21.582  0.0188  0.1540 -0.0660
33385W        W39985  16.619   2.881  34.295 -0.3244 -0.4394 -0.2888
33386W        W39986  20.174   2.374  10.714 -0.1213 -0.1212 -0.2984
33387W        W39987   6.491   5.789  13.455 -0.0756 -0.0676  0.2243
33388W        W39988  15.430   2.339   2.201 -0.0231 -0.0921 -0.0449
33389W        W39989  10.999   3.622   7.274 -0.0531  0.1349  0.1077
33390W        W39990  20.162   0.087  10.977 -0.0627  0.0418 -0.0551
33391W        W39991  12.896   6.407   1.514  0.1546 -0.2743  0.2228
33392W        W39992   8.222   0.442   2.884 -0.0561 -0.2218 -0.2003
33393W        W39993  10.160   2.931  25.135  0.0724  0.0638 -0.3561
33394W        W39994   5.637   3.242   4.601  0.2724 -0.0737 -0.0864
33395W        W39995   8.968   2.595   9.592 -0.1355  0.0824 -0.4320
33396W        W39996  15.042   5.022   9.875  0.0134  0.1962  0.2586
33397W        W39997   8.218   4.094  34.945 -0.1555  0.0564 -0.0959
33398W        W39998  14.366   2.761  21.791  0.0482  0.1311  0.1719
33399W        W39999  22.813   1.539  22.256  0.1126 -0.1363  0.3213
33400W        W40000   3.413   2.926   2.199  0.1213 -0.0699 -0.0660
33401W        W40001  12.930   0.840  31.893 -0.2333  0.1245 -0.2191
33402W        W40002   8.645   5.808  11.634  0.0192 -0.0751  0.0193
33403W        W40003   4.905   6.537  25.587 -0.0061  0.0926 -0.1508
33404W        W40004   7.420   5.597  12.681 -0.3227 -0.2126 -0.0775
33405W        W40005  24.977   0.610  35.174 -0.1039  0.1030 -0.1747
33406W        W40006  17.771   3.369  11.411 -0.0084  0.2619 -0.0750
33407W        W40007  19.835   1.633   7.958 -0.0022  0.0437 -0.0564
33408W        W40008   9.159   2.317  35.307 -0.2895 -0.2624  0.1107
33409W        W40009  20.800   1.625  13.469  0.1525  0.0682  0.1024
33410W        W40010  15.521   0.766   6.064  0.0243  0.2928  0.0675
33411W        W40011  19.654   2.947  22.063 -0.0128  0.0006 -0.0346
33412W        W40012  17.075   0.517  36.107  0.1008 -0.0439  0.1005
33413W        W40013   2.840   4.091  34.801 -0.2185 -0.0923  0.0792
33414W        W40014   0.784   4.587  35.811  0.2685 -0.0328  0.3731
33415W        W40015  26.225   3.696   9.539  0.4128 -0.0926  0.3100
33416W        W40016  12.967   4.459  32.768 -0.0346 -0.2411 -0.1258
33417W        W40017  25.538   6.244  13.748  0.0930 -0.0418  0.1860
33418W        W40018   3.107   3.860  22.808  0.0110  0.2483  0.1372
33419W        W40019  22.524   2.868   7.295  0.3769  0.0507  0.0585
33420W        W40020  13.531   2.174  35.602  0.0085  0.0358 -0.1753
33421W        W40021   0.448   3.483   0.076  0.2072  0.0630 -0.2414
33422W        W40022   0.021   1.950  32.600  0.0189  0.1193  0.1326
33423W        W40023  18.875   1.300  28.651  0.1304  0.2297 -0.0143
33424W        W40024  22.085   6.206   8.551 -0.2638 -0.0301 -0.3470
33425W        W40025  10.681   4.505   7.713  0.1043  0.0817  0.1225
33426W        W40026  24.160   5.956  14.660  0.0883 -0.0271 -0.0052
33427W        W40027   7.597   0.606   9.353  0.1327 -0.2109 -0.1961
33428W        W40028  15.574   5.831  28.806 -0.0018  0.2866  0.0298
33429W        W40029   4.577   6.176   8.675  0.0117  0.0305 -0.0854
33430W        W40030   0.437   3.217  29.894  0.0873 -0.3648 -0.0202
33431W        W40031  20.550   1.860  13.079  0.1460  0.1150  0.1277
33432W        W40032  13.159   3.520   0.765  0.2167  0.1729  0.2720
33433W        W40033   0.234   6.123  10.153 -0.0620 -0.0684  0.3138
33434W        W40034   8.173   4.355   3.215 -0.1072 -0.0442 -0.1040
33435W        W40035  17.678   3.868   2.346  0.1558 -0.2724 -0.1901
33436W        W40036   8.905   6.122   7.594  0.0076 -0.0398  0.1634
33437W        W40037  21.166   2.191  34.558  0.2090  0.2250  0.1966
33438W        W40038   3.596   1.070   6.672 -0.0336  0.2507  0.1036
33439W        W40039  15.066   6.511  32.750  0.2231 -0.2845 -0.4121
33440W        W40040  10.694   0.901  11.043 -0.0437  0.3464  0.2517
33441W        W40041  12.490   3.224  11.142  0.0881 -0.2590 -0.0953
33442W        W40042  13.321   2.178   7.698 -0.1668 -0.1266 -0.2688
33443W        W40043  16.261   0.154  32.523 -0.2072  0.3272  0.3833
33444W        W40044   4.717   4.941  34.351  0.3076 -0.1400 -0.0182
33445W        W40045  25.042   5.961  24.828  0.0761  0.1283 -0.0074
33446W        W40046  16.437   5.982  21.517  0.0828 -0.0626  0.1855
33447W        W40047  18.773   3.467  11.670 -0.1251  0.0503  0.0949
33448W        W40048  12.545   3.924  29.628 -0.0856 -0.0034 -0.0386
33449W        W40049   1.196   2.133   5.171 -0.2337  0.0233  0.4456
33450W        W40050   9.561   2.668  11.237 -0.1553 -0.0465  0.0445
33451W        W40051  18.916   3.048  12.256  0.0609 -0.1015  0.0702
33452W        W40052  23.274   0.464   0.905 -0.3426  0.1295 -0.1836
33453W        W40053  25.351   5.113  13.062 -0.0830  0.3679  0.1251
33454W        W40054  11.971   4.872   0.757  0.2884 -0.2488  0.0788
33455W        W40055   6.260   6.438   1.353  0.1099  0.0573  0.2594
33456W        W40056  10.946   2.954  13.058 -0.0913 -0.1560  0.1985
33457W        W40057   1.505   6.146  35.911 -0.3592 -0.1336  0.2100
33458W        W40058  19.239   1.880  10.396 -0.0207 -0.0517 -0.2184
33459W        W40059  20.954   1.340  12.156  0.1172  0.0012  0.0603
33460W        W40060   9.111   0.147  21.933 -0.1823  0.0166  0.0726
33461W        W40061  15.351   3.414  32.738 -0.1259  0.0005  0.2707
33462W        W40062  18.649   4.020  32.967  0.1453 -0.1245 -0.0391
33463W        W40063  24.115   3.251   7.915 -0.0835 -0.2865 -0.1156
33464W        W40064  22.739   5.689   1.648  0.1373  0.0241  0.3182
33465W        W40065   4.321   2.377   2.254  0.2116  0.2227 -0.1104
33466W        W40066  22.405   2.488  12.676 -0.0102 -0.1545 -0.1053
33467W        W40067  13.498   1.211  21.579  0.0337  0.2004 -0.0539
33468W        W40068  20.505   2.792   4.929  0.1864  0.0609  0.0530
33469W        W40069   4.126   6.567   6.133 -0.4091  0.1341 -0.0149
33470W        W40070  17.805   4.379   7.327 -0.0273  0.0465 -0.1364
33471W        W40071  19.971   0.475  31.663  0.1521 -0.0204 -0.1926
33472W        W40072   5.829   2.681   2.968 -0.0131 -0.0986  0.0120
33473W        W40073   8.381   4.452  22.341  0.1037  0.0396  0.3362
33474W        W40074  21.222   5.874  35.601 -0.2040 -0.2278  0.2641
33475W        W40075  16.771   3.992  11.589  0.1818  0.0117 -0.1861
33476W        W40076  19.497   0.611  23.399  0.1648 -0.2807 -0.2889
33477W        W40077   4.704   2.447   0.565 -0.1618 -0.2001  0.0552
33478W        W40078  19.358   5.735   4.610 -0.1938 -0.1552  0.1429
33479W        W40079   0.915   0.078  21.521  0.2162  0.0935 -0.0686
33480W        W40080   6.530   5.674   0.030  0.0548 -0.1310 -0.3060
33481W        W40081  10.783   1.334  14.528  0.0163 -0.0846 -0.0076
33482W        W40082  13.699   3.211   2.051  0.0414 -0.0669 -0.1758
33483W        W40083   3.005   0.606   4.405 -0.0307  0.2260  0.0295
33484W        W40084  19.712   3.705  25.124 -0.0042  0.2871  0.3135
33485W        W40085  25.340   0.288  32.798 -0.0085  0.0422 -0.0265
33486W        W40086  16.474   2.734  10.119  0.2808 -0.1617 -0.1114
33487W        W40087  25.582   0.905  30.787 -0.1978 -0.0248 -0.0613
33488W        W40088   4.809   6.005  14.723 -0.1848  0.1099 -0.2889
33489W        W40089  11.106   5.102  10.677  0.3050 -0.0568  0.1477
33490W        W40090   2.261   5.329   7.618  0.0041 -0.2702  0.1576
33491W        W40091   6.516   4.266   9.707 -0.0561  0.3305 -0.0695
33492W        W40092  18.436   2.617  10.321 -0.2752 -0.0202  0.2223
33493W        W40093  12.522   1.506  32.526  0.1200  0.0613  0.2348
33494W        W40094  14.167   3.330   2.888 -0.2916 -0.1767  0.1082
33495W        W40095  14.269   0.256  23.389  0.0589 -0.3625  0.1002
33496W        W40096   8.795   0.827  15.815  0.0942  0.1110 -0.0800
33497W        W40097  18.415   1.747   2.210  0.0004 -0.1803  0.1841
33498W        W40098  13.618   3.774  29.790 -0.0085  0.1049  0.2770
33499W        W40099   5.540   2.970   7.338 -0.1703 -0.0649 -0.3144
33500W        W40100  21.345   1.157  14.524 -0.1585 -0.0383 -0.1047
33501W        W40101   4.296   0.906   1.794 -0.1147 -0.2592  0.1650
33502W        W40102   2.880   0.096   0.509  0.1358 -0.3591  0.0205
33503W        W40103  24.789   6.521   6.379  0.0646 -0.0204  0.2849
33504W        W40104  22.604   1.237  27.603  0.1102  0.2629  0.0679
33505W        W40105  16.120   2.328   9.249  0.0555  0.0923 -0.0320
33506W        W40106   0.756   1.389   8.456 -0.0416 -0.0577  0.1454
33507W        W40107  26.040   2.981  27.693 -0.1447 -0.0897  0.0990
33508W        W40108  12.427   0.001  11.309  0.0842 -0.0065  0.0146
33509W        W40109  24.995   3.670   2.700 -0.0676  0.2390 -0.1257
33510W        W40110  14.189   5.354  23.919 -0.1113  0.4983  0.2079
33511W        W40111  19.845   5.249  24.211  0.1223  0.2506 -0.1496
33512W        W40112  23.682   5.046  31.570  0.0671 -0.1714  0.1049
33513W        W40113   3.360   0.728  26.290  0.1307  0.0221 -0.1909
33514W        W40114  12.221   3.908  32.991 -0.0795  0.2516 -0.0123
33515W        W40115  16.778   0.278  10.053 -0.1649 -0.0724  0.3113
33516W        W40116   7.311   1.664  25.640  0.1099  0.1953 -0.2158
33517W        W40117  21.163   0.852  12.852  0.2607  0.0166  0.2252
33518W        W40118   6.250   1.525  28.384  0.1048  0.2565  0.2318
33519W        W40119   1.185   2.305  34.512  0.0690 -0.1172 -0.1636
33520W        W40120  22.586   6.003   6.433  0.0503 -0.1019  0.2256
33521W        W40121  25.022   1.049   1.280  0.0361  0.1086  0.0320
33522W        W40122  15.924   6.279  31.343 -0.1689  0.1641 -0.0056
33523W        W40123  23.665   4.677  11.190  0.1501 -0.0831 -0.3115
33524W        W40124  25.789   4.212  11.728  0.2046  0.5133 -0.0365
33525W        W40125  19.455   0.588  10.703 -0.0697 -0.0456 -0.2577
33526W        W40126   0.150   1.794  33.850 -0.1166 -0.0932 -0.0396
33527W        W40127  12.938   4.108   8.417  0.2437  0.1208 -0.1748
33528W        W40128  13.767   2.426  13.522  0.0210  0.3017 -0.1493
33529W        W40129   3.181   1.418   9.293  0.3575 -0.0771 -0.1519
33530W        W40130  14.880   5.678  20.870  0.0666  0.3023 -0.1880
33531W        W40131  17.124   6.343  29.869  0.0600 -0.0846 -0.0057
33532W        W40132   6.239   0.751  24.867 -0.4019 -0.0994 -0.3912
33533W        W40133  22.831   1.157  34.631 -0.2266 -0.1723  0.2238
33534W        W40134  19.163   4.927   9.632 -0.1213 -0.0129  0.0308
33535W        W40135  25.008   2.354   0.950 -0.0456 -0.1132  0.1436
33536W        W40136   1.685   4.745   1.105 -0.0266  0.1453 -0.2668
33537W        W40137  21.423   4.952  28.876 -0.0104 -0.3705 -0.0953
33538W        W40138  19.801   1.616   6.912  0.2157  0.4199  0.1329
33539W        W40139   3.572   6.327  26.478 -0.1213 -0.0984  0.2353
33540W        W40140  18.592   0.143  23.230  0.0697 -0.2378  0.1892
33541W        W40141  18.362   3.128  32.857  0.1261 -0.2033 -0.1385
33542W        W40142  13.418   3.476  33.929 -0.1102 -0.1679 -0.1815
33543W        W40143  25.178   1.003  21.442  0.1456  0.2457 -0.0216
33544W        W40144   7.810   2.155  27.460  0.0851 -0.1149 -0.1335
33545W        W40145  11.862   3.022  25.214  0.0108 -0.0628 -0.0863
33546W        W40146  18.953   5.147  21.493  0.0719 -0.2030  0.2738
33547W        W40147  18.930   3.877  22.949  0.0205  0.1137 -0.1281
33548W        W40148  19.999   5.128  32.797 -0.0476 -0.1617  0.1954
33549W        W40149   6.137   4.914  27.027  0.1757 -0.1170 -0.1389
33550W        W40150   9.057   0.118  14.717 -0.0638 -0.1035  0.0461
33551W        W40151  13.424   1.415   8.317  0.0626 -0.1763 -0.2233
33552W        W40152  21.233   6.114   6.888 -0.1340 -0.3885 -0.1797
33553W        W40153   0.771   2.122  32.621  0.0058  0.2369  0.0529
33554W        W40154  17.010   4.394  27.436  0.0228  0.0262 -0.0112
33555W        W40155  11.971   0.231   7.291  0.0813 -0.0342 -0.3378
33556W        W40156  11.306   6.314   6.651  0.1300 -0.2259  0.0470
33557W        W40157   8.613   4.905   4.796 -0.1329  0.0233  0.1458
33558W        W40158   1.860   6.223  23.651  0.1758  0.0682 -0.3073
33559W        W40159  17.189   1.845  20.623 -0.1761  0.2148 -0.0844
33560W        W40160   4.533   4.722  33.175 -0.1410 -0.1091  0.1381
33561W        W40161  14.115   4.570   8.976  0.0405  0.0777  0.2512
33562W        W40162  25.062   5.753  14.622 -0.2113  0.0562 -0.1930
33563W        W40163   6.054   6.125   3.519  0.0122  0.2466 -0.2356
33564W        W40164  14.989   1.243  10.587  0.1254 -0.1483  0.0184
33565W        W40165   8.134   0.881  11.736  0.6528 -0.0682 -0.0200
33566W        W40166   7.681   0.679   2.094 -0.0854 -0.1943  0.1183
33567W        W40167  25.484   3.164  35.598 -0.0359 -0.3071  0.0684
33568W        W40168  13.306   4.572   1.395  0.0336  0.1375  0.0503
33569W        W40169   1.064   5.656   4.760  0.2483  0.1581  0.2845
33570W        W40170  12.919   6.008  20.137 -0.1016 -0.1866 -0.0354
33571W        W40171  23.148   2.053   8.435 -0.0241 -0.1993  0.1347
33572W        W40172  17.735   5.032  31.339 -0.2054 -0.0298  0.2014
33573W        W40173   5.998   5.136  21.381 -0.0090  0.0049 -0.1149
33574W        W40174   1.494   3.993   3.207 -0.1021 -0.0046  0.1238
33575W        W40175  17.488   1.585   6.145  0.0912  0.0299  0.2613
33576W        W40176  21.372   6.341  25.659 -0.0876 -0.1033 -0.1781
33577W        W40177   5.453   5.075   7.932  0.0137 -0.0136 -0.3382
33578W        W40178   1.086   1.046  27.984  0.0182 -0.2216 -0.1579
33579W        W40179  13.834   3.494  35.685  0.0460 -0.1489 -0.1189
33580W        W40180   7.594   2.842  10.768 -0.0608  0.0514 -0.2069
33581W        W40181  14.164   0.757   7.333  0.1324 -0.0900 -0.0589
33582W        W40182  13.578   2.154  12.438  0.1517  0.2742  0.2612
33583W        W40183  22.512   1.498   4.256  0.0116  0.1511  0.2250
33584W        W40184  16.659   1.146   0.526 -0.2301  0.1277  0.0156
33585W        W40185  25.492   4.500   2.393  0.2142 -0.1594  0.2681
33586W        W40186  14.346   1.554  12.816  0.0310  0.2665 -0.0913
33587W        W40187   0.188   4.551  21.272  0.0223  0.0678 -0.0187
33588W        W40188  23.766   0.407  10.174 -0.0510  0.2969  0.1785
33589W        W40189  22.684   0.135   0.553 -0.0974  0.1252  0.2138
33590W        W40190   0.486   4.513  14.603  0.4274  0.4391 -0.0451
33591W        W40191  13.335   3.720  26.243  0.1029  0.2453 -0.1981
33592W        W40192   7.009   4.077  34.161  0.0801  0.1216 -0.0208
33593W        W40193  11.647   6.429  14.312 -0.4259  0.0065 -0.0602
33594W        W40194  18.957   2.857  25.849  0.2285 -0.0759 -0.0655
33595W        W40195  23.234   5.493  34.081 -0.0850 -0.0095 -0.2358
33596W        W40196  16.328   4.688  29.962  0.0509  0.1369  0.0010
33597W        W40197  11.834   1.309   4.157  0.1489 -0.1181 -0.0449
33598W        W40198  22.504   3.372   2.399  0.0774 -0.0878  0.3606
33599W        W40199  23.237   0.515  33.318 -0.0200 -0.0359 -0.2334
33600W        W40200   4.324   2.233  33.731 -0.2503 -0.0057  0.5327
33601W        W40201  14.257   3.681  24.568  0.1574 -0.2706 -0.1266
33602W        W40202   3.869   3.056   2.505 -0.0894  0.0773 -0.1405
33603W        W40203   7.879   1.457  21.814 -0.2203  0.1195 -0.1188
33604W        W40204  22.299   3.740  25.759 -0.2089 -0.3722 -0.0945
33605W        W40205   9.723   4.888  34.174  0.1115  0.1036  0.1401
33606W        W40206   1.934   4.608   1.883  0.2122  0.2409 -0.0625
33607W        W40207  18.076   3.255   8.783 -0.0359 -0.2409  0.2035
33608W        W40208   9.030   0.071   6.402  0.0408  0.0811  0.1287
33609W        W40209   2.700   5.894   0.738 -0.2021 -0.1106 -0.0037
33610W        W40210   5.909   1.485  11.769  0.0365 -0.3531  0.1447
33611W        W40211  11.439   1.268  22.811 -0.0885  0.1019  0.0512
33612W        W40212  11.242   1.978  35.211  0.3323  0.2987 -0.1012
33613W        W40213  26.181   3.075  12.544  0.2568 -0.2119  0.1786
33614W        W40214   1.882   2.570  10.033 -0.1195  0.1541  0.0605
33615W        W40215  19.079   1.329  13.649  0.1056 -0.0124  0.1444
33616W        W40216   7.264   2.859   6.445 -0.0221 -0.0352 -0.0768
33617W        W40217  19.096   1.541   9.049  0.2344 -0.0147 -0.3447
33618W        W40218   0.853   0.622  25.017 -0.2821 -0.3653  0.0572
33619W        W40219  22.340   2.716  25.766  0.1642 -0.1962  0.0424
33620W        W40220  17.448   2.401  22.452  0.1798  0.1090 -0.0210
33621W        W40221  25.977   3.243   2.982 -0.1976  0.0951  0.0061
33622W        W40222   2.034   4.190   9.948  0.0221 -0.3943  0.0399
33623W        W40223  26.003   0.564   6.309 -0.0019  0.0882 -0.3334
33624W        W40224   7.545   4.073   2.516 -0.1010 -0.2037 -0.0502
33625W        W40225   6.332   2.035  12.013  0.0433  0.0938  0.2914
33626W        W40226  12.395   1.940  33.768 -0.1756  0.0587  0.1524
33627W        W40227   8.969   5.714   9.188  0.0937  0.0637  0.1580
33628W        W40228  16.421   5.515  31.180  0.2171  0.5513  0.0458
33629W        W40229  24.572   4.076  22.692  0.0668 -0.0914  0.2738
33630W        W40230  16.167   4.401   3.194 -0.2340 -0.0598 -0.2066
33631W        W40231  14.118   3.939   4.096 -0.0581  0.3209 -0.2907
33632W        W40232  13.423   6.095  28.624  0.0707  0.1798 -0.0668
33633W        W40233   7.936   4.834   8.345 -0.2487  0.1192  0.2003
33634W        W40234   4.196   4.714   1.560  0.3034 -0.1987  0.0869
33635W        W40235   3.856   2.669   7.754 -0.0766 -0.2363 -0.5750
33636W        W40236  20.587   6.312  34.150  0.1355  0.0676 -0.2534
33637W        W40237   2.187   6.387  35.153  0.0389 -0.0979  0.1805
33638W        W40238  23.134   0.901   0.540  0.0987 -0.0681  0.0252
33639W        W40239  10.988   0.585  32.744 -0.4468  0.3651 -0.2710
33640W        W40240  14.523   3.479  30.351  0.2050  0.2736 -0.0883
33641W        W40241   1.490   4.548  11.714  0.2087 -0.0855  0.2021
33642W        W40242  13.644   3.035  30.635  0.2798  0.1818 -0.1268
33643W        W40243   1.495   3.355  21.862  0.2857  0.0264 -0.0022
33644W        W40244  17.976   6.000  25.298 -0.1386 -0.2748  0.2058
33645W        W40245  22.125   4.103  20.782 -0.4304  0.0721  0.3517
33646W        W40246  24.062   1.323  10.113 -0.2111  0.1875  0.0177
33647W        W40247   1.506   1.169  28.215  0.1195  0.1868 -0.2592
33648W        W40248   1.224   0.559  13.016 -0.1731 -0.0949 -0.3230
33649W        W40249  19.208   4.292   2.549  0.1753 -0.1068 -0.1079
33650W        W40250  12.628   0.786  10.249 -0.0657 -0.1740  0.0789
33651W        W40251  16.498   6.432  11.747 -0.3158  0.3101  0.3293
33652W        W40252  25.735   3.594  30.858 -0.0146  0.1983 -0.0664
33653W        W40253  19.869   2.059  10.991  0.0812  0.1275  0.2419
33654W        W40254   3.320   0.993  36.042 -0.2740  0.0475  0.1918
33655W        W40255  14.848   0.636   4.417  0.1134  0.1212  0.1067
33656W        W40256  21.100   0.289  14.072  0.0367  0.0795 -0.1572
33657W        W40257  14.165   4.976   3.456  0.0233 -0.1132  0.1618
33658W        W40258   6.328   3.796   5.665 -0.2690 -0.2491  0.0263
33659W        W40259  20.229   2.082   1.021 -0.0666  0.1841 -0.1360
33660W        W40260  17.138   1.547   4.876  0.0726 -0.1615  0.2329
33661W        W40261  14.098   0.965  31.773  0.0049  0.4360  0.0431
33662W        W40262   9.872   0.143   1.604 -0.1337  0.0772 -0.3445
33663W        W40263   6.559   1.423  25.064 -0.0491  0.2617 -0.2624
33664W        W40264  19.968   5.894  22.510 -0.3935  0.1727 -0.2154
33665W        W40265   4.194   2.652  24.054  0.2318  0.0094 -0.0323
33666W        W40266  16.001   6.324  10.669  0.0746  0.1294 -0.0893
33667W        W40267  25.487   3.944   1.287 -0.1910  0.0492 -0.1032
33668W        W40268  12.683   2.456  30.499 -0.1429  0.0522 -0.0177
33669W        W40269   5.527   2.642  28.753 -0.4098 -0.2845 -0.1041
33670W        W40270  22.181   5.685   1.470 -0.1383 -0.0436 -0.0278
33671W        W40271   4.783   2.232  12.952  0.2123  0.3434  0.0115
33672W        W40272  19.738   6.059   2.607  0.3654 -0.3024 -0.2664
33673W        W40273  21.100   2.596  32.524 -0.1737 -0.3725 -0.1199
33674W        W40274  13.639   4.609  15.918 -0.1955  0.2384  0.1329
33675W        W40275   1.611   1.397  30.933 -0.1148  0.0066  0.1443
33676W        W40276  14.906   6.499  31.589 -0.0213 -0.2094 -0.0235
33677W        W40277  21.667   5.223  33.798 -0.1070 -0.2128  0.0523
33678W        W40278  14.068   2.495  29.363 -0.1030 -0.0287 -0.0011
33679W        W40279   4.806   2.024  29.709 -0.0090  0.0275  0.2365
33680W        W40280   7.812   4.383  26.848  0.1221  0.0238  0.3300
33681W        W40281   2.584   1.393   8.421  0.1283  0.0277 -0.2117
33682W        W40282  11.944   6.129  30.154 -0.2039  0.4234 -0.1991
33683W        W40283  21.618   3.233  35.647 -0.2377 -0.1321 -0.2363
33684W        W40284   6.463   0.939   0.128 -0.2643  0.2035 -0.3267
33685W        W40285  13.145   0.607  35.768 -0.0834  0.0545  0.0028
33686W        W40286   4.272   2.664  27.732  0.2857  0.5011 -0.3207
33687W        W40287  25.584   0.950  29.249  0.1382  0.0292  0.2111
33688W        W40288  12.014   4.735   4.524 -0.0834  0.1966 -0.1563
33689W        W40289  15.803   2.936   6.317 -0.0940 -0.0541  0.1331
33690W        W40290  20.387   2.230  22.975 -0.1182 -0.0097  0.1982
33691W        W40291   6.682   5.403   4.331 -0.2649  0.0022 -0.0399
33692W        W40292   7.253   6.408  20.640  0.2219  0.1420  0.2478
33693W        W40293  12.389   2.524  28.047 -0.2346  0.0491 -0.2637
33694W        W40294  16.640   3.163  32.271 -0.0135 -0.2047 -0.0567
33695W        W40295  16.433   4.620  22.791 -0.1002  0.2107 -0.0931
33696W        W40296  24.401   4.322  10.500  0.1144 -0.1151 -0.0116
33697W        W40297   7.691   0.248  31.678 -0.2106 -0.0378  0.1876
33698W        W40298  17.120   5.664  34.366  0.1582  0.0554 -0.0207
33699W        W40299  19.906   1.990   4.777  0.2495 -0.1807  0.0906
33700W        W40300   2.923   1.728  13.642  0.0456 -0.3503  0.1869
33701W        W40301  19.903   4.559  33.535 -0.0567 -0.1742  0.0145
33702W        W40302   2.260   6.271   0.893 -0.0783 -0.2135 -0.3525
33703W        W40303  12.717   5.873  32.942 -0.0529  0.1120  0.0111
33704W        W40304   4.964   4.586  31.218  0.1059  0.1300 -0.1624
33705W        W40305  25.028   1.770  29.546 -0.1510 -0.0632  0.1966
33706W        W40306   8.685   2.795  32.471  0.2861  0.1570 -0.0946
33707W        W40307   8.752   5.074  24.769  0.0937 -0.0911 -0.0871
33708W        W40308  22.817   5.161   9.088  0.2506 -0.0990  0.0970
33709W        W40309   0.487   1.094  30.687  0.0050 -0.0993 -0.1792
33710W        W40310  15.374   1.278  24.378  0.2148  0.1485  0.0509
33711W        W40311   9.970   0.153  28.640  0.1370 -0.1373 -0.2607
33712W        W40312  17.261   3.562  21.734 -0.0270  0.1911  0.2504
33713W        W40313  16.550   3.015   1.902  0.0301  0.2449 -0.0071
33714W        W40314  15.301   5.622   5.454  0.1591  0.1233  0.2704
33715W        W40315   6.036   1.841   8.995 -0.1299 -0.0279 -0.1186
33716W        W40316  13.994   0.452  10.173  0.1871  0.1454  0.2816
33717W        W40317  16.920   6.371  31.481 -0.1584 -0.1386 -0.0593
33718W        W40318   8.693   4.986  14.640 -0.1442 -0.3537  0.0738
33719W        W40319   2.464   5.436  23.788  0.0212  0.0513  0.1213
33720W        W40320  12.941   3.377  12.360  0.0013  0.1742 -0.1536
33721W        W40321   4.787   4.507  20.866 -0.0342 -0.1508  0.4299
33722W        W40322   8.355   4.744   1.133 -0.0260 -0.0475  0.0851
33723W        W40323   4.035   6.316  21.206 -0.1613  0.0986  0.0034
33724W        W40324  18.584   1.612   9.106  0.0136 -0.2014  0.0147
33725W        W40325   0.903   0.242   1.323 -0.4065  0.1337  0.0090
33726W        W40326  13.891   2.353  12.954 -0.2320 -0.0607  0.0481
33727W        W40327  13.355   1.050  31.118 -0.0501 -0.1285  0.1107
33728W        W40328  24.672   0.309   8.231  0.1054  0.0105  0.1248
33729W        W40329  10.227   0.831  34.610 -0.0600 -0.0508  0.0662
33730W        W40330  14.933   2.595  23.665 -0.2314  0.0369  0.0687
33731W        W40331  22.185   0.754   9.884  0.0988  0.3627  0.0087
33732W        W40332  10.696   3.510   2.277 -0.0568 -0.1090 -0.1249
33733W        W40333   9.518   0.564   0.682 -0.1495  0.2625  0.0023
33734W        W40334  17.908   2.660  13.935 -0.2999 -0.2670  0.0263
33735W        W40335  17.585   4.198   1.213  0.1530  0.0608  0.2776
33736W        W40336  14.078   2.788  27.671  0.2442  0.3333  0.2280
33737W        W40337   0.297   3.732  35.022  0.0934  0.1594 -0.0560
33738W        W40338   1.446   2.839   7.039 -0.0450  0.1017 -0.0945
33739W        W40339   8.711   3.012  31.302 -0.0076 -0.2785  0.0732
33740W        W40340  14.969   3.109  21.003  0.1983 -0.2334  0.2952
33741W        W40341   6.440   3.298  25.410 -0.0759  0.2093  0.0382
33742W        W40342  18.903   5.038   5.232  0.1183  0.1212  0.0244
33743W        W40343  22.930   6.593  28.723 -0.0829 -0.0221 -0.1339
33744W        W40344   3.776   0.044   2.191 -0.1412  0.0190 -0.0672
33745W        W40345   2.335   4.281  20.543  0.2044 -0.0353 -0.1810
33746W        W40346   3.389   4.722  13.576 -0.0356 -0.1563 -0.3169
33747W        W40347   0.961   4.415  11.720  0.0357  0.1975  0.3173
33748W        W40348  24.654   1.087  31.583 -0.0770 -0.0372  0.0047
33749W        W40349  13.986   5.780   1.285 -0.0761 -0.0147  0.2418
33750W        W40350   1.924   6.576  23.288 -0.0458  0.1118  0.1891
33751W        W40351  18.213   4.549   8.083  0.0512  0.0692 -0.2025
33752W        W40352   5.988   0.745  12.365  0.0193 -0.0713 -0.0579
33753W        W40353   5.536   5.748  25.339  0.1739  0.0769  0.0925
33754W        W40354   6.243   2.133  34.226  0.0794  0.0637 -0.0978
33755W        W40355  17.444   1.512  33.977 -0.2321  0.0808 -0.0858
33756W        W40356  10.015   0.852  25.834 -0.2646 -0.1628 -0.4245
33757W        W40357  20.981   6.257  32.825  0.1047 -0.0582  0.0505
33758W        W40358  11.987   0.817  35.283  0.0218  0.0383  0.0421
33759W        W40359   8.514   2.531   8.423 -0.0906 -0.3979 -0.5549
33760W        W40360   1.035   0.877  36.036  0.2499  0.4713  0.1050
33761W        W40361  22.707   3.625  32.465 -0.2812 -0.0774  0.1744
33762W        W40362  19.573   6.412  32.737 -0.0854  0.0497 -0.0537
33763W        W40363  21.247   4.638  11.717  0.1712  0.0003  0.0040
33764W        W40364  18.920   2.406  31.537 -0.2850  0.3067 -0.0762
33765W        W40365  22.708   3.996   5.437  0.1128 -0.0105 -0.0954
33766W        W40366  19.058   4.624  29.939  0.0887 -0.2973  0.1400
33767W        W40367   2.295   3.092  21.568  0.1868  0.2399 -0.1186
33768W        W40368  16.889   2.858   7.330 -0.0582 -0.1754 -0.1680
33769W        W40369   3.097   4.183  28.946  0.2444 -0.1739  0.1036
33770W        W40370  17.453   1.864   3.078 -0.0557 -0.1472 -0.1407
33771W        W40371  20.923   2.148  29.019 -0.3187  0.0149 -0.0470
33772W        W40372  11.991   0.757  13.153  0.1674  0.1173 -0.1412
33773W        W40373  10.010   5.359  12.982  0.1217  0.1734 -0.1048
33774W        W40374  17.630   0.777  21.494  0.3401  0.0491 -0.2275
33775W        W40375   5.609   0.577  30.528  0.1233  0.1738 -0.0128
33776W        W40376   7.238   5.305  23.513  0.0175  0.2445  0.0978
33777W        W40377   0.175   1.451  13.453 -0.0318 -0.1429 -0.0210
33778W        W40378   5.343   5.487   9.088 -0.1271 -0.0607  0.1163
33779W        W40379  14.048   4.747  33.343  0.1084 -0.1325 -0.0059
33780W        W40380   8.579   2.161  22.177  0.1922  0.2957  0.0407
33781W        W40381   9.016   5.026  29.533 -0.0966 -0.0850 -0.1698
33782W        W40382   6.387   6.502  32.781 -0.0971 -0.0013 -0.0644
33783W        W40383  15.113   0.845  25.622  0.0209 -0.0706 -0.3754
33784W        W40384   5.627   5.708  27.404  0.1147  0.2417  0.2460
33785W        W40385   9.735   3.123   0.262  0.3949  0.0920 -0.2533
33786W        W40386   0.744   3.414  14.099  0.1750  0.0566  0.0119
33787W        W40387  16.564   5.843  32.969  0.0584 -0.2234 -0.0338
33788W        W40388  25.408   6.342  23.681  0.1180 -0.1633 -0.0121
33789W        W40389   4.694   1.339   3.858  0.4007  0.0590 -0.0404
33790W        W40390  19.598   4.601  21.887 -0.1268 -0.0160  0.3303
33791W        W40391  11.087   3.747  34.598  0.3087  0.3309  0.2652
33792W        W40392   3.165   2.847  20.504  0.0711 -0.2509  0.2939
33793W        W40393   0.501   5.515  33.790  0.0419 -0.0629  0.1983
33794W        W40394  19.436   2.544  33.317  0.0202  0.1389  0.1660
33795W        W40395  22.418   0.155   0.937  0.0287 -0.1149 -0.2901
33796W        W40396   6.586   2.306  29.518  0.0403  0.2793 -0.3575
33797W        W40397  22.083   6.137  21.445  0.2172 -0.2832 -0.0762
33798W        W40398  24.946   2.425  31.558  0.0571 -0.0062 -0.4051
33799W        W40399  18.147   6.521  29.233  0.0538  0.0986 -0.2557
33800W        W40400  14.043   4.365   7.237  0.3182 -0.1334  0.0375
33801W        W40401  14.494   5.778   8.185 -0.1285 -0.3695  0.0220
33802W        W40402  17.147   5.773  21.228  0.2195 -0.1850 -0.1242
33803W        W40403   5.059   2.685  27.999  0.0971 -0.1230 -0.0911
33804W        W40404  20.221   3.390  32.595  0.2358 -0.2702  0.1196
33805W        W40405  21.638   3.793   8.523  0.2309 -0.1117  0.1459
33806W        W40406  23.277   4.466  31.227 -0.1443 -0.1659 -0.0795
33807W        W40407   0.988   3.480  20.572 -0.1809  0.0822  0.1998
33808W        W40408   8.931   5.301   2.997 -0.0072  0.2494  0.1610
33809W        W40409   8.785   0.479   3.685  0.0323  0.0942 -0.0116
33810W        W40410   3.534   4.303  11.467  0.0763 -0.0037  0.0142
33811W        W40411   0.514   0.655  28.397 -0.0329  0.1527 -0.0571
33812W        W40412  21.759   0.720   8.517 -0.2351  0.1385  0.0602
33813W        W40413   0.045   5.892   4.366 -0.2970 -0.1578  0.0382
33814W        W40414   8.644   2.539   6.960 -0.1914 -0.2840 -0.0867
33815W        W40415  13.661   6.427  35.104  0.2457 -0.1487 -0.0182
33816W        W40416   8.162   1.881  24.948  0.1041  0.2597 -0.0636
33817W        W40417  20.907   1.972  35.684  0.0164  0.0707  0.1399
33818W        W40418  15.291   2.788   5.438 -0.2086 -0.0776 -0.1399
33819W        W40419  10.406   4.558   3.625  0.1332 -0.2154 -0.0345
33820W        W40420  21.803   5.399   1.253 -0.1728 -0.1039  0.2331
33821W        W40421  18.822   2.233  30.344  0.2862 -0.0306 -0.1019
33822W        W40422   6.137   4.685  34.071 -0.2257 -0.0923 -0.2305
33823W        W40423  15.674   6.400  27.566 -0.2182  0.1395  0.1507
33824W        W40424   0.320   6.569   3.953  0.2542 -0.1347 -0.1043
33825W        W40425  12.164   1.903  11.045 -0.2868 -0.1092 -0.2273
33826W        W40426   6.676   1.711  14.170 -0.1072  0.2599  0.0437
33827W        W40427  16.660   5.601   3.129 -0.0827  0.1019  0.3034
33828W        W40428   5.984   2.836  24.772  0.0219  0.0669  0.0322
33829W        W40429  19.104   4.320  23.037 -0.0020 -0.2836 -0.3828
33830W        W40430   9.436   0.846  21.196 -0.2784  0.3253 -0.1111
33831W        W40431  11.915   5.298  27.766  0.0832 -0.2635  0.1390
33832W        W40432  26.419   3.476  29.996 -0.1114  0.1242  0.3884
33833W        W40433  21.219   5.453  22.526  0.1804  0.2735 -0.1103
33834W        W40434  19.775   3.247  26.834 -0.0319 -0.0206  0.2050
33835W        W40435  17.420   1.492  34.967  0.3183 -0.2840  0.2170
33836W        W40436  13.284   1.897   5.010  0.2409 -0.1465 -0.3401
33837W        W40437  15.095   1.217   3.194  0.2283 -0.2032  0.1119
33838W        W40438  10.521   1.099  14.139  0.1972 -0.1393 -0.0192
33839W        W40439  20.067   2.832  10.944 -0.2909  0.0091  0.2154
33840W        W40440   3.529   4.051   4.358  0.1761  0.2392  0.1542
33841W        W40441  14.881   0.549  22.326  0.1603  0.0335  0.0234
33842W        W40442  20.082   1.598  35.496  0.2093 -0.0722 -0.3364
33843W        W40443  21.722   5.974  14.126 -0.0389  0.0425 -0.1452
33844W        W40444  11.967   3.011  12.266 -0.0701  0.1965  0.5933
33845W        W40445   4.887   1.976   3.795  0.2643 -0.0750 -0.0569
33846W        W40446  25.472   0.390  30.982 -0.0196  0.1216  0.0162
33847W        W40447  18.301   0.107  11.599  0.2701  0.1595  0.2690
33848W        W40448  22.981   4.964  23.697 -0.1069 -0.0255 -0.3499
33849W        W40449  11.405   4.115  35.427 -0.2832  0.0391 -0.1683
33850W        W40450  23.925   3.154  26.434  0.1648 -0.0221  0.1123
33851W        W40451   4.640   4.662   6.405 -0.1345  0.1649 -0.1043
33852W        W40452   8.549   3.544  15.029  0.0708 -0.3078 -0.1483
33853W        W40453  12.890   6.085  15.160 -0.3343 -0.0533 -0.1609
33854W        W40454  22.071   3.769  33.303 -0.1601  0.0096 -0.0761
33855W        W40455  25.119   3.115  25.264 -0.0281  0.0161 -0.2431
33856W        W40456  11.545   2.490   2.343  0.0524  0.0984  0.1150
33857W        W40457   4.920   5.841  15.194  0.0798  0.1746 -0.0259
33858W        W40458   8.352   2.949  29.846 -0.2263 -0.0235  0.0279
33859W        W40459  18.016   2.622   0.019 -0.0327 -0.2118  0.3491
33860W        W40460  11.740   3.155  31.260  0.1129  0.2784 -0.1957
33861W        W40461  25.876   3.991  27.268  0.0910  0.0666 -0.1773
33862W        W40462   5.704   3.240  13.139 -0.0889 -0.0585 -0.1792
33863W        W40463  24.169   6.036   5.416 -0.0460 -0.1099 -0.1304
33864W        W40464  23.444   5.198   9.348 -0.1012  0.1211  0.1081
33865W        W40465   4.065   6.288   5.586  0.2359  0.0798  0.4977
33866W        W40466  14.074   5.332  35.412  0.3104 -0.0455 -0.2757
33867W        W40467   2.461   1.737   8.841 -0.0644 -0.2780  0.2083
33868W        W40468   5.244   5.281  20.681  0.0461  0.0762  0.0054
33869W        W40469   4.943   3.949  13.353  0.1583 -0.1173  0.2184
33870W        W40470  22.529   3.916  24.611 -0.0200 -0.0613  0.1941
33871W        W40471   3.869   0.872  22.781  0.0059 -0.1773  0.0086
33872W        W40472   4.306   4.183  29.154 -0.1589 -0.0401  0.0440
33873W        W40473  10.390   0.394  31.429  0.1489  0.1462 -0.0508
33874W        W40474  15.619   3.129   4.560  0.4274 -0.0559 -0.1836
33875W        W40475   7.443   2.420   7.106 -0.1207  0.0742 -0.0808
33876W        W40476   5.909   1.497   9.756  0.1144  0.0312 -0.3822
33877W        W40477  10.663   6.530  11.568 -0.1115 -0.3059 -0.0387
33878W        W40478   9.358   0.373   7.483 -0.0160 -0.3229 -0.2430
33879W        W40479  18.306   4.495  23.392  0.2159 -0.2098 -0.2034
33880W        W40480  20.280   3.048   6.674 -0.2813  0.1226  0.1020
33881W        W40481  11.826   2.540  30.603 -0.0191 -0.0287  0.2965
33882W        W40482  12.843   6.043  23.590 -0.3387  0.1383 -0.0409
33883W        W40483   7.771   5.324   0.700  0.1583  0.2739 -0.0614
33884W        W40484  10.138   4.455   6.343  0.4072 -0.1547  0.3534
33885W        W40485   9.118   4.866  24.000  0.0416  0.2286 -0.0929
33886W        W40486  20.865   0.349  27.666  0.2786 -0.1533 -0.1023
33887W        W40487  23.078   1.732   9.322  0.1478 -0.0197 -0.2349
33888W        W40488  17.964   3.642  22.877 -0.1208  0.1423 -0.1844
33889W        W40489   0.215   1.781   4.782  0.0953 -0.1278 -0.1056
33890W        W40490  19.242   4.417  23.516  0.0521  0.0375  0.0568
33891W        W40491  19.424   5.130   8.400 -0.1046 -0.0273  0.1850
33892W        W40492  19.757   4.852   0.305 -0.2458 -0.0196 -0.0521
33893W        W40493   7.711   4.969   8.749 -0.0410 -0.0693 -0.0744
33894W        W40494  14.374   5.243  33.040  0.1117 -0.1252 -0.1133
33895W        W40495  11.663   4.980   1.085 -0.1525  0.2185 -0.2020
33896W        W40496  14.361   0.390  22.911 -0.0682  0.0346  0.2070
33897W        W40497   8.231   6.043   4.590  0.1396 -0.3072  0.1471
33898W        W40498  13.736   3.222   7.088  0.1765  0.0160  0.1676
33899W        W40499  24.618   6.292  29.535  0.0268 -0.0148 -0.1846
33900W        W40500  20.875   5.777  30.439 -0.0198  0.1584  0.0597
33901W        W40501  18.640   3.691  13.820  0.0217 -0.1092  0.0345
33902W        W40502   2.213   1.486   7.431  0.0338  0.1956  0.3112
33903W        W40503  15.267   1.095   0.365 -0.1882  0.1084 -0.2025
33904W        W40504  17.913   2.665  29.844 -0.0532  0.2119  0.1462
33905W        W40505   4.436   1.768   4.001  0.0514 -0.0164  0.0556
33906W        W40506   2.888   6.388   1.928 -0.0347  0.1300 -0.0172
33907W        W40507  15.095   4.541   8.177  0.4718  0.1026 -0.1587
33908W        W40508  14.706   1.731  27.436 -0.1790 -0.0311  0.0528
33909W        W40509  17.403   5.772   8.650 -0.1504 -0.1342  0.2042
33910W        W40510   1.511   4.346  30.933 -0.0723 -0.1251  0.0314
33911W        W40511   1.302   5.660   2.528 -0.1000 -0.0985 -0.2620
33912W        W40512  12.720   3.603  14.431  0.1085 -0.2127  0.1386
33913W        W40513  16.136   4.680   8.383 -0.1965  0.1000 -0.2249
33914W        W40514   3.066   3.734  34.069  0.0058  0.1480  0.2262
33915W        W40515   6.511   0.464  11.556  0.0937 -0.2741  0.1154
33916W        W40516  18.981   2.143  27.479 -0.0910 -0.3410 -0.1500
33917W        W40517   5.775   0.056  29.311 -0.1709 -0.0070  0.0007
33918W        W40518  21.651   6.469   6.941 -0.0241  0.1169 -0.1875
33919W        W40519  20.249   3.322  13.555 -0.0502 -0.0970  0.1884
33920W        W40520  13.402   4.237   3.766  0.0205  0.1208  0.1381
33921W        W40521  21.655   0.848  28.998  0.4511  0.0892 -0.2011
33922W        W40522  11.112   2.947  30.207  0.2219 -0.0229  0.1283
33923W        W40523   0.510   6.234  21.717 -0.1104  0.2052  0.0008
33924W        W40524  20.733   3.708  11.830  0.1428  0.0137 -0.2598
33925W        W40525  10.797   3.075  32.796  0.0848 -0.1856  0.2280
33926W        W40526  12.798   0.460  34.349 -0.1820  0.3267  0.2199
33927W        W40527   0.337   0.879  33.366 -0.3343 -0.1807  0.2019
33928W        W40528   5.735   3.523   0.306 -0.1058 -0.0799  0.1687
33929W        W40529   1.180   1.555  31.914 -0.0823 -0.3630  0.1619
33930W        W40530  18.231   3.521  23.622 -0.0635 -0.0360  0.2854
33931W        W40531  18.901   1.975  25.167 -0.0087  0.2695  0.0563
33932W        W40532  12.873   0.775   9.809  0.2837  0.1045 -0.0246
33933W        W40533  14.733   1.666  12.183 -0.1713 -0.1993 -0.0476
33934W        W40534  19.550   2.414  29.808  0.0947  0.0306 -0.0058
33935W        W40535   5.647   3.722   6.352 -0.2253  0.0568 -0.2016
33936W        W40536  14.884   4.639  14.680 -0.0612  0.1651  0.0321
33937W        W40537   8.467   6.025  15.432  0.1171 -0.0300  0.2065
33938W        W40538  15.326   6.021   3.932  0.2373 -0.2984 -0.0351
33939W        W40539  18.926   3.601  30.607  0.1576 -0.0052 -0.1633
33940W        W40540   8.237   1.335   2.732 -0.0729 -0.0973 -0.0679
33941W        W40541  18.237   4.156  11.256 -0.0421  0.1064 -0.2636
33942W        W40542  15.426   1.761   1.822 -0.1200  0.0003 -0.0335
33943W        W40543   1.442   0.411  33.024  0.0723 -0.0582 -0.0737
33944W        W40544   9.255   0.124   9.346  0.3952 -0.0110 -0.2441
33945W        W40545   9.970   4.533  13.441 -0.0949 -0.1036  0.0240
33946W        W40546   0.426   5.052  35.585 -0.3682 -0.1924  0.2134
33947W        W40547  13.693   4.341   3.354  0.0188  0.1461  0.2270
33948W        W40548  19.422   3.183  15.019 -0.0307 -0.5707 -0.2414
33949W        W40549  11.732   2.142   3.226  0.0756  0.2436  0.0476
33950W        W40550  26.281   1.968   2.852 -0.0195  0.0446  0.1353
33951W        W40551  20.370   2.775  25.284  0.0476  0.2019  0.2288
33952W        W40552   0.677   5.693  24.294 -0.0449  0.2289 -0.0814
33953W        W40553  14.556   4.747  21.486  0.0837  0.1239 -0.0617
33954W        W40554  12.604   3.560  32.219 -0.0123 -0.0621 -0.0309
33955W        W40555   9.064   6.279   3.244  0.0466 -0.2148 -0.0599
33956W        W40556  24.750   6.524   3.032  0.2972 -0.0846 -0.0797
33957W        W40557  15.582   5.187   4.115 -0.1176 -0.1279 -0.1793
33958W        W40558   1.051   3.950  13.583  0.0165  0.0316 -0.0179
33959W        W40559  25.910   0.484   9.037  0.1693 -0.0009 -0.2674
33960W        W40560   4.432   0.034  31.055 -0.1147  0.2492  0.0088
33961W        W40561   5.441   1.553  35.835  0.1399  0.2000 -0.1881
33962W        W40562  19.039   4.543   5.530  0.1612  0.1498 -0.1615
33963W        W40563  14.216   0.400  13.558  0.0024 -0.0600  0.1168
33964W        W40564  14.930   6.279  29.515  0.0371  0.1490  0.0526
33965W        W40565  15.096   1.480  27.535  0.0665 -0.1277  0.0795
33966W        W40566   6.360   1.390  34.779 -0.1130 -0.0381 -0.2386
33967W        W40567  22.775   5.461  10.590 -0.2060 -0.0471 -0.0296
33968W        W40568  16.513   1.557  32.642  0.0875 -0.2229 -0.3806
33969W        W40569  23.339   3.325   8.164  0.4357  0.1798  0.2089
33970W        W40570   1.354   0.622  28.949 -0.0123  0.3505  0.0659
33971W        W40571   7.390   2.229  21.721 -0.0131 -0.0125 -0.0604
33972W        W40572   4.584   4.054   0.382  0.0890  0.3242  0.1920
33973W        W40573   3.174   3.041  10.950 -0.0232 -0.0476 -0.2327
33974W        W40574  25.066   1.565  31.728  0.0865 -0.0101 -0.5045
33975W        W40575  15.066   6.499  10.103  0.1746 -0.1945  0.0044
33976W        W40576  25.888   5.990  28.423  0.0029  0.1930  0.1656
33977W        W40577  14.694   2.757  32.422 -0.0292 -0.1942  0.1059
33978W        W40578  21.259   1.114   2.851 -0.1798 -0.0615  0.2382
33979W        W40579   7.558   3.420  27.819 -0.0517 -0.2319 -0.0088
33980W        W40580  23.950   5.667  35.457 -0.1613 -0.0161  0.0349
33981W        W40581   9.898   1.963  33.787 -0.0381  0.1971 -0.2809
33982W        W40582   1.863   5.345   3.114  0.2623 -0.1223 -0.2504
33983W        W40583   8.086   4.425  23.120  0.2248 -0.1201  0.2209
33984W        W40584   3.614   5.453  21.172 -0.2016  0.1711 -0.2144
33985W        W40585  20.064   3.351   3.439 -0.1653 -0.0367 -0.0664
33986W        W40586   4.533   4.708   9.049  0.1620 -0.0193  0.2543
33987W        W40587  21.380   4.174   2.221 -0.1133  0.0197 -0.0803
33988W        W40588  16.292   2.703  33.979 -0.0786 -0.2870 -0.1371
33989W        W40589  14.768   5.587   9.339 -0.1424  0.0304 -0.2898
33990W        W40590  15.281   0.691  35.023  0.1275  0.0552 -0.1185
33991W        W40591  25.484   6.079  13.293 -0.3569 -0.0973 -0.0758
33992W        W40592  12.415   3.135  32.562 -0.0989  0.1918 -0.2720
33993W        W40593  22.710   2.355   7.280  0.3739  0.1852  0.3034
33994W        W40594  14.229   5.997  32.523  0.0242  0.0311  0.1858
33995W        W40595   8.689   5.368   4.245  0.0008  0.1827  0.4036
33996W        W40596  23.343   6.149   7.075 -0.3103 -0.3153  0.2870
33997W        W40597  11.951   4.025  14.185 -0.0054  0.2121  0.0653
33998W        W40598  19.652   0.146  14.995 -0.0491  0.0078 -0.1682
33999W        W40599  25.102   1.856  28.214 -0.1196 -0.3158 -0.0941
34000W        W40600  10.375   0.868   3.115 -0.3341 -0.0759  0.0674
34001W        W40601  19.486   3.661   8.727 -0.0196 -0.1866  0.0677
34002W        W40602  24.720   1.386  32.077  0.1200 -0.1055  0.0697
34003W        W40603  16.489   0.635  26.784 -0.0317 -0.2502  0.1016
34004W        W40604  22.836   0.978   7.547  0.0502  0.0475 -0.4414
34005W        W40605  19.264   1.368  24.157  0.0546  0.0912 -0.1442
34006W        W40606  15.431   5.418  22.467 -0.1903 -0.2278 -0.0817
34007W        W40607  23.792   5.533  35.011  0.2682  0.2848 -0.1639
34008W        W40608  21.453   3.558  22.838  0.2243 -0.2859 -0.0151
34009W        W40609  20.130   2.235   8.802  0.0315  0.2130  0.0218
34010W        W40610  13.742   2.692   2.328 -0.2967  0.0456  0.1057
34011W        W40611  10.000   2.561  32.789 -0.0762 -0.0611  0.1731
34012W        W40612  13.646   0.760  12.235  0.1049  0.2331  0.3103
34013W        W40613  18.087   0.109  28.274 -0.2152 -0.1835 -0.0768
34014W        W40614  19.468   6.489   0.046  0.1751  0.2557 -0.1522
34015W        W40615  15.797   4.629  24.548 -0.1764 -0.1132  0.0688
34016W        W40616  21.088   0.542  30.692  0.0397  0.0731  0.2860
34017W        W40617  20.854   1.664   6.531 -0.2082 -0.0489  0.0077
34018W        W40618  25.189   2.690   5.515  0.0377  0.1801  0.2280
34019W        W40619   6.993   5.967   9.331 -0.1792  0.1492 -0.1236
34020W        W40620   3.179   5.352  21.383  0.0137  0.3288  0.1169
34021W        W40621  18.907   4.407   8.666  0.1810 -0.1741  0.2865
34022W        W40622   2.553   3.828   4.252 -0.1529 -0.2293 -0.3558
34023W        W40623   2.863   2.466  21.264 -0.1093  0.1138  0.1454
34024W        W40624  11.107   0.477   7.145 -0.3625  0.1762  0.1690
34025W        W40625   4.520   5.475   1.338  0.2412  0.1069  0.2075
34026W        W40626  15.139   4.025  11.807 -0.1405  0.1125  0.4830
34027W        W40627  18.415   3.253   9.229  0.1778 -0.0023  0.1158
34028W        W40628   4.481   5.620  30.111 -0.1310 -0.0783  0.0432
34029W        W40629  20.514   2.441  13.844 -0.0165 -0.1642  0.1249
34030W        W40630   5.452   0.728  24.607  0.0564 -0.0278 -0.1372
34031W        W40631   0.513   4.701   4.731  0.2760  0.4533  0.0058
34032W        W40632   0.918   4.828   0.044 -0.0624 -0.1258  0.1668
34033W        W40633  21.887   4.531   1.878 -0.0622 -0.1917 -0.1093
34034W        W40634   2.261   0.731  12.223 -0.0805  0.1448 -0.2791
34035W        W40635  11.881   6.032  31.466  0.1383  0.0919  0.0748
34036W        W40636  11.714   0.024   9.374  0.0303  0.1988  0.0614
34037W        W40637   5.115   3.107  29.669  0.3396 -0.1530  0.1885
34038W        W40638  22.759   5.319  25.475 -0.2556  0.1943  0.0017
34039W        W40639  13.260   2.354   4.565 -0.0180  0.2165 -0.0676
34040W        W40640   9.778   4.122  22.977 -0.0292  0.0183  0.2071
34041W        W40641  13.837   1.633  33.831  0.2058 -0.0510 -0.1843
34042W        W40642  16.905   2.336  30.658  0.0956  0.1773 -0.0329
34043W        W40643  24.151   2.595  24.763  0.1601  0.0219 -0.2541
34044W        W40644   3.320   6.448   2.316  0.0601  0.2753 -0.0958
34045W        W40645   7.226   1.539  35.068 -0.1149 -0.2355  0.2172
34046W        W40646  11.268   4.255  33.026  0.1652  0.3818 -0.0558
34047W        W40647   4.617   2.733   9.853 -0.1024 -0.0765  0.1477
34048W        W40648  26.116   0.941  30.733 -0.0824 -0.1128 -0.2327
34049W        W40649  23.695   2.614  35.863 -0.2382 -0.0310 -0.5027
34050W        W40650  16.853   3.295  25.253  0.2181  0.0742 -0.1618
34051W        W40651  23.443   4.515   6.936  0.2725  0.0705 -0.2880
34052W        W40652  12.106   4.390  30.609  0.3550 -0.1899 -0.1181
34053W        W40653  24.148   1.607  30.338 -0.1346 -0.0299 -0.0635
34054W        W40654   2.496   4.977  26.971 -0.0540  0.1088  0.1661
34055W        W40655  23.165   6.553  12.936  0.0007  0.0823  0.0016
34056W        W40656  25.522   1.200  34.509  0.2612  0.1185 -0.0833
34057W        W40657  10.453   1.585  24.268 -0.0571  0.1338  0.2988
34058W        W40658   1.925   1.279   7.802  0.0662 -0.0753  0.0937
34059W        W40659  24.142   2.710  24.304  0.2195 -0.0518 -0.0946
34060W        W40660  10.667   2.062   1.967 -0.0297 -0.0496 -0.1359
34061W        W40661   2.349   4.366  25.550 -0.1531  0.2241 -0.1307
34062W        W40662  17.880   2.537  34.083  0.3319  0.0782  0.0331
34063W        W40663  18.199   2.434  27.474 -0.0396 -0.0781 -0.1182
34064W        W40664  12.222   0.708  22.499 -0.0488 -0.1536 -0.0867
34065W        W40665  17.197   4.275  35.046 -0.3383 -0.1505  0.1131
34066W        W40666  25.982   4.425   2.147  0.2095  0.0242  0.1163
34067W        W40667  19.747   3.125   8.670 -0.1383  0.0848  0.2127
34068W        W40668   1.256   0.904   5.380 -0.0044 -0.2381  0.1212
34069W        W40669  12.079   1.783  23.758  0.1033  0.2033 -0.0119
34070W        W40670  18.518   5.860  22.049 -0.2946 -0.0044  0.1737
34071W        W40671  19.349   2.504   7.213 -0.1732 -0.0236 -0.3972
34072W        W40672  24.442   5.266  30.789 -0.0446 -0.0821 -0.2833
34073W        W40673  18.695   3.994  11.419  0.2894  0.1611 -0.2438
34074W        W40674  18.619   4.114   9.132  0.3691  0.1119  0.0895
34075W        W40675  25.027   3.012  15.765  0.2133 -0.2259  0.0370
34076W        W40676   1.287   5.640   5.268  0.1985 -0.0801  0.0651
34077W        W40677  24.543   5.976  14.276  0.2259  0.0388 -0.3540
34078W        W40678   9.010   6.005   0.093 -0.2925  0.0311 -0.1178
34079W        W40679   3.842   4.592  21.033  0.0457 -0.0404  0.2737
34080W        W40680  16.730   4.201   0.643 -0.0940 -0.0186 -0.1839
34081W        W40681  26.181   6.069  22.701 -0.0536 -0.1863 -0.0538
34082W        W40682  25.041   5.326   0.272 -0.0211 -0.1044  0.1676
34083W        W40683  11.097   5.929  12.824 -0.0405  0.3629 -0.2882
34084W        W40684   9.718   6.103  24.798  0.1590 -0.0025  0.1385
34085W        W40685   7.697   1.338   2.789  0.1317 -0.3985  0.0547
34086W        W40686  22.449   5.861   2.441  0.0928  0.2918 -0.1749
34087W        W40687   5.272   1.768   0.541 -0.0705  0.0066  0.0158
34088W        W40688  23.326   2.716   0.069  0.2941  0.4802 -0.0366
34089W        W40689  15.852   3.180   1.574 -0.2452  0.1111 -0.1267
34090W        W40690   2.067   5.843  11.581  0.1290 -0.1086  0.0601
34091W        W40691  15.059   0.190   0.312  0.0358 -0.0956  0.0225
34092W        W40692   8.137   1.670   5.738  0.1978 -0.3324 -0.1206
34093W        W40693   7.811   3.340  13.938  0.1829  0.1887 -0.0947
34094W        W40694  17.526   3.456  14.841  0.0595  0.0519  0.0485
34095W        W40695  16.214   5.325  28.873 -0.0252  0.2543  0.2776
34096W        W40696  21.704   3.617  29.968 -0.2287  0.0058  0.2116
34097W        W40697  14.254   3.421  33.729 -0.0258  0.0659 -0.2179
34098W        W40698  13.206   2.736   8.565 -0.3013  0.1460  0.1553
34099W        W40699  26.014   0.064  14.283 -0.2050  0.0387  0.1138
34100W        W40700  13.867   1.128  23.518 -0.1782  0.1442  0.0075
34101W        W40701  14.091   1.201   5.545  0.1138 -0.1170  0.2359
34102W        W40702  17.060   6.571   6.171  0.1096  0.2105 -0.3485
34103W        W40703   6.081   5.682  21.024 -0.3409 -0.0802  0.0154
34104W        W40704  10.472   2.375   2.691  0.0772 -0.0006  0.0258
34105W        W40705   4.644   2.028  31.638  0.2194 -0.2786 -0.0003
34106W        W40706  16.231   0.881  28.590 -0.2390 -0.1074 -0.0678
34107W        W40707  24.969   5.141   1.342  0.0262  0.1419  0.0748
34108W        W40708  25.312   4.753  22.734 -0.0408  0.2915 -0.3002
34109W        W40709   3.588   0.962  28.391 -0.1003 -0.4651 -0.2530
34110W        W40710  23.727   2.672  12.886 -0.0892  0.2373 -0.0367
34111W        W40711  26.094   1.877  10.363  0.0005  0.0887 -0.0461
34112W        W40712   5.276   2.563  33.525  0.0199  0.1296 -0.1376
34113W        W40713   8.727   4.990   9.901 -0.0569  0.1433  0.1465
34114W        W40714   5.594   3.079  27.343 -0.0541  0.0520  0.3606
34115W        W40715  19.550   2.564  22.827  0.1677 -0.1044  0.1835
34116W        W40716  23.976   2.291   5.789 -0.0519  0.3831 -0.1557
34117W        W40717   8.333   2.697  14.628 -0.0398  0.1589 -0.2847
34118W        W40718  19.567   5.078  27.043  0.0185  0.0212 -0.0305
34119W        W40719  24.533   0.684  13.852 -0.3719 -0.1149 -0.0755
34120W        W40720  16.852   5.381   2.663 -0.1435 -0.1805  0.1099
34121W        W40721  19.604   5.793  23.284  0.0212  0.3377 -0.1557
34122W        W40722  16.191   2.650  25.537 -0.2163  0.0723  0.0212
34123W        W40723  12.894   2.292  34.482  0.2588 -0.2367 -0.0407
34124W        W40724   9.688   1.171  35.365  0.0712 -0.1959 -0.0031
34125W        W40725  23.711   5.918  10.844 -0.2528  0.0253  0.0158
34126W        W40726  18.811   1.054   1.752  0.1438 -0.2458  0.0005
34127W        W40727  14.115   3.827   1.493  0.2909 -0.0926  0.0425
34128W        W40728   2.721   3.713   5.759  0.2268 -0.3654  0.1860
34129W        W40729   9.197   1.936   8.760 -0.0736 -0.0403 -0.1175
34130W        W40730   9.349   4.060   1.440  0.0187  0.0930  0.0688
34131W        W40731   8.954   3.916  12.469 -0.1034  0.0161 -0.0526
34132W        W40732  16.351   0.461  13.345 -0.2449  0.3334 -0.1897
34133W        W40733   7.991   1.889  31.711  0.2275  0.1067  0.2797
34134W        W40734  25.819   0.710   2.549  0.2701  0.1011  0.0630
34135W        W40735   8.653   3.937   8.215  0.0236  0.1342  0.2209
34136W        W40736  21.558   5.600  13.850  0.1153 -0.0286  0.1818
34137W        W40737   5.868   0.103  21.271  0.0199 -0.0310 -0.0746
34138W        W40738  15.572   2.736   1.807 -0.1175  0.1661  0.1192
34139W        W40739  10.652   0.722  30.980  0.0250 -0.0717 -0.1385
34140W        W40740   3.932   1.807  34.896  0.2295  0.0413 -0.0918
34141W        W40741  21.481   5.052  33.325  0.0504 -0.1167 -0.1237
34142W        W40742  26.374   6.174  34.564 -0.0184  0.2149 -0.3581
34143W        W40743  23.556   5.514   2.576 -0.1455 -0.0621 -0.0368
34144W        W40744  20.893   5.551  10.275  0.2150  0.1043 -0.0063
34145W        W40745   9.115   3.468  28.161  0.2689 -0.0688  0.0881
34146W        W40746   6.881   2.927   3.227 -0.1544 -0.1546 -0.2836
34147W        W40747   8.111   2.040   5.400  0.1780 -0.0517  0.0229
34148W        W40748  21.668   2.491  13.783 -0.1938 -0.2067 -0.3420
34149W        W40749  12.505   5.900   7.131 -0.0948 -0.0243 -0.1467
34150W        W40750   4.352   0.306   0.416 -0.0735  0.2351  0.0186
34151W        W40751   5.424   1.406  35.132 -0.2191 -0.1873  0.0051
34152W        W40752   4.227   6.585  14.004 -0.1294 -0.1112 -0.0780
34153W        W40753   0.088   0.483   9.868 -0.0632 -0.1395 -0.0350
34154W        W40754  14.234   3.398   7.119  0.1473  0.0757 -0.3698
34155W        W40755   0.271   0.635   6.920  0.0883 -0.0323  0.0471
34156W        W40756   7.879   3.042   8.517 -0.0961 -0.0320  0.3746
34157W        W40757   2.337   0.399  33.307 -0.1791 -0.1419  0.0102
34158W        W40758   5.117   2.248  12.228 -0.0220 -0.0306 -0.0287
34159W        W40759  13.001   6.142  22.062  0.1544  0.1202  0.1033
34160W        W40760  20.614   5.788  22.007 -0.3028 -0.4123 -0.2244
34161W        W40761   0.395   4.774  22.143 -0.1470 -0.0141  0.4271
34162W        W40762  16.142   5.388  32.084 -0.2169  0.3543  0.2031
34163W        W40763  12.680   2.812   6.735 -0.0631  0.1340  0.0297
34164W        W40764  22.215   4.713  34.480 -0.1277  0.2508  0.1428
34165W        W40765  12.054   1.518  31.366 -0.0867  0.2306 -0.1709
34166W        W40766   2.035   1.375   2.420 -0.1178 -0.2300  0.1577
34167W        W40767  24.954   1.500  11.589  0.1087  0.2010  0.2484
34168W        W40768  24.834   4.297   8.638  0.2329 -0.0759 -0.1329
34169W        W40769  19.526   2.385  31.476 -0.0606 -0.2991  0.2260
34170W        W40770   6.496   5.442  24.584 -0.0041 -0.1318 -0.0759
34171W        W40771   3.346   0.661  21.376  0.3081  0.0922  0.1294
34172W        W40772   9.287   0.724   7.819 -0.0789 -0.1172  0.1371
34173W        W40773   8.140   5.639  31.691 -0.0426  0.1876 -0.0192
34174W        W40774  17.613   2.460  32.200  0.2690 -0.1809 -0.2617
34175W        W40775   3.616   3.974   6.144 -0.2328 -0.1488  0.1061
34176W        W40776  15.499   5.962  31.273 -0.1247 -0.0795  0.0003
34177W        W40777   5.185   3.607  23.409  0.2432 -0.0344 -0.4522
34178W        W40778  11.753   5.071  11.646 -0.0639 -0.0784  0.0631
34179W        W40779   0.172   2.141  34.367 -0.0605  0.1466 -0.2012
34180W        W40780  15.874   3.273  22.271 -0.3161  0.0487 -0.0600
34181W        W40781  16.392   6.384   3.483  0.0451  0.0239 -0.0935
34182W        W40782   7.192   3.673  25.866  0.1674 -0.1260 -0.0422
34183W        W40783   8.457   1.316  33.917  0.1701 -0.0718  0.1900
34184W        W40784   3.818   4.448  14.843  0.0019 -0.2923 -0.0040
34185W        W40785  24.057   5.158  13.663  0.2491 -0.0293 -0.1693
34186W        W40786  16.701   4.695  10.489 -0.0629 -0.3492  0.0712
34187W        W40787  12.846   1.635  31.677 -0.0225  0.1577  0.0311
34188W        W40788  24.484   4.676   8.392 -0.2020  0.1182  0.4606
34189W        W40789  10.992   0.542  32.059  0.1996 -0.0549  0.1804
34190W        W40790   9.881   3.054  30.865 -0.1234 -0.0156  0.0698
34191W        W40791  21.344   2.405  35.433  0.0428 -0.2153 -0.0114
34192W        W40792   3.101   5.716  35.972  0.5023  0.2489  0.1448
34193W        W40793   6.131   2.495   6.206  0.1143  0.0040  0.0511
34194W        W40794  11.909   2.864   8.427 -0.1858  0.2511  0.1834
34195W        W40795  22.458   1.841   2.811  0.1907  0.1908  0.0518
34196W        W40796   6.698   0.010  28.350  0.0726  0.1452  0.1453
34197W        W40797  22.776   5.987  11.419  0.0915  0.3573 -0.1084
34198W        W40798   6.235   2.844  35.294  0.1082  0.0367 -0.0956
34199W        W40799  13.554   4.870  30.695 -0.2689  0.0652 -0.1035
34200W        W40800  11.102   3.074  28.446 -0.0933 -0.0515  0.0068
34201W        W40801  14.840   3.302   8.700 -0.0155 -0.0734  0.2245
34202W        W40802  25.815   6.173  34.894  0.1909  0.3392 -0.2096
34203W        W40803  14.239   0.711  26.742  0.2557 -0.4075 -0.3982
34204W        W40804   6.317   6.014  22.099 -0.0728 -0.1903  0.0309
34205W        W40805  23.899   4.605  14.873 -0.1814 -0.0084  0.0890
34206W        W40806  25.916   4.968  19.838  0.1028 -0.1656 -0.1622
34207W        W40807   0.546   2.034  28.391 -0.1577  0.2035 -0.2278
34208W        W40808  11.130   5.114   0.352 -0.0364 -0.3739  0.0357
34209W        W40809  25.037   2.032   2.146 -0.3440 -0.3637 -0.2429
34210W        W40810  23.845   3.409  31.285  0.0949 -0.1034 -0.0877
34211W        W40811  24.579   1.023   8.802 -0.0699  0.1426 -0.0265
34212W        W40812   6.103   5.771  24.185  0.0295 -0.0995 -0.2088
34213W        W40813  23.907   0.107  29.969  0.1578  0.2177  0.0996
34214W        W40814   1.477   2.440   8.067 -0.0550 -0.2603 -0.3560
34215W        W40815   3.249   1.161   2.108 -0.0882  0.3539 -0.2115
34216W        W40816   9.155   5.723  33.606 -0.1093 -0.1838 -0.1125
34217W        W40817  12.362   0.518   1.071 -0.1003  0.3643 -0.0085
34218W        W40818  20.283   2.760   3.967  0.0257  0.0714  0.0235
34219W        W40819  22.892   0.924  30.095 -0.2463  0.1507 -0.1147
34220W        W40820  11.557   0.338   8.936 -0.0228  0.2644  0.0346
34221W        W40821  18.790   1.372  14.999 -0.1273  0.4437 -0.0695
34222W        W40822   7.822   4.034  35.272  0.2643  0.2879 -0.0636
34223W        W40823   6.638   3.750   1.563 -0.0113 -0.1286  0.0319
34224W        W40824   4.547   1.480  12.198  0.2996 -0.1912  0.4158
34225W        W40825  15.772   6.392   4.049 -0.0844 -0.0028 -0.0503
34226W        W40826  20.027   0.549  27.127 -0.1149  0.0079  0.4041
34227W        W40827   3.109   6.390   3.963  0.2709 -0.0739 -0.0864
34228W        W40828  26.208   2.503  34.329  0.1509 -0.0322  0.0854
34229W        W40829  13.267   2.559  12.248  0.0950 -0.1920 -0.0408
34230W        W40830  25.567   4.856  14.049  0.0302 -0.0570 -0.0421
34231W        W40831  11.842   4.854   7.306  0.2282 -0.0516  0.1603
34232W        W40832   9.510   2.615  15.105  0.0425  0.1528 -0.0321
34233W        W40833  23.956   4.944   4.572  0.0514 -0.5163  0.0390
34234W        W40834   1.576   6.122   6.207 -0.0970 -0.0651 -0.0361
34235W        W40835   4.301   6.253  11.026  0.1663 -0.0794  0.1298
34236W        W40836   4.336   4.136   8.455 -0.1216  0.0946 -0.2930
34237W        W40837  26.264   2.306  36.161  0.0683  0.0505  0.1047
34238W        W40838  10.941   5.564  24.114 -0.1376  0.0021  0.1936
34239W        W40839  11.970   5.241  23.929  0.2294  0.0142 -0.0921
34240W        W40840  19.319   6.446  25.598 -0.1253  0.0742 -0.1758
34241W        W40841   0.723   3.680   1.939 -0.1040 -0.0862  0.3747
34242W        W40842  22.107   3.062   3.678  0.1683 -0.4219  0.2061
34243W        W40843   9.453   3.888  21.101 -0.0520 -0.0368  0.2517
34244W        W40844   4.819   3.274   9.541  0.2364 -0.1462 -0.1387
34245W        W40845  19.216   5.501  23.117 -0.0956 -0.2627  0.1111
34246W        W40846  17.126   0.662  14.571  0.0730 -0.1768  0.2417
34247W        W40847  13.646   2.033  23.720 -0.3343  0.0656  0.4410
34248W        W40848   9.843   4.281   6.690 -0.2304 -0.0328 -0.1280
34249W        W40849  16.188   0.789  24.336  0.1454 -0.0528 -0.2092
34250W        W40850   6.678   2.587  34.533  0.1335 -0.0016  0.1537
34251W        W40851  17.314   1.869   0.184 -0.1657  0.0971  0.3903
34252W        W40852  20.858   1.267  22.344 -0.2302 -0.0945 -0.2771
34253W        W40853  15.217   5.428  33.340 -0.1601  0.0209  0.1843
34254W        W40854  26.345   4.393  26.319 -0.1429  0.1561 -0.3191
34255W        W40855  18.055   1.120  28.155  0.0575  0.0817  0.1728
34256W        W40856  12.879   2.956   2.615 -0.0361 -0.0346 -0.3458
34257W        W40857   9.360   5.454  10.978  0.0671 -0.1921 -0.0078
34258W        W40858  10.692   6.498   3.045 -0.1519  0.1207 -0.2611
34259W        W40859  21.081   2.788   2.062  0.2977 -0.1383 -0.1783
34260W        W40860  11.372   5.880   5.856 -0.3102 -0.3255 -0.0820
34261W        W40861   1.427   3.688  28.335 -0.2268 -0.1557  0.0531
34262W        W40862   2.588   4.654  30.148 -0.0557 -0.0870  0.1257
34263W        W40863   9.178   0.921   6.980  0.1068  0.0872 -0.2514
34264W        W40864  18.338   1.574  35.377 -0.0128  0.0103 -0.2105
34265W        W40865  26.126   1.975  28.710  0.0498 -0.0444  0.0061
34266W        W40866   4.917   4.625   2.215 -0.1967 -0.1387 -0.1658
34267W        W40867  21.020   3.601   6.488 -0.0175 -0.0761  0.1510
34268W        W40868   6.482   3.053  12.054  0.1432 -0.1347 -0.2065
34269W        W40869  22.005   0.928  29.812 -0.1178 -0.2423  0.0630
34270W        W40870  13.595   5.264  32.684  0.2014 -0.2409  0.0160
34271W        W40871  11.963   5.477   8.222  0.0589  0.3120  0.2163
34272W        W40872  26.420   3.194   6.177 -0.1610  0.3412  0.0816
34273W        W40873   3.308   3.911  31.258  0.0469 -0.1532  0.1812
34274W        W40874  21.323   0.779  34.652 -0.2159  0.0471 -0.0396
34275W        W40875   7.159   3.108   7.938 -0.0352 -0.0130 -0.1394
34276W        W40876  10.223   0.949   0.915 -0.0129  0.0903  0.3304
34277W        W40877   9.109   4.232  24.504  0.0207  0.3259 -0.2402
34278W        W40878  24.576   4.004  13.827  0.3799  0.2188  0.1218
34279W        W40879  13.644   1.325  32.701  0.1860 -0.1880  0.0315
34280W        W40880   2.859   5.200  15.253  0.2353 -0.0336  0.3724
34281W        W40881   6.791   6.372  12.890  0.0212  0.0932 -0.0610
34282W        W40882   1.100   4.323  10.442  0.0578  0.0736 -0.0082
34283W        W40883   2.417   0.439  34.960  0.1360  0.1046  0.2471
34284W        W40884   1.161   4.380   3.240  0.2436  0.0462  0.3697
34285W        W40885   8.505   6.365  25.916 -0.1720 -0.1859  0.1093
34286W        W40886   4.616   5.915   4.041 -0.1167  0.1499  0.1713
34287W        W40887  18.004   1.104  12.288 -0.2069 -0.0349  0.1878
34288W        W40888  16.245   4.245   5.483  0.3542  0.2188 -0.1147
34289W        W40889  11.523   3.252  24.882 -0.0761  0.1029  0.0507
34290W        W40890  26.238   1.081  12.359 -0.2917 -0.1867 -0.1329
34291W        W40891   7.428   4.974  10.591 -0.0973 -0.2655  0.0795
34292W        W40892  14.386   5.179  21.605 -0.1267 -0.1133  0.2295
34293W        W40893  13.854   2.571  14.062 -0.0736  0.0655  0.0906
34294W        W40894   1.687   4.209   0.428  0.1940 -0.0830 -0.0085
34295W        W40895  17.077   1.701  27.622 -0.3247 -0.2357  0.0802
34296W        W40896  13.372   1.758  34.061  0.2128  0.2786 -0.1282
34297W        W40897  20.905   5.299  25.703  0.1755  0.0645 -0.1566
34298W        W40898  20.943   0.306  11.517 -0.1223 -0.1098  0.0689
34299W        W40899   7.806   2.026  28.004  0.2075  0.2134 -0.0050
34300W        W40900   1.949   3.762  13.591 -0.1579 -0.1338  0.2261
34301W        W40901  25.080   5.846   0.154  0.1981  0.3498  0.0054
34302W        W40902  11.058   4.632   5.728 -0.1643  0.0915 -0.1952
34303W        W40903  18.825   2.007  14.821 -0.0421  0.0759  0.1071
34304W        W40904   4.306   4.855  35.509  0.1818 -0.1166 -0.0775
34305W        W40905   0.855   3.783  31.502 -0.1342  0.0359 -0.1924
34306W        W40906   7.971   2.251  21.598 -0.0701  0.1978  0.1216
34307W        W40907  23.566   5.673   9.174 -0.3879 -0.1133  0.1837
34308W        W40908   1.031   2.559   5.296  0.3637  0.1717 -0.2281
34309W        W40909  16.035   3.609  25.356 -0.1771  0.1012 -0.2042
34310W        W40910  23.833   6.374  13.007 -0.2238 -0.2992 -0.3021
34311W        W40911  21.662   1.050  27.589  0.1669 -0.0081 -0.0270
34312W        W40912   6.490   2.979   5.396  0.0680  0.1449 -0.0553
34313W        W40913  19.185   3.069  15.493 -0.3859 -0.0048 -0.2027
34314W        W40914  13.917   4.526  30.889 -0.0158  0.0224  0.2267
34315W        W40915  17.694   6.224  12.845 -0.3762 -0.2195  0.0527
34316W        W40916  23.086   0.311  30.168 -0.1190  0.0127 -0.2029
34317W        W40917  16.323   2.104   8.753 -0.1023 -0.0590  0.1395
34318W        W40918   1.153   0.623  25.391 -0.1975 -0.0149 -0.3177
34319W        W40919  11.458   3.511  31.640 -0.0899 -0.1090 -0.1396
34320W        W40920   5.081   1.195  13.713  0.0601  0.5523 -0.3567
34321W        W40921   9.160   4.079   6.164  0.0229  0.0732  0.2283
34322W        W40922  21.552   0.206  15.451 -0.1020 -0.1668 -0.0535
34323W        W40923  12.581   5.515  31.899  0.3133  0.2223  0.0891
34324W        W40924  16.074   1.127  26.290  0.2017  0.1678  0.0329
34325W        W40925  11.359   1.885   9.871  0.1695 -0.0374  0.0944
34326W        W40926   4.288   5.943  28.963  0.0761 -0.2944  0.1569
34327W        W40927  15.640   2.133   7.835  0.0267  0.3260 -0.1103
34328W        W40928  22.198   2.685  27.121  0.3171 -0.1162 -0.2827
34329W        W40929  19.217   4.269   3.541  0.1031  0.0147  0.0864
34330W        W40930  26.387   0.677   1.194  0.1982 -0.0528  0.2522
34331W        W40931   6.030   0.533  11.365 -0.1294  0.1971 -0.2517
34332W        W40932  14.952   3.764   0.009 -0.0594  0.1737 -0.2104
34333W        W40933  18.813   3.085   3.200 -0.0341  0.0645  0.2567
34334W        W40934  22.662   0.143  29.831 -0.0795 -0.3762  0.0488
34335W        W40935   4.814   1.003   5.945  0.0536 -0.2100 -0.1373
34336W        W40936  13.169   5.883  26.203 -0.1316  0.1517  0.0481
34337W        W40937  13.229   5.978  35.895 -0.0374 -0.1414  0.2261
34338W        W40938  23.119   3.356  33.454  0.1598  0.0857 -0.0005
34339W        W40939   0.408   1.133   1.898 -0.0330  0.2602  0.1737
34340W        W40940  25.462   0.480   5.186  0.0160 -0.3432 -0.2689
34341W        W40941  11.509   3.657  10.887 -0.2700 -0.1731  0.0614
34342W        W40942  15.645   2.920  23.993  0.0918  0.0283 -0.3052
34343W        W40943  24.051   3.089   6.565  0.2238  0.0039 -0.0416
34344W        W40944  11.497   5.327  10.462 -0.0382  0.0436 -0.0201
34345W        W40945  16.278   1.951  32.496  0.2246  0.1329  0.0706
34346W        W40946   2.924   1.478   3.647 -0.0249 -0.1252 -0.1407
34347W        W40947   0.369   0.552  14.263  0.2464 -0.0856  0.0573
34348W        W40948  17.608   3.961  21.638  0.1116 -0.2450  0.0991
34349W        W40949   9.825   5.986   5.560  0.1154  0.1467 -0.3397
34350W        W40950   8.505   1.260  23.673  0.2326 -0.2216 -0.3040
34351W        W40951   6.077   0.586  33.672 -0.0010 -0.1641 -0.2690
34352W        W40952  22.571   2.181   6.795  0.0932 -0.0449 -0.0013
34353W        W40953  19.581   5.719  29.897 -0.0106 -0.0691 -0.1961
34354W        W40954   0.256   5.142   2.280 -0.1462 -0.2501 -0.1216
34355W        W40955   7.744   1.315  28.340  0.2884  0.1612 -0.1339
34356W        W40956  23.956   3.016  35.740 -0.0740  0.0690 -0.5907
34357W        W40957  19.999   4.699  30.396 -0.0732 -0.0539 -0.2123
34358W        W40958   8.424   2.239  25.406  0.1669 -0.0535  0.2217
34359W        W40959  23.121   2.200   7.499  0.0372 -0.0174 -0.0775
34360W        W40960   4.492   6.193  13.154  0.0990 -0.2092  0.0442
34361W        W40961  13.829   0.599  31.579 -0.1086 -0.2650  0.0293
34362W        W40962   4.475   2.639  20.703 -0.0136  0.0287  0.4534
34363W        W40963  25.581   0.948  13.975  0.2538 -0.1549  0.1872
34364W        W40964  18.652   4.337  24.284  0.2882  0.0028 -0.1088
34365W        W40965  12.429   2.582  29.093 -0.1446 -0.0134 -0.1730
34366W        W40966   3.238   2.678   7.005 -0.0406  0.2399 -0.2555
34367W        W40967  12.559   2.144   3.726  0.2634  0.2430  0.0225
34368W        W40968  12.881   6.158  25.625  0.2452 -0.0942 -0.2170
34369W        W40969  16.222   6.513   2.158  0.1177  0.1323 -0.2671
34370W        W40970  14.377   6.185  30.446 -0.3564  0.3145  0.0230
34371W        W40971  18.217   2.464  11.183  0.3402  0.0374 -0.0869
34372W        W40972  26.388   0.242   6.238  0.0281  0.1878  0.2414
34373W        W40973  24.910   1.880  31.380 -0.0193  0.0330 -0.1874
34374W        W40974  20.554   0.095  14.818 -0.0340 -0.2893 -0.1581
34375W        W40975   5.714   6.169   9.684 -0.0173  0.1820  0.2203
34376W        W40976  26.189   3.078   0.066  0.0815 -0.1934 -0.0075
34377W        W40977  21.342   2.567  31.641 -0.1919 -0.1820  0.0984
34378W        W40978  15.728   1.729  21.175  0.2669 -0.1858  0.0467
34379W        W40979  12.557   0.397  26.464  0.0395 -0.1112 -0.0101
34380W        W40980   2.614   5.185  30.212 -0.1840 -0.1954 -0.2117
34381W        W40981   4.021   6.598   8.658 -0.2177 -0.1323 -0.0506
34382W        W40982   4.111   0.154  30.030  0.1555  0.0246 -0.2277
34383W        W40983  20.464   4.769  23.460  0.0600 -0.1564  0.1392
34384W        W40984   9.095   4.246  13.288 -0.1711 -0.1897 -0.1312
34385W        W40985   0.198   2.590   1.541 -0.1461  0.1573 -0.0533
34386W        W40986   2.819   6.096   5.833  0.1463  0.1521  0.0840
34387W        W40987  25.855   5.106  11.816 -0.3311  0.0506 -0.3716
34388W        W40988   4.315   5.847   0.501 -0.0923  0.1588  0.1958
34389W        W40989   9.325   0.326  29.303  0.2514  0.2341 -0.1359
34390W        W40990  21.854   0.241   4.496  0.1562  0.0454  0.1828
34391W        W40991  13.745   5.629  34.540  0.0901 -0.1749  0.0123
34392W        W40992  26.154   3.499  23.711 -0.1739  0.0220  0.1278
34393W        W40993  25.362   3.819  28.540  0.4186 -0.3712  0.0809
34394W        W40994  10.942   1.167  32.769 -0.0168  0.0183 -0.1693
34395W        W40995  20.950   0.609  35.629  0.1146 -0.1075  0.3682
34396W        W40996  24.685   4.677  21.513  0.0860 -0.0753 -0.0907
34397W        W40997   0.680   0.729  27.861 -0.2354 -0.1970 -0.2518
34398W        W40998  12.109   5.682  12.401 -0.0280 -0.0465  0.1174
34399W        W40999  17.504   0.225   6.150 -0.0822  0.4968 -0.0894
34400W        W41000   3.267   2.214  23.500 -0.0803 -0.0617 -0.0251
34401W        W41001   6.100   5.431  28.447 -0.0571 -0.1035 -0.1414
34402W        W41002  11.515   4.655  29.328 -0.0693 -0.1283  0.0441
34403W        W41003   8.359   3.734  14.591 -0.0579 -0.2035  0.0914
34404W        W41004  19.843   2.908  15.059  0.0487 -0.0119 -0.2329
34405W        W41005  19.807   5.404  25.244 -0.0119  0.1665  0.3875
34406W        W41006   3.967   4.260  34.394  0.1520 -0.1394  0.2655
34407W        W41007  19.168   0.354  28.598  0.0437 -0.1036  0.2704
34408W        W41008  11.657   0.014  23.828  0.0826 -0.1601 -0.0063
34409W        W41009   6.068   5.884  10.676 -0.1331  0.3058  0.2083
34410W        W41010  21.084   0.512  33.337  0.1531 -0.0302  0.0047
34411W        W41011  25.599   6.564   5.234  0.0656 -0.0553  0.0618
34412W        W41012   6.855   2.308  10.163  0.3013 -0.0381 -0.2528
34413W        W41013   4.589   0.188   8.510 -0.2362 -0.1038  0.1965
34414W        W41014   2.302   5.264  30.652  0.0309  0.1552  0.0477
34415W        W41015  17.877   2.123  14.088 -0.0113  0.0371  0.1145
34416W        W41016   1.811   5.416   2.384 -0.0419 -0.0578 -0.1760
34417W        W41017   7.380   1.726   2.571 -0.2063 -0.2264 -0.1973
34418W        W41018  16.374   0.819   3.128  0.1049  0.0869 -0.0968
34419W        W41019  14.758   6.412  28.010  0.1309 -0.1169 -0.1195
34420W        W41020  12.614   3.348  11.917  0.0932 -0.3154 -0.0488
34421W        W41021   3.383   4.875  12.228 -0.0704  0.1777  0.1574
34422W        W41022  25.882   4.556  23.397 -0.0540  0.2997 -0.0716
34423W        W41023  15.519   4.961   2.617 -0.1050 -0.1206 -0.0050
34424W        W41024   9.363   6.400  15.242  0.1215 -0.0000  0.2003
34425W        W41025  14.763   4.066  28.088 -0.0234 -0.1971  0.1303
34426W        W41026  15.634   3.004  22.654 -0.5475 -0.2282  0.2374
34427W        W41027   3.926   5.769  32.410  0.1716  0.2270 -0.1049
34428W        W41028  22.886   4.706   8.641  0.0222  0.0854 -0.0872
34429W        W41029  22.634   0.098  20.465  0.1194 -0.2430  0.0642
34430W        W41030  26.400   0.170  28.134  0.4475  0.1139  0.0197
34431W        W41031   5.383   3.520  30.379 -0.0488 -0.1798  0.3361
34432W        W41032  14.528   3.147  25.639  0.1298  0.0511  0.1450
34433W        W41033  25.313   5.147  21.964 -0.2612 -0.1487 -0.0708
34434W        W41034  11.295   0.758  13.569  0.0219 -0.1128 -0.2229
34435W        W41035  18.014   2.104   0.896  0.0346  0.0822 -0.1534
34436W        W41036  23.925   3.531  12.420 -0.0861  0.1152  0.1645
34437W        W41037  22.412   6.604  28.517 -0.0228  0.1619 -0.2234
34438W        W41038  17.347   5.264  14.311 -0.0741 -0.3301  0.0463
34439W        W41039  15.701   2.514  24.374  0.0128  0.0180  0.3138
34440W        W41040   3.892   1.656  21.541  0.1151 -0.2701 -0.0305
34441W        W41041   9.897   1.808  13.770 -0.1886 -0.0169 -0.0813
34442W        W41042   5.842   6.242  31.069  0.1161  0.0271  0.0383
34443W        W41043  20.773   6.305   7.746 -0.1629 -0.0580 -0.0366
34444W        W41044   1.792   4.448  32.335  0.0976  0.1065 -0.2858
34445W        W41045  23.142   6.469  34.354 -0.1373  0.0353 -0.0023
34446W        W41046   0.373   0.352  32.473 -0.0876 -0.2227  0.0044
34447W        W41047  17.498   2.345  29.795 -0.1423  0.1394 -0.0498
34448W        W41048   1.683   2.091  35.536 -0.0864  0.1172  0.0441
34449W        W41049  23.673   5.141  21.296  0.0930  0.2042 -0.1480
34450W        W41050   0.860   2.665  11.533  0.0797 -0.2312  0.1013
34451W        W41051  12.655   0.693  30.266  0.0524  0.1050  0.0696
34452W        W41052   7.399   0.848  26.135  0.2183 -0.2687 -0.0793
34453W        W41053  11.087   1.455   5.078  0.2323  0.1761 -0.0973
34454W        W41054   4.962   4.831  10.807 -0.2726 -0.1761  0.1274
34455W        W41055  10.151   5.249  26.645  0.1521 -0.1069  0.2208
34456W        W41056   8.007   0.987  32.687  0.5351  0.0522 -0.0300
34457W        W41057  18.852   5.321  34.479  0.0888  0.3736  0.0811
34458W        W41058  24.932   6.023   7.754 -0.1250  0.0651  0.1193
34459W        W41059  25.789   4.112  15.123  0.2535 -0.0204  0.0174
34460W        W41060   0.811   0.573   7.993  0.0714 -0.0557  0.2727
34461W        W41061  17.438   5.546   6.967 -0.0720  0.0675 -0.2262
34462W        W41062  18.555   6.524  27.824 -0.1863 -0.1885 -0.1787
34463W        W41063   0.732   2.698   9.524  0.1627  0.1671 -0.1036
34464W        W41064   2.680   2.847  15.041  0.2725  0.1345 -0.0441
34465W        W41065  26.022   6.595   6.453  0.1368  0.0581 -0.2770
34466W        W41066  10.659   4.965   8.113  0.1589  0.1577 -0.0168
34467W        W41067  14.979   3.796   8.632 -0.1175  0.1876 -0.1894
34468W        W41068  11.853   4.611  12.805  0.1640 -0.0888 -0.3307
34469W        W41069  22.378   4.350  25.926 -0.4149 -0.0879  0.0944
34470W        W41070  20.016   0.639   1.973 -0.1928  0.2590  0.3936
34471W        W41071   7.741   5.991  26.236 -0.1054 -0.1328  0.2108
34472W        W41072   7.043   3.308   8.387 -0.1953  0.0739 -0.1429
34473W        W41073  18.548   3.020  22.234  0.0495 -0.1912  0.1149
34474W        W41074   5.623   0.978  29.536  0.0646 -0.1750 -0.0357
34475W        W41075   6.785   6.477  16.164  0.2700  0.3886 -0.1101
34476W        W41076   2.148   2.607  23.052 -0.1352  0.2357  0.1005
34477W        W41077  13.042   1.217  26.619 -0.1305 -0.1600 -0.1490
34478W        W41078  25.840   4.064   5.800 -0.1082  0.2002  0.0855
34479W        W41079   3.139   1.335  10.719 -0.2650 -0.3965  0.0449
34480W        W41080   8.786   3.512  25.129  0.2518  0.2481 -0.0118
34481W        W41081   1.095   4.276  27.696  0.1667  0.5031 -0.3009
34482W        W41082   6.597   6.276   5.353 -0.0536 -0.2106 -0.2560
34483W        W41083   8.033   6.022  31.430 -0.0391  0.2295  0.1101
34484W        W41084   5.107   0.555   7.802  0.1795  0.4820  0.0967
34485W        W41085   3.490   1.639  29.295 -0.1286  0.2140  0.0128
34486W        W41086  15.624   6.303  35.379 -0.3233 -0.3376 -0.1776
34487W        W41087   7.185   1.936   3.416 -0.0453  0.0312 -0.1800
34488W        W41088  21.465   1.578   1.229 -0.3655  0.3264  0.2878
34489W        W41089   5.716   5.879   2.433 -0.1901  0.0782  0.0546
34490W        W41090  22.017   4.367  12.838  0.0759  0.1415  0.0023
34491W        W41091   7.050   2.776  27.213  0.0232  0.2168  0.1718
34492W        W41092  11.079   1.347   2.570 -0.0276  0.0123 -0.1021
34493W        W41093  25.789   3.083  35.961  0.0130 -0.2897 -0.1268
34494W        W41094  16.887   4.216  34.685  0.0682 -0.3472 -0.1431
34495W        W41095  10.690   4.470  28.285  0.1537 -0.0692 -0.2435
34496W        W41096  11.772   5.923  32.237 -0.0203 -0.0137 -0.2287
34497W        W41097  19.384   2.141  26.693  0.1637  0.2012  0.0102
34498W        W41098  14.489   3.475  27.785 -0.1890  0.2078  0.2045
34499W        W41099   9.658   2.489  30.164 -0.0563 -0.2140 -0.0083
34500W        W41100   8.560   1.740  31.855  0.2248  0.0211 -0.2042
34501W        W41101  11.729   6.568  29.072 -0.1434 -0.3837 -0.3314
34502W        W41102   4.952   1.428  11.870 -0.1199  0.1206  0.0533
34503W        W41103  22.024   5.905  12.844 -0.1836  0.0261 -0.0463
34504W        W41104   5.252   5.121  30.466 -0.1893 -0.0404  0.0304
34505W        W41105  22.709   0.724  28.850 -0.3282  0.2427 -0.1875
34506W        W41106  16.377   0.736  28.130 -0.0876  0.2771  0.2349
34507W        W41107   0.855   3.683   5.499 -0.2238  0.1668  0.2784
34508W        W41108   3.779   4.422  10.389 -0.1780  0.1306  0.0863
34509W        W41109  16.461   0.563  12.503  0.1936 -0.0213  0.2442
34510W        W41110   7.914   5.752   5.816  0.0660  0.1394  0.0847
34511W        W41111  14.228   2.080   1.520  0.0006 -0.1153 -0.0912
34512W        W41112   9.435   2.475  24.023 -0.1569  0.1102 -0.1881
34513W        W41113  15.554   2.690  31.561 -0.0415 -0.0073 -0.2542
34514W        W41114   5.750   4.485   8.887 -0.1143 -0.0969  0.0631
34515W        W41115   3.589   5.615  34.761  0.3433  0.0349  0.0178
34516W        W41116  19.406   5.204  13.398  0.2922 -0.2013 -0.1325
34517W        W41117  20.738   1.311  29.474 -0.0410 -0.2154  0.2794
34518W        W41118   1.756   0.333   1.249 -0.1526 -0.2383 -0.1735
34519W        W41119  17.163   3.405  10.907 -0.1049 -0.1997  0.2073
34520W        W41120  22.956   5.035   2.296  0.1817 -0.0227 -0.0076
34521W        W41121  26.007   1.618   3.550 -0.0977  0.0798 -0.1115
34522W        W41122   0.088   4.537  33.155  0.2338 -0.1485  0.1875
34523W        W41123  25.984   3.436  24.304  0.0412  0.0866  0.1069
34524W        W41124  13.009   1.994  27.823 -0.2485  0.2907 -0.1636
34525W        W41125  11.760   4.824  33.298  0.2629  0.3698  0.1374
34526W        W41126   5.341   5.700   1.432 -0.0364 -0.2386 -0.3656
34527W        W41127  23.222   3.434   1.847  0.0489 -0.2700  0.2181
34528W        W41128   5.803   0.019  12.723 -0.1319  0.0222  0.1171
34529W        W41129  24.578   3.587  31.975  0.2140 -0.6114  0.2681
34530W        W41130  25.453   3.284  22.262  0.1868 -0.1761 -0.1143
34531W        W41131  21.131   0.517  15.653  0.2170  0.0661 -0.2083
34532W        W41132  15.379   4.297  13.755 -0.0480  0.3528  0.0890
34533W        W41133   6.611   2.631  28.539  0.2492  0.0071 -0.3320
34534W        W41134   7.905   5.287   5.603 -0.0565 -0.0873 -0.0436
34535W        W41135  25.028   3.344  29.137 -0.3034 -0.0684 -0.0929
34536W        W41136   7.100   5.118   9.267  0.0281  0.0837 -0.0585
34537W        W41137  14.602   3.430   9.542  0.0376 -0.3108 -0.0355
34538W        W41138  17.441   2.598  13.865  0.0165  0.1634  0.0885
34539W        W41139  18.550   0.915  11.532 -0.0020 -0.0042 -0.0232
34540W        W41140  21.917   3.520   9.461 -0.1808 -0.1742  0.0423
34541W        W41141  20.165   4.463   0.230  0.1341 -0.2064 -0.2387
34542W        W41142   1.879   0.629  26.533 -0.2834  0.0100  0.1215
34543W        W41143   8.817   4.491  14.109 -0.2351  0.4174  0.0921
34544W        W41144  25.442   4.552  29.232  0.2985 -0.1358  0.0843
34545W        W41145  13.542   1.546  31.399 -0.0853  0.2364 -0.2292
34546W        W41146   4.061   1.583  25.683  0.0670 -0.1137 -0.0226
34547W        W41147  12.299   1.507   9.588 -0.0485  0.3972  0.0143
34548W        W41148   5.254   2.094   8.669 -0.1649  0.0353 -0.1418
34549W        W41149  20.719   6.538  13.356 -0.0336 -0.1005 -0.1639
34550W        W41150  22.347   2.740  14.271 -0.2587 -0.0319 -0.2057
34551W        W41151   4.393   0.111   3.569 -0.0406 -0.0351  0.4069
34552W        W41152   8.154   2.229  20.981  0.0807 -0.4597  0.2035
34553W        W41153  13.045   1.540  10.539 -0.1861 -0.2490  0.0905
34554W        W41154  13.475   0.984  27.905  0.1435  0.0635 -0.1812
34555W        W41155  20.198   3.619  34.276 -0.0831 -0.2281 -0.0472
34556W        W41156  26.009   3.771   1.283  0.2766 -0.1329  0.1197
34557W        W41157  22.418   5.815  13.469  0.0238 -0.0790  0.2876
34558W        W41158  21.532   1.436  30.333 -0.1359  0.0136 -0.0123
34559W        W41159   6.900   0.169   9.019 -0.3008  0.0750  0.0620
34560W        W41160  20.880   2.260   2.033 -0.2672 -0.0053  0.0516
34561W        W41161   4.198   4.327  25.737 -0.2904  0.0447 -0.1041
34562W        W41162  14.191   5.270  22.463 -0.0616 -0.1057 -0.0125
34563W        W41163   0.702   1.748  11.701 -0.0781 -0.0279 -0.3872
34564W        W41164  17.013   5.892   7.129  0.0507 -0.1327 -0.1869
34565W        W41165   7.372   2.517  20.870  0.1213  0.1024 -0.1193
34566W        W41166  16.251   3.307  29.810  0.4317 -0.0466  0.2067
34567W        W41167   8.054   5.824  36.186 -0.1326 -0.0412  0.4119
34568W        W41168   4.705   5.794  33.460 -0.2425  0.1147  0.1912
34569W        W41169   7.182   4.540  33.990 -0.1050  0.2755  0.1791
34570W        W41170  11.413   6.401  34.242 -0.2468 -0.2739 -0.0301
34571W        W41171   1.397   1.444  25.087 -0.1063 -0.0442 -0.1858
34572W        W41172   5.301   6.569  34.567 -0.2575  0.0801 -0.3076
34573W        W41173  25.830   4.313   7.290  0.0229  0.2255 -0.2832
34574W        W41174  20.213   5.662  32.628 -0.1576 -0.0216 -0.2834
34575W        W41175  17.800   5.585   0.626  0.0004  0.0150  0.0750
34576W        W41176  26.402   5.957   8.850  0.1128  0.4777 -0.3265
34577W        W41177  13.409   2.103  36.069 -0.2760  0.0941 -0.2443
34578W        W41178  18.753   5.469   0.224  0.1323 -0.0220 -0.3007
34579W        W41179  12.963   2.783  35.961 -0.0498 -0.0817 -0.2747
34580W        W41180  25.556   1.373  19.702  0.0181 -0.0154 -0.0652
34581W        W41181  24.005   2.601  34.589 -0.2445 -0.4956 -0.1566
34582W        W41182  12.373   2.574   7.885  0.1958 -0.0338 -0.1962
34583W        W41183  12.861   4.421  11.329 -0.3230  0.0415  0.0741
34584W        W41184   4.659   2.567   7.579 -0.1561  0.1316 -0.0202
34585W        W41185   2.303   2.112  14.637  0.0420  0.3953 -0.2975
34586W        W41186  22.368   0.351   3.525  0.0316 -0.3805  0.0416
34587W        W41187  20.482   4.428  23.830  0.1546  0.0382 -0.0573
34588W        W41188  16.673   2.733  25.370  0.1353 -0.1405  0.1063
34589W        W41189   6.238   2.686   7.982 -0.3682  0.0597  0.1582
34590W        W41190   1.876   4.225   7.175 -0.2257 -0.1268 -0.1578
34591W        W41191  13.009   4.719  10.946 -0.0100 -0.0020 -0.3741
34592W        W41192  18.551   2.774  15.144  0.3114 -0.1840  0.1728
34593W        W41193  14.095   3.030  30.867 -0.2749  0.0226 -0.3317
34594W        W41194  20.014   0.734   9.532  0.1207  0.1591 -0.0307
34595W        W41195   2.854   6.328  12.843 -0.2810  0.1172  0.1657
34596W        W41196   0.918   0.630   1.742 -0.2913  0.1653  0.0621
34597W        W41197  23.473   0.987  22.476 -0.1943 -0.0878  0.0380
34598W        W41198  17.227   3.213  10.452  0.3866 -0.1157 -0.1076
34599W        W41199   7.989   4.830  20.862 -0.2380  0.0730  0.1006
34600W        W41200  15.989   2.195   9.765  0.1141  0.1586 -0.1517
34601W        W41201  23.248   5.590   4.445  0.1208  0.0219  0.0723
34602W        W41202  16.033   4.416  23.124  0.1634  0.1455  0.2111
34603W        W41203  24.912   5.537  22.764 -0.0240  0.3278  0.0821
34604W        W41204   8.192   2.728   8.785  0.0401 -0.1488  0.1909
34605W        W41205  10.863   5.944  25.327  0.0957  0.4479  0.2456
34606W        W41206  16.745   6.206  12.636 -0.0586 -0.2170  0.0877
34607W        W41207  15.847   5.850  10.792 -0.0656  0.0844  0.1464
34608W        W41208  18.196   0.204  13.935 -0.1149  0.3284 -0.0708
34609W        W41209   8.034   2.459  25.673  0.1025  0.0490 -0.1381
34610W        W41210   7.271   2.920  22.014  0.1032 -0.2244  0.0156
34611W        W41211  13.248   1.725  13.064 -0.1136 -0.0534 -0.1976
34612W        W41212  16.184   4.413  25.382 -0.0003 -0.0838  0.2493
34613W        W41213  26.324   5.180  22.840 -0.0603 -0.0687 -0.0633
34614W        W41214  12.621   1.773  36.049  0.2007 -0.0292 -0.2292
34615W        W41215   7.133   2.038   7.231 -0.1639 -0.1860 -0.2611
34616W        W41216   2.530   4.606  20.924 -0.1142  0.0384 -0.1492
34617W        W41217  19.921   3.765   7.575  0.0526 -0.0060  0.1163
34618W        W41218  23.710   2.280  30.655  0.1080  0.0008  0.1857
34619W        W41219  20.778   0.143  30.757 -0.0271  0.0576 -0.3190
34620W        W41220  16.755   3.050  33.249  0.2872 -0.3585 -0.2596
34621W        W41221  20.644   1.915   0.747  0.1495 -0.3101  0.0092
34622W        W41222   6.971   2.658  33.676  0.1495 -0.2598 -0.0051
34623W        W41223   5.218   4.742  27.198  0.3202 -0.0934 -0.0992
34624W        W41224  20.260   4.791  32.492  0.0709 -0.0078  0.1782
34625W        W41225  19.306   2.086  26.192  0.1216 -0.1431 -0.1646
34626W        W41226  10.481   5.420   8.341 -0.0972  0.3592 -0.2559
34627W        W41227   8.022   3.720  33.338 -0.1250  0.1010 -0.1532
34628W        W41228   7.226   1.126   9.960  0.0984 -0.0266  0.0234
34629W        W41229  10.060   5.347  27.646  0.0501 -0.1254  0.1465
34630W        W41230   5.979   1.764  20.687  0.0421 -0.0302  0.0322
34631W        W41231  25.920   0.320  24.331  0.2368  0.0179 -0.0808
34632W        W41232  14.600   0.713  24.379 -0.2467 -0.0775  0.2084
34633W        W41233  17.299   4.668  23.938 -0.1065  0.1062 -0.1371
34634W        W41234   9.760   5.969   1.233 -0.0532  0.0594  0.1546
34635W        W41235   5.707   5.066  11.112  0.1602  0.0098  0.2761
34636W        W41236  23.759   1.955  30.297  0.0474  0.0800 -0.2503
34637W        W41237  25.909   4.671  29.351  0.2608 -0.1140 -0.1999
34638W        W41238   6.485   0.052   9.280  0.1652 -0.2461 -0.1596
34639W        W41239  22.075   6.102   7.553 -0.2022  0.1217 -0.0044
34640W        W41240  10.820   4.876  33.966  0.3049 -0.0801  0.0343
34641W        W41241   6.679   5.341  13.795  0.1333  0.1716  0.0314
34642W        W41242  22.049   5.082  13.400 -0.1685 -0.1424 -0.1632
34643W        W41243   0.449   6.140  36.005 -0.1514  0.1617  0.0446
34644W        W41244  12.177   1.708  34.673  0.0652 -0.0132 -0.0495
34645W        W41245   6.328   5.671  34.813  0.0318 -0.0453 -0.0061
34646W        W41246   9.791   6.361  11.864  0.0207  0.1802 -0.0089
34647W        W41247   1.043   1.263   7.175 -0.0402  0.2103  0.2459
34648W        W41248   6.242   0.804  35.437  0.2003 -0.1656 -0.1912
34649W        W41249   5.989   1.316   3.308  0.0419 -0.2778  0.1220
34650W        W41250  20.304   5.541  32.085  0.2392 -0.0010 -0.0296
34651W        W41251  12.408   3.647  24.852  0.1332 -0.0442  0.1397
34652W        W41252  23.722   1.774  25.262 -0.0037 -0.0669 -0.0979
34653W        W41253  22.982   6.228  29.582  0.3381  0.2623 -0.1382
34654W        W41254  18.279   1.235  21.208 -0.3510  0.5687  0.4800
34655W        W41255  21.347   5.850  25.615  0.1802 -0.1278 -0.0433
34656W        W41256   1.355   4.436   9.493 -0.0761 -0.2720  0.0270
34657W        W41257   4.864   0.163   9.875 -0.1081 -0.0589 -0.0561
34658W        W41258  20.542   3.099   3.664 -0.1781 -0.1243  0.1812
34659W        W41259   6.701   1.661  36.067  0.0057 -0.0469  0.3126
34660W        W41260   3.022   1.003   9.048 -0.1295 -0.1212 -0.0392
34661W        W41261  11.646   2.533  21.438 -0.0129  0.1777  0.0868
34662W        W41262  14.606   5.064   0.708  0.0740 -0.1218 -0.1422
34663W        W41263  16.174   4.410  33.443 -0.2453 -0.0491  0.2246
34664W        W41264   9.768   2.145  13.031 -0.1116 -0.2246  0.1660
34665W        W41265   1.089   2.404  12.969  0.1341 -0.0959 -0.0998
34666W        W41266  23.246   1.445  10.565 -0.1720  0.1356  0.2219
34667W        W41267  15.093   5.281  11.674 -0.1947  0.0940 -0.0247
34668W        W41268   8.326   4.392  32.871  0.0726 -0.0156 -0.0438
34669W        W41269   2.435   5.663  32.537  0.0788 -0.1148 -0.0666
34670W        W41270  19.717   4.215   7.287 -0.0021 -0.1808  0.1298
34671W        W41271  23.149   6.574  23.721  0.0895 -0.0044  0.2113
34672W        W41272   0.002   3.127  31.893  0.5207 -0.0443  0.1806
34673W        W41273   4.531   1.456   1.609 -0.0719  0.0888  0.4021
34674W        W41274  15.348   5.333  35.114 -0.0716 -0.4552  0.2295
34675W        W41275   0.966   5.807  30.704  0.0268  0.0441 -0.0710
34676W        W41276  20.868   4.311   1.609  0.0630  0.2826 -0.0826
34677W        W41277  24.807   1.232  26.839 -0.1201  0.3911 -0.0695
34678W        W41278   8.426   0.671  22.507  0.3092 -0.0921  0.3198
34679W        W41279   2.515   0.299   9.038  0.0625  0.1177 -0.2332
34680W        W41280  13.968   2.216   2.392  0.0372  0.1452 -0.1465
34681W        W41281  16.990   5.665  14.807  0.1584 -0.0061 -0.2577
34682W        W41282   6.206   5.039   2.176 -0.0223 -0.2387 -0.0682
34683W        W41283  10.210   5.147   5.588 -0.2421 -0.4897  0.0524
34684W        W41284  10.304   1.566  25.251 -0.0260  0.2058  0.1965
34685W        W41285   6.330   2.052  21.183 -0.1255  0.0443  0.1517
34686W        W41286  15.426   3.875  10.388  0.2656 -0.1682  0.0826
34687W        W41287   9.784   6.177  31.152 -0.0261  0.2783 -0.0744
34688W        W41288  13.299   3.660  29.412  0.2410 -0.0312 -0.1977
34689W        W41289  14.319   4.328  14.312 -0.1153 -0.1954  0.2664
34690W        W41290   1.712   0.978  29.154  0.1006 -0.4708 -0.0930
34691W        W41291   2.637   5.766   3.640  0.1328  0.0485  0.1954
34692W        W41292  12.055   1.268   6.988  0.1422  0.0992 -0.0715
34693W        W41293   4.775   6.173  12.385  0.0545  0.0205  0.0979
34694W        W41294   3.458   2.880   4.335 -0.0737 -0.2583  0.0741
34695W        W41295   0.299   5.145  23.353  0.2234  0.0772 -0.0637
34696W        W41296   4.723   5.861   2.462  0.1384  0.0716  0.2077
34697W        W41297   2.581   0.923   0.952 -0.0077 -0.0167 -0.0089
34698W        W41298  16.413   0.765   5.978 -0.0756  0.4396 -0.1053
34699W        W41299  24.408   4.541   6.791 -0.0307 -0.0131  0.0842
34700W        W41300   5.629   2.464   6.088 -0.2030  0.4499  0.2020
34701W        W41301  18.542   4.274  28.615 -0.1119 -0.0275 -0.1135
34702W        W41302   3.330   3.856   3.017 -0.0895 -0.2429  0.2436
34703W        W41303   5.966   3.382  10.490 -0.1491 -0.0419  0.0714
34704W        W41304   2.082   5.832  22.525 -0.2719 -0.1058  0.0539
34705W        W41305   2.650   1.735  31.311  0.1774  0.0620  0.1453
34706W        W41306  20.557   1.287  31.575 -0.0135  0.2368  0.0041
34707W        W41307   3.044   1.962  21.024  0.1529 -0.0584  0.1330
34708W        W41308  13.950   5.213  11.555 -0.0125 -0.0568  0.0365
34709W        W41309  10.835   2.366  28.015 -0.0155 -0.1040 -0.1058
34710W        W41310   1.477   2.983  11.737 -0.0880 -0.1546  0.3043
34711W        W41311   9.137   6.330  12.413  0.3309 -0.0403 -0.0032
34712W        W41312  17.429   6.514  27.489 -0.1624  0.3366  0.1447
34713W        W41313  11.756   0.984  23.981 -0.0281  0.0863 -0.2448
34714W        W41314  12.659   0.397  11.126  0.0799  0.1682 -0.1735
34715W        W41315   0.045   0.638  21.795  0.0074 -0.2925  0.0022
34716W        W41316  24.940   0.509   9.280  0.0221 -0.2813 -0.1354
34717W        W41317  22.158   5.797  25.375  0.0945  0.2279  0.2176
34718W        W41318  20.524   0.826  32.132  0.1215 -0.1154 -0.0052
34719W        W41319   8.064   3.441  15.455 -0.1576 -0.2685 -0.4568
34720W        W41320  18.426   0.505  30.666  0.3296 -0.3995  0.1627
34721W        W41321   0.379   3.467  34.284  0.0496  0.0551 -0.4502
34722W        W41322  10.138   2.365   3.099 -0.1653 -0.3286  0.2341
34723W        W41323   6.677   2.675  30.615  0.1276  0.0573  0.1966
34724W        W41324  22.362   4.393  31.861  0.2674 -0.2511 -0.1544
34725W        W41325  17.294   5.948   3.530  0.0230  0.1050 -0.0950
34726W        W41326  13.259   0.757  13.908  0.0834 -0.0508  0.0067
34727W        W41327  20.631   5.465  14.326  0.2436  0.0252 -0.0789
34728W        W41328  19.998   0.712   4.294  0.0970  0.1073  0.1371
34729W        W41329   7.223   1.576  30.668 -0.3873  0.1651  0.1512
34730W        W41330   1.855   4.524  10.907  0.1036 -0.0163  0.4223
34731W        W41331  25.314   3.641  23.242 -0.1781 -0.2098 -0.3704
34732W        W41332   7.718   3.747  25.171 -0.2700  0.1634 -0.1278
34733W        W41333  15.461   6.484   5.067 -0.2330 -0.2436 -0.0836
34734W        W41334   7.678   1.308  15.697  0.0403 -0.0554  0.0147
34735W        W41335   4.936   6.550  12.130 -0.0430 -0.2729  0.3310
34736W        W41336   8.294   3.426  34.485 -0.2740  0.2030  0.0178
34737W        W41337  24.814   1.557  13.272  0.2836 -0.1033 -0.3164
34738W        W41338  19.442   2.023   3.731  0.3780  0.1543  0.0087
34739W        W41339  11.151   3.960  10.831  0.0280 -0.0232 -0.0762
34740W        W41340  18.947   3.835  26.328 -0.1653 -0.0380 -0.1402
34741W        W41341  13.756   5.689   9.818 -0.2597 -0.1807 -0.1993
34742W        W41342  19.424   0.430  21.623  0.0029 -0.0061 -0.1572
34743W        W41343  15.892   4.068  25.553  0.0118  0.0768 -0.3377
34744W        W41344  16.745   1.491   4.104  0.3722  0.1564  0.0370
34745W        W41345   6.010   4.748  28.837 -0.1385  0.1386 -0.1625
34746W        W41346   0.516   4.402   0.625  0.2442  0.0936 -0.3650
34747W        W41347   7.651   3.406  20.958  0.0063  0.1983 -0.1661
34748W        W41348   9.419   3.361  35.954 -0.2221 -0.1123 -0.1332
34749W        W41349  13.696   6.120  36.081  0.2871 -0.0117 -0.0556
34750W        W41350  15.109   5.641   1.279 -0.0157  0.1730 -0.3827
34751W        W41351  10.726   2.429  12.898  0.0795  0.0022  0.0750
34752W        W41352  20.467   5.845  11.270 -0.0634 -0.0366 -0.0611
34753W        W41353  14.764   6.248  24.944 -0.1641  0.0570 -0.0747
34754W        W41354  22.599   2.247   1.078  0.0688 -0.0697 -0.2291
34755W        W41355   6.093   0.264  30.323 -0.0428 -0.1922  0.1522
34756W        W41356   2.912   2.597  10.008  0.2053  0.2389  0.0930
34757W        W41357  12.126   3.152   9.871  0.0222 -0.0093  0.3082
34758W        W41358  12.548   4.915  11.830  0.1189 -0.3977  0.0303
34759W        W41359   7.345   1.623   8.846 -0.2106  0.1737 -0.1495
34760W        W41360  15.970   4.932   3.061  0.0122 -0.0497 -0.3301
34761W        W41361  13.594   5.400  24.828 -0.1250 -0.0456  0.1848
34762W        W41362  24.724   1.859  12.849  0.1357 -0.3054 -0.1842
34763W        W41363   0.698   0.110  33.679 -0.1299  0.2937  0.1153
34764W        W41364  18.845   6.323  35.186  0.1091 -0.0708 -0.0938
34765W        W41365  21.069   5.593  14.706  0.2989 -0.0545 -0.1811
34766W        W41366  25.796   1.443   8.609 -0.0677 -0.2738  0.0249
34767W        W41367   1.011   0.228   3.710 -0.2356  0.1615  0.1527
34768W        W41368  18.550   4.656   8.909  0.3616  0.0107 -0.0901
34769W        W41369  26.137   1.861  33.624 -0.0185  0.2344 -0.2138
34770W        W41370   6.605   3.511   6.012 -0.1335 -0.0454 -0.2003
34771W        W41371  18.137   4.395  20.579  0.1322  0.3434 -0.0121
34772W        W41372  19.010   6.171   5.378 -0.1825  0.1731  0.1730
34773W        W41373  12.764   5.452  34.041 -0.1893  0.0669 -0.2377
34774W        W41374   8.429   0.336  30.185 -0.0322 -0.0019 -0.0079
34775W        W41375  12.861   5.041   7.519  0.2259  0.1525 -0.1739
34776W        W41376   1.598   1.628  32.210 -0.0984  0.0521 -0.0287
34777W        W41377  25.264   4.801  32.114  0.3367  0.0234 -0.0527
34778W        W41378  10.943   2.084  30.081  0.0423 -0.2257 -0.0683
34779W        W41379   5.476   3.223   9.549 -0.1389 -0.1108  0.1614
34780W        W41380  20.016   2.606  22.214 -0.0450 -0.2500  0.0974
34781W        W41381  20.959   6.464  29.668 -0.0018  0.3155  0.0193
34782W        W41382  18.013   6.467   3.486  0.2598 -0.2773 -0.0528
34783W        W41383  14.541   1.110   7.477 -0.0366  0.1719 -0.0161
34784W        W41384   9.203   1.051  28.155 -0.2808 -0.1756  0.0219
34785W        W41385  10.907   1.917  10.506  0.0207 -0.0873  0.1766
34786W        W41386   4.469   4.272  29.881  0.0950  0.0939 -0.1489
34787W        W41387   6.160   0.293  13.515  0.0905 -0.4286 -0.0808
34788W        W41388   7.626   0.298  20.892  0.1324 -0.1477  0.2290
34789W        W41389   9.231   3.299  21.776  0.0926 -0.2172 -0.3811
34790W        W41390  12.973   3.239  14.171 -0.0957  0.2694 -0.1649
34791W        W41391   9.299   1.767  32.300  0.0989  0.2557  0.3978
34792W        W41392  25.876   5.558  10.057  0.0888  0.2524  0.5051
34793W        W41393   6.051   4.381  23.396 -0.2694  0.0750 -0.0989
34794W        W41394   8.291   3.291   0.207 -0.2244 -0.1880  0.0569
34795W        W41395   5.572   4.252  15.115  0.0694  0.0258 -0.0935
34796W        W41396  16.043   0.246  29.929 -0.1683 -0.1639  0.1665
34797W        W41397   8.078   5.674   7.839  0.2070 -0.2149 -0.1163
34798W        W41398  12.836   3.925   9.378 -0.2710  0.0217  0.1136
34799W        W41399   5.722   4.556  28.443 -0.0905 -0.1002  0.2344
34800W        W41400  12.819   1.462   7.245 -0.3012 -0.0335 -0.2555
34801W        W41401  15.705   0.324  12.875 -0.0487  0.0561  0.2177
34802W        W41402   4.277   1.718  33.606  0.0878  0.0242  0.0387
34803W        W41403  21.124   4.738   0.881 -0.0340  0.4326  0.0203
34804W        W41404   7.359   0.638   8.490 -0.1635  0.2092  0.2713
34805W        W41405  24.116   2.335  25.775 -0.1397  0.1045  0.1252
34806W        W41406   2.152   1.685  10.936  0.3178  0.2348  0.2726
34807W        W41407  22.402   2.625  24.909 -0.1287  0.0550 -0.0145
34808W        W41408  10.028   4.559  33.889  0.1001 -0.1962 -0.4741
34809W        W41409   2.154   5.163  26.545 -0.1371  0.0299  0.0962
34810W        W41410  20.762   5.857  11.708  0.1801  0.0493  0.3685
34811W        W41411  18.954   5.071  25.560  0.1806  0.1229  0.0909
34812W        W41412  23.308   0.135  27.701 -0.3167  0.0537  0.0581
34813W        W41413   9.890   1.665  35.020 -0.1282  0.3170  0.0866
34814W        W41414  11.934   2.080  28.736  0.2147  0.0379 -0.0365
34815W        W41415   4.684   1.629  34.921 -0.0398 -0.0886  0.2140
34816W        W41416  19.300   1.217   9.380 -0.1697 -0.1212 -0.3548
34817W        W41417   2.941   6.240   0.009 -0.1610  0.0371 -0.1475
34818W        W41418   7.610   5.407   9.074  0.2403  0.1093 -0.1372
34819W        W41419   1.864   5.634  25.350  0.1067 -0.1254  0.0205
34820W        W41420   6.779   5.112  35.850  0.1881  0.1492  0.1804
34821W        W41421   3.944   2.104  23.902  0.0804  0.0499  0.1261
34822W        W41422   1.869   3.422  15.145  0.0274  0.2726 -0.1013
34823W        W41423   3.670   4.288  27.397 -0.1167  0.1817  0.0579
34824W        W41424  24.450   1.701  13.602  0.0491  0.1312  0.0928
34825W        W41425   9.486   6.282   8.744  0.1478 -0.4036 -0.4215
34826W        W41426   1.905   1.240   1.016 -0.0502  0.1642  0.0198
34827W        W41427   3.129   5.612  13.875  0.0242  0.0636  0.0885
34828W        W41428  16.904   1.039   4.260 -0.1578  0.1214  0.0751
34829W        W41429  15.272   2.869   2.200  0.0808 -0.1394  0.0107
34830W        W41430   9.423   2.474  23.521  0.2277 -0.0035  0.0488
34831W        W41431  11.062   0.631   8.440 -0.2499 -0.0579 -0.1988
34832W        W41432  21.054   5.239  12.422  0.0859 -0.0133 -0.3147
34833W        W41433   3.256   6.474  27.216 -0.3048  0.0944 -0.3201
34834W        W41434  19.226   5.143  35.439 -0.2361  0.2889  0.2112
34835W        W41435   5.075   6.306  27.930  0.1832 -0.0460 -0.0140
34836W        W41436   5.017   2.505  23.028  0.0080  0.3045  0.2583
34837W        W41437   0.077   2.869  12.000 -0.5343  0.3469  0.1254
34838W        W41438  20.020   3.339   7.006  0.0069  0.2187 -0.0320
34839W        W41439   3.741   4.322  24.122  0.0826  0.0247  0.0930
34840W        W41440  21.683   2.625   9.884 -0.0918  0.0304  0.0161
34841W        W41441  13.868   4.934  27.642 -0.1169  0.1822  0.1597
34842W        W41442   1.054   3.407   9.212 -0.0048 -0.2347  0.0995
34843W        W41443   7.225   4.650   3.352  0.0792  0.2163 -0.0373
34844W        W41444   1.549   1.142  32.271 -0.1592 -0.3836  0.2983
34845W        W41445  19.985   0.040  22.302  0.1524 -0.0202  0.0486
34846W        W41446   2.053   0.226  30.253 -0.2093 -0.3117 -0.1854
34847W        W41447  21.418   5.240  14.163  0.0348 -0.5680  0.1568
34848W        W41448  20.979   5.345  21.682  0.1468  0.2730  0.2282
34849W        W41449  11.130   5.462  28.822  0.1799  0.1865  0.3911
34850W        W41450   1.862   5.437  13.707  0.1099  0.1832 -0.1784
34851W        W41451  19.265   6.418  23.915 -0.1488 -0.2288  0.3553
34852W        W41452  14.765   3.245  33.676 -0.1394  0.1476 -0.2287
34853W        W41453   2.247   4.706  31.332  0.1498  0.4796  0.1082
34854W        W41454  18.316   5.053  26.971 -0.2870 -0.3024 -0.1436
34855W        W41455  23.089   4.805   3.887 -0.0172 -0.3877  0.2988
34856W        W41456   7.707   4.803  27.508 -0.2101  0.0191 -0.0839
34857W        W41457  17.918   0.829  30.223 -0.2447 -0.0426  0.0959
34858W        W41458   5.980   2.615   7.577 -0.1312  0.3313 -0.0227
34859W        W41459   6.264   4.633  31.939  0.3213  0.0024  0.2248
34860W        W41460  24.090   5.609  29.052 -0.2504 -0.1229 -0.3194
34861W        W41461  11.573   5.855   8.332 -0.2179  0.4358 -0.0705
34862W        W41462  13.366   0.421   4.886 -0.0204 -0.1659 -0.0722
34863W        W41463  24.786   1.871   3.278 -0.0135 -0.1609  0.1535
34864W        W41464   2.369   2.606  35.901 -0.5889 -0.2784  0.1472
34865W        W41465   0.334   1.229   5.445  0.0361  0.2041  0.3897
34866W        W41466  25.253   3.608  10.672 -0.0080  0.1787  0.2888
34867W        W41467  13.082   2.560   0.594 -0.0819 -0.2467 -0.0997
34868W        W41468   8.766   4.031  32.121 -0.0087 -0.1399 -0.1734
34869W        W41469  18.014   1.045   2.557  0.1644  0.0090  0.1726
34870W        W41470  12.264   2.622  23.308  0.0481 -0.0343  0.0649
34871W        W41471  14.381   4.425  20.767 -0.2719 -0.0068 -0.2345
34872W        W41472   9.517   6.003  15.005 -0.1141 -0.2048 -0.1493
34873W        W41473  20.967   1.996   9.591  0.0724  0.0561 -0.1270
34874W        W41474  18.045   1.774   1.731 -0.4054 -0.0195 -0.1107
34875W        W41475  13.953   5.139  13.181 -0.1660 -0.1835  0.2526
34876W        W41476   4.534   1.833  26.833  0.2147 -0.0562 -0.0880
34877W        W41477  13.314   3.226  33.499  0.1416  0.1769  0.3774
34878W        W41478   8.374   4.645  28.180 -0.3262 -0.1517  0.0493
34879W        W41479   1.321   2.882   6.486  0.0327  0.0622  0.1574
34880W        W41480   7.772   4.597  32.648 -0.1389  0.2437  0.4607
34881W        W41481  16.648   4.165  27.871 -0.0856  0.1334  0.1328
34882W        W41482   9.945   0.606  14.883  0.0348  0.0562 -0.0327
34883W        W41483  15.938   4.456  35.074  0.3397 -0.0873  0.0730
34884W        W41484  16.178   5.763   7.448  0.1473  0.1357 -0.1897
34885W        W41485  10.872   1.427  26.158 -0.1473 -0.0486 -0.2347
34886W        W41486  14.327   6.439  25.087  0.4975 -0.0355 -0.2969
34887W        W41487  13.866   6.129   8.251 -0.0417  0.1004 -0.3404
34888W        W41488  25.933   2.469  34.781  0.3141  0.1624 -0.1256
34889W        W41489  22.455   0.152   3.993 -0.2891 -0.3317 -0.1231
34890W        W41490  20.499   5.324   1.784 -0.0198 -0.0325  0.0981
34891W        W41491   1.431   0.418  11.128  0.5162  0.2157  0.3644
34892W        W41492   9.813   3.331  31.235  0.0161  0.0684  0.1972
34893W        W41493  21.484   2.485   9.324  0.2003 -0.1820 -0.0792
34894W        W41494   6.641   0.053  29.215  0.0970 -0.2348  0.1173
34895W        W41495  18.067   1.959  36.173  0.0974  0.0405  0.1778
34896W        W41496   3.130   2.105   8.205  0.0306  0.3079 -0.2975
34897W        W41497   4.989   4.833   5.095  0.0574  0.1603 -0.4484
34898W        W41498   3.807   4.451  21.936  0.0846  0.1604 -0.1787
34899W        W41499  13.312   1.108  29.761  0.5277  0.0839 -0.0682
34900W        W41500   8.095   4.748  23.604 -0.0456  0.0791 -0.1875
34901W        W41501  13.001   3.105  23.092  0.0734  0.2143  0.0983
34902W        W41502  11.712   0.265  26.232  0.3630  0.0450  0.0798
34903W        W41503  24.290   2.382   2.669  0.1758 -0.0574  0.0447
34904W        W41504  13.486   6.593  30.460  0.0946  0.1160  0.1046
34905W        W41505   5.619   4.659  34.105  0.0482  0.3260  0.1257
34906W        W41506  22.360   3.080  10.725 -0.0187  0.0764 -0.0184
34907W        W41507   5.248   0.052   7.193  0.0920 -0.0338 -0.2624
34908W        W41508   1.404   4.501  21.536  0.0277  0.0260 -0.3863
34909W        W41509   3.414   5.997  13.778 -0.0232  0.1757  0.1697
34910W        W41510   8.313   3.908  15.643 -0.0153  0.3138 -0.0977
34911W        W41511   2.960   4.600  30.776  0.2352  0.0775  0.1709
34912W        W41512   0.479   4.682  13.629  0.0377 -0.0401  0.3895
34913W        W41513   7.897   1.315  11.990 -0.1684 -0.0775  0.1584
34914W        W41514  13.476   0.104   6.324  0.4632  0.0926  0.1300
34915W        W41515  13.443   1.417   1.211  0.0508 -0.3579  0.1978
34916W        W41516  26.286   5.564   8.550  0.0611  0.0464 -0.2024
34917W        W41517  23.054   0.232  28.092 -0.0146  0.2891 -0.0497
34918W        W41518  15.859   5.431  28.428  0.2084 -0.0106 -0.3413
34919W        W41519  18.117   1.066  36.176 -0.1716  0.1424  0.0231
34920W        W41520  20.270   2.290  15.299 -0.2694  0.1513  0.1066
34921W        W41521   4.966   3.748  21.032  0.3483 -0.1361 -0.3178
34922W        W41522   9.200   3.712   0.003  0.0033 -0.2047 -0.2119
34923W        W41523   0.001   4.551  33.766  0.2104  0.0210 -0.0616
34924W        W41524   3.051   0.440   7.360 -0.1891  0.0661 -0.1736
34925W        W41525  14.538   1.703  28.341 -0.1625 -0.1609 -0.2871
34926W        W41526  21.090   1.994  28.305  0.3015 -0.0932 -0.0778
34927W        W41527   6.412   4.814  29.102 -0.1416  0.0533 -0.1779
34928W        W41528  22.768   4.651  33.860 -0.0915  0.1190 -0.1599
34929W        W41529   1.762   0.361   4.234  0.1230 -0.0443 -0.0198
34930W        W41530   7.394   1.648  34.626 -0.1120 -0.1740  0.2133
34931W        W41531  15.083   3.733   3.286  0.0918  0.1371 -0.0745
34932W        W41532  24.183   5.387  28.351 -0.2331  0.3399  0.0901
34933W        W41533  16.824   2.570  13.771 -0.0702 -0.1693  0.0552
34934W        W41534  23.089   3.824  34.650  0.1109  0.2519  0.1898
34935W        W41535  15.564   5.477  31.183  0.0418  0.2655 -0.1338
34936W        W41536   1.581   5.595  29.936  0.0703 -0.2046 -0.2528
34937W        W41537  25.853   4.085   8.499  0.2214  0.0055 -0.0791
34938W        W41538  11.653   4.074   7.916 -0.1035  0.1377 -0.1942
34939W        W41539   4.560   1.660  29.173  0.1154 -0.1372  0.2208
34940W        W41540  24.401   3.023  33.764 -0.0798  0.0028 -0.0188
34941W        W41541  23.543   5.096   7.771 -0.2287 -0.1284  0.0313
34942W        W41542  10.114   2.154  34.156 -0.0028  0.0710  0.0241
34943W        W41543  11.570   1.377  21.597  0.1489  0.1044 -0.0065
34944W        W41544  13.379   1.291  27.061  0.0538  0.0415 -0.0693
34945W        W41545  24.398   3.650  30.362  0.2691  0.1220 -0.1567
34946W        W41546  22.098   5.831   9.410 -0.0192 -0.2060 -0.1625
34947W        W41547  16.075   5.145  27.915  0.2650 -0.2465 -0.4031
34948W        W41548   4.714   5.283  21.057 -0.0026 -0.0013  0.1882
34949W        W41549  17.963   1.480   2.139  0.3334  0.0564  0.0205
34950W        W41550  15.643   1.893  34.149  0.1426  0.0040  0.0178
34951W        W41551   5.667   3.976  29.631 -0.1912 -0.0168 -0.1491
34952W        W41552  25.969   2.895  29.217  0.1102 -0.2137 -0.0350
34953W        W41553  13.290   2.183  26.410 -0.0114  0.1683 -0.2163
34954W        W41554  11.647   4.194  20.658 -0.1516  0.0247 -0.4292
34955W        W41555   0.033   5.418  26.894  0.0961  0.0425 -0.0607
34956W        W41556  17.646   4.338  14.499  0.0330 -0.1816  0.1069
34957W        W41557   1.197   3.421   3.130 -0.0539 -0.0275 -0.0194
34958W        W41558   7.416   6.397   5.559 -0.0835 -0.3167  0.1742
34959W        W41559  20.319   3.970   1.296 -0.0431 -0.0399 -0.3110
34960W        W41560   1.413   6.083  11.206 -0.2850 -0.2050  0.0942
34961W        W41561   7.297   6.159  11.227  0.2299  0.1176  0.2230
34962W        W41562   3.828   3.806   2.873  0.3108 -0.0295  0.0575
34963W        W41563   4.384   2.466  22.993  0.1305 -0.0945  0.0361
34964W        W41564  25.405   2.356   7.962  0.1439  0.0328 -0.0289
34965W        W41565  17.575   3.259   4.404  0.0993  0.0457 -0.1296
34966W        W41566   1.768   4.166  21.418  0.2558  0.0343 -0.2921
34967W        W41567  18.596   0.241  22.459 -0.1114  0.1583  0.1098
34968W        W41568  13.211   1.894   2.795  0.0331 -0.5006 -0.2796
34969W        W41569  24.768   3.453  31.521 -0.2525 -0.3232  0.0513
34970W        W41570  20.661   2.902  20.263 -0.4071  0.1317 -0.1208
34971W        W41571  22.586   2.537  20.865  0.0163  0.1965 -0.2115
34972W        W41572  25.993   2.563  12.828  0.1228 -0.1323 -0.1417
34973W        W41573  23.312   4.217  22.268 -0.0665  0.1407 -0.1851
34974W        W41574  12.045   0.164   3.527 -0.0704  0.0430 -0.0417
34975W        W41575   2.249   5.354   5.861  0.0530  0.0226 -0.2346
34976W        W41576   4.599   3.823  25.830  0.2887 -0.0122  0.0673
34977W        W41577  21.136   6.066  11.349  0.1801  0.2380 -0.2068
34978W        W41578  21.073   3.538   6.942  0.1067  0.0722 -0.0236
34979W        W41579  17.856   2.092  28.576 -0.1646  0.2958  0.0831
34980W        W41580  20.332   0.918   5.480  0.0708 -0.2505 -0.0256
34981W        W41581  20.704   4.561  35.433  0.0438  0.2155  0.0326
34982W        W41582  26.244   6.538  34.918  0.1294  0.0904 -0.1111
34983W        W41583  18.052   0.939  25.470 -0.0614 -0.0384 -0.0965
34984W        W41584  18.169   0.551  32.810 -0.2160 -0.2716 -0.3268
34985W        W41585   7.923   0.393  12.898  0.3790  0.3191 -0.2725
34986W        W41586  18.513   0.921   6.995 -0.2479  0.0180 -0.3530
34987W        W41587  12.109   5.739  14.854  0.2633 -0.1593 -0.0277
34988W        W41588  11.790   2.555  25.273  0.3503  0.0005  0.4857
34989W        W41589   2.918   1.287  21.677 -0.0839  0.0332  0.2086
34990W        W41590   8.456   5.640  22.004 -0.0165 -0.2019  0.1769
34991W        W41591  10.047   2.566  15.411 -0.0779  0.3030 -0.1168
34992W        W41592  18.495   3.190  10.353  0.0950 -0.0317  0.3760
34993W        W41593   2.538   1.922   5.236  0.0613  0.0118  0.3879
34994W        W41594  21.275   1.970  11.134 -0.0527 -0.2998  0.3427
34995W        W41595  24.076   1.752  23.192  0.2225  0.0245  0.1647
34996W        W41596  24.891   5.885  27.908 -0.1004 -0.1850  0.1858
34997W        W41597  18.700   1.448   6.972  0.0520  0.0732 -0.2057
34998W        W41598  14.892   1.271  21.518  0.0588 -0.2458 -0.2029
34999W        W41599  15.434   0.375  14.391  0.1047 -0.1026  0.0300
35000W        W41600  10.039   0.830  35.342  0.1119 -0.0828  0.2803
35001W        W41601  11.072   1.448  10.448  0.1538  0.1066  0.1159
35002W        W41602  22.895   3.390   1.104  0.2847  0.0078 -0.1127
35003W        W41603   8.428   0.710   4.352 -0.0350  0.0657 -0.0330
35004W        W41604  24.866   3.133  26.478 -0.1961  0.0374 -0.0332
35005W        W41605  26.274   3.647  31.154 -0.1084 -0.0900 -0.0519
35006W        W41606  25.060   0.693  21.846  0.2328  0.1924  0.0698
35007W        W41607  22.335   6.582  25.229 -0.0991 -0.0427 -0.0026
35008W        W41608   6.907   5.686  34.184  0.0402 -0.0130  0.0437
35009W        W41609   9.516   2.432  31.518  0.2515  0.1524 -0.0399
35010W        W41610   6.821   6.408  28.832 -0.2058 -0.0601  0.0101
35011W        W41611   5.660   2.088  20.547  0.0049 -0.1973 -0.0486
35012W        W41612   1.698   0.938  26.867 -0.1388 -0.1379 -0.0400
35013W        W41613   6.119   4.319   9.365 -0.1577  0.0103 -0.1095
35014W        W41614   4.226   2.670  29.909 -0.0631 -0.1731 -0.0127
35015W        W41615   6.568   5.904   2.026  0.0947 -0.1398  0.2692
35016W        W41616   5.498   1.363   6.568 -0.0056 -0.0530 -0.0143
35017W        W41617   0.548   1.255  27.290  0.0770  0.1277 -0.0068
35018W        W41618  12.869   2.783  31.370  0.1500  0.3733 -0.2495
35019W        W41619  14.869   5.241   8.445  0.0706  0.4355  0.0167
35020W        W41620  25.900   1.785  23.412  0.1874  0.2587 -0.0920
35021W        W41621  21.339   0.836  33.600 -0.1884 -0.1184 -0.0002
35022W        W41622  14.325   5.166  14.403 -0.2658  0.0626 -0.4183
35023W        W41623  14.952   5.777  24.772 -0.0272 -0.1210  0.4052
35024W        W41624  16.259   6.243  14.989 -0.0255  0.2861 -0.0958
35025W        W41625  17.842   5.524  15.245 -0.1705 -0.1788  0.1685
35026W        W41626  16.528   2.526   5.192 -0.2760  0.0354 -0.2168
35027W        W41627  16.902   2.889  21.039 -0.1538  0.0572 -0.1080
35028W        W41628  12.245   0.717  21.175 -0.1151  0.0276 -0.3271
35029W        W41629  17.354   2.978  14.656 -0.0937  0.2533 -0.1621
35030W        W41630   9.264   4.029  14.634 -0.2016  0.0350 -0.0987
35031W        W41631  18.425   3.465  10.800  0.2683  0.1219  0.0670
35032W        W41632   5.086   2.047  31.814 -0.0450 -0.0118  0.0605
35033W        W41633   9.813   5.847  27.722  0.2152  0.3243 -0.0226
35034W        W41634  24.233   6.177  36.023  0.1850  0.0704 -0.2594
35035W        W41635   9.798   6.214  34.805  0.2131  0.0576 -0.0587
35036W        W41636   0.555   3.861  29.956  0.0453 -0.3424 -0.3604
35037W        W41637   2.143   2.129  25.350  0.1062  0.0591  0.0463
35038W        W41638  11.984   0.247  26.675  0.0035 -0.1365 -0.1119
35039W        W41639  25.399   5.227  22.871 -0.0261 -0.0136 -0.1152
35040W        W41640  19.037   0.531   6.301  0.0231 -0.4606  0.3870
35041W        W41641  14.909   2.529   4.092  0.0825  0.0293  0.0288
35042W        W41642  14.762   5.521  28.332  0.2082  0.1639  0.1298
35043W        W41643  14.685   5.810  30.621 -0.1017  0.0261  0.0832
35044W        W41644   6.788   1.029   3.049  0.2118  0.0478  0.1524
35045W        W41645   9.204   0.938   2.477 -0.1018 -0.3894  0.0556
35046W        W41646   9.660   0.263   1.084  0.3567  0.0463  0.0453
35047W        W41647   2.818   4.457  33.979 -0.1666  0.1178  0.3195
35048W        W41648  16.604   1.871   7.801 -0.3639  0.1445  0.1202
35049W        W41649  12.304   1.737  12.607 -0.1272  0.1453  0.0325
35050W        W41650  11.015   3.046   0.650  0.2168  0.1141  0.1222
35051W        W41651  20.287   3.624   5.044 -0.0524 -0.0551  0.2520
35052W        W41652   3.590   2.597  25.001 -0.3061  0.0300  0.2663
35053W        W41653   4.049   5.887   9.760  0.0248  0.0413  0.0250
35054W        W41654  13.734   0.569  25.223  0.1606  0.0313 -0.1274
35055W        W41655  25.436   3.374   1.407  0.1607 -0.1966  0.0997
35056W        W41656  15.054   6.260   5.297  0.2370  0.0318 -0.1601
35057W        W41657  12.979   4.459  34.232  0.1589  0.2836  0.0043
35058W        W41658   2.078   5.231  20.410 -0.1036  0.0553  0.1323
35059W        W41659  20.852   0.905  23.663 -0.2685  0.2634 -0.0134
35060W        W41660  11.020   0.788   0.716 -0.1384  0.4274  0.2965
35061W        W41661  14.136   1.669  15.620 -0.2285  0.1167  0.1162
35062W        W41662   0.427   5.784  13.461  0.3068 -0.4129  0.1930
35063W        W41663  18.723   5.629  27.959  0.1121 -0.4294 -0.0951
35064W        W41664  19.061   3.452   3.001 -0.0733 -0.1480 -0.3726
35065W        W41665   2.834   5.791  26.505 -0.1931  0.0908  0.0088
35066W        W41666   1.325   6.498   5.934 -0.0413 -0.0832  0.0735
35067W        W41667  17.182   2.712  36.128 -0.2117  0.1608  0.1260
35068W        W41668  12.677   1.088   1.812  0.2844 -0.0927  0.0447
35069W        W41669  13.022   5.775   3.152 -0.0774  0.0950 -0.1461
35070W        W41670  10.926   3.568  23.940  0.3648 -0.0465 -0.1731
35071W        W41671   4.877   1.533  29.594 -0.3017  0.0292 -0.2139
35072W        W41672  11.599   4.034  23.788  0.1516 -0.1716 -0.0805
35073W        W41673  21.923   3.669   0.096 -0.1605 -0.0068  0.1066
35074W        W41674   5.749   4.556   7.338  0.1232  0.3093 -0.0537
35075W        W41675   5.675   0.768   7.420 -0.0848 -0.3234 -0.0437
35076W        W41676   3.401   1.191   0.757  0.0727 -0.0072  0.2597
35077W        W41677  18.261   5.667  31.381  0.1521 -0.1977 -0.0005
35078W        W41678  14.887   4.559   4.193 -0.1611 -0.0950  0.2070
35079W        W41679  15.358   2.253  12.753 -0.2583 -0.2149  0.2281
35080W        W41680  21.556   0.290  28.728  0.3631  0.1529 -0.1640
35081W        W41681  22.581   6.130  14.177 -0.0732  0.0590  0.0467
35082W        W41682  17.220   5.200  15.441  0.0623 -0.1265  0.0123
35083W        W41683   2.486   3.886  14.433  0.0644  0.4984 -0.2222
35084W        W41684  18.522   5.817   5.356  0.2415  0.0559 -0.0457
35085W        W41685   7.698   2.994  12.967  0.1412 -0.1112 -0.0847
35086W        W41686  14.445   5.763  26.902  0.2841 -0.1949  0.0431
35087W        W41687  25.785   2.256  34.299 -0.0254  0.2009 -0.0175
35088W        W41688  17.848   3.846  33.161  0.3440 -0.1885 -0.0356
35089W        W41689  22.745   5.393  23.371 -0.0362  0.3173 -0.2279
35090W        W41690  23.674   0.656  28.784  0.1366  0.0217 -0.1142
35091W        W41691   9.912   3.293  27.303 -0.1657  0.1381  0.1118
35092W        W41692  21.691   1.715  15.236 -0.2002 -0.2490  0.0338
35093W        W41693  18.439   3.376  15.080 -0.1631 -0.1075  0.1466
35094W        W41694   8.276   5.816  34.726  0.0956 -0.0155 -0.3225
35095W        W41695  13.693   4.473  29.776  0.0903  0.1077 -0.1843
35096W        W41696  15.728   1.566  33.186  0.0663  0.1934 -0.1490
35097W        W41697   2.658   2.955  32.975  0.3283  0.1500 -0.1619
35098W        W41698  22.507   3.480   7.939 -0.4540  0.1031 -0.1440
35099W        W41699  11.357   0.499  25.465 -0.0015  0.0205  0.0418
35100W        W41700   6.839   5.094  10.553  0.1977 -0.0080 -0.1672
35101W        W41701  12.353   2.131   7.977  0.0053  0.2515 -0.1811
35102W        W41702  13.798   3.040  13.540 -0.0983  0.0917 -0.1090
35103W        W41703  10.554   2.531  21.714 -0.2982 -0.2136 -0.1292
35104W        W41704  10.710   5.110  30.517  0.0722  0.1479  0.5457
35105W        W41705   3.627   1.459  20.918 -0.2150 -0.0311 -0.0529
35106W        W41706  15.900   4.804  32.593  0.0595  0.2578 -0.0958
35107W        W41707  15.696   5.410  10.982  0.2320  0.1719  0.0557
35108W        W41708  11.167   0.830  11.596  0.0519  0.3142 -0.0968
35109W        W41709  26.022   0.672  23.947 -0.0525  0.1012 -0.1214
35110W        W41710   6.385   2.210  21.665 -0.1959  0.2609 -0.2789
35111W        W41711  25.677   4.015   2.440 -0.2425 -0.0777  0.1647
35112W        W41712  21.555   6.004   5.848  0.1366 -0.0768 -0.0385
35113W        W41713   1.767   4.494  31.304  0.1774 -0.0650  0.1079
35114W        W41714   2.872   4.690  32.722 -0.0951 -0.1880  0.0850
35115W        W41715   6.696   1.339  31.527  0.1771 -0.4978 -0.1282
35116W        W41716   3.497   6.605  30.922 -0.1722  0.2012 -0.1660
35117W        W41717   0.481   5.838  20.384  0.1623  0.1101 -0.2646
35118W        W41718  20.227   1.954   5.183  0.1937 -0.1197 -0.2816
35119W        W41719  11.494   0.085   8.466 -0.1035  0.1829 -0.0165
35120W        W41720  20.046   1.405  30.854  0.0453 -0.0289 -0.2768
35121W        W41721  24.432   1.962  27.735  0.1004  0.1059  0.0451
35122W        W41722  15.886   6.399   1.256  0.1014 -0.2748  0.2337
35123W        W41723   3.984   6.459  24.248 -0.0559  0.3261 -0.1608
35124W        W41724   9.699   1.378  13.661 -0.1456  0.2494 -0.1428
35125W        W41725  17.463   0.834   8.314  0.0261  0.3309  0.4158
35126W        W41726   6.859   3.187   1.447 -0.4116 -0.2885 -0.0316
35127W        W41727  10.897   4.230  13.411 -0.0857  0.1320 -0.1448
35128W        W41728  23.166   1.143  27.781 -0.0835  0.1122  0.2065
35129W        W41729  20.112   2.908   7.712  0.1539  0.1824  0.0132
35130W        W41730  19.397   5.537   3.454 -0.1614  0.4027  0.1033
35131W        W41731  11.495   5.858  26.558  0.2389 -0.0316 -0.0507
35132W        W41732   7.614   3.230  35.686 -0.1594  0.1274 -0.0749
35133W        W41733  14.326   5.188  24.346 -0.2521 -0.1093 -0.0068
35134W        W41734  23.326   4.449  21.010  0.0824  0.0692 -0.1130
35135W        W41735   4.767   3.463  29.498  0.0365  0.1266  0.0651
35136W        W41736  10.455   4.255  23.440 -0.1469 -0.0921  0.0851
35137W        W41737   2.630   2.922   4.654 -0.0025  0.0396 -0.0490
35138W        W41738   3.047   5.719  29.020  0.1188 -0.0065  0.4898
35139W        W41739  20.221   4.430  13.586 -0.0125 -0.2229 -0.1803
35140W        W41740  16.210   2.035   2.411  0.1706 -0.0235 -0.0611
35141W        W41741  11.588   3.532  27.088  0.1876  0.2017 -0.1324
35142W        W41742   4.306   2.105  27.150 -0.0071 -0.0041  0.2149
35143W        W41743  22.711   4.103  30.982 -0.2238  0.1070  0.0341
35144W        W41744  26.380   0.147  26.001 -0.3880 -0.0451  0.0293
35145W        W41745  23.057   3.695  23.044  0.3153 -0.1922  0.1692
35146W        W41746   2.830   5.122   1.172  0.0964  0.0176  0.0693
35147W        W41747  12.712   2.735   4.725 -0.0712 -0.1091  0.1080
35148W        W41748  10.529   2.590   2.272  0.2514 -0.4403  0.1338
35149W        W41749  12.293   0.944  11.446 -0.0086  0.1701 -0.3110
35150W        W41750   9.024   1.325  34.239  0.2007  0.2414 -0.2007
35151W        W41751  11.714   5.267  22.555 -0.0641 -0.4673 -0.2257
35152W        W41752  18.982   2.247   5.621  0.2864 -0.4208  0.1709
35153W        W41753   4.651   1.152   4.527  0.2588 -0.1659 -0.1619
35154W        W41754   9.183   4.663   9.835  0.1207 -0.2483  0.1995
35155W        W41755  11.879   4.276  32.015  0.0014 -0.0332 -0.1161
35156W        W41756  12.815   3.345  22.666 -0.2316  0.4001  0.2816
35157W        W41757  20.873   4.924  21.401  0.2331  0.2266  0.2766
35158W        W41758  26.161   2.362  31.616 -0.0242 -0.1332 -0.3191
35159W        W41759  20.251   5.994  21.738  0.1203 -0.1798  0.2954
35160W        W41760  19.377   3.700  31.137  0.0545  0.2419  0.0584
35161W        W41761  23.276   5.394  35.078  0.0184 -0.4396  0.1317
35162W        W41762  12.684   6.593   5.031  0.0535  0.0093  0.0564
35163W        W41763  21.281   2.391  33.026  0.1765  0.0057 -0.0832
35164W        W41764  10.746   2.757  31.796  0.0625 -0.1172 -0.2825
35165W        W41765  11.545   0.514  30.800  0.0137  0.0830  0.0437
35166W        W41766  12.382   5.888  23.526  0.2325 -0.3858  0.1734
35167W        W41767  23.540   4.441   5.034 -0.0608  0.2911  0.0196
35168W        W41768   3.548   2.994   2.881 -0.0160 -0.1045  0.0118
35169W        W41769   5.702   4.406  28.939 -0.2547 -0.0357 -0.1755
35170W        W41770  18.050   4.910  27.964  0.0249  0.3073  0.0359
35171W        W41771  23.789   3.248  30.809 -0.0075 -0.0336 -0.1537
35172W        W41772  25.348   5.720   7.728  0.1174 -0.0462  0.1183
35173W        W41773   5.351   3.583   0.655 -0.0930  0.0413 -0.1986
35174W        W41774  20.384   2.286  20.936 -0.1839  0.0935 -0.0134
35175W        W41775   8.506   5.798  32.922  0.0642  0.2045 -0.4647
35176W        W41776  12.462   4.421  13.409  0.0420  0.1332 -0.3105
35177W        W41777  17.406   5.110  33.790  0.0313 -0.0679 -0.2475
35178W        W41778  23.938   4.330   6.103  0.4089  0.1133 -0.0157
35179W        W41779  18.984   0.827  13.604  0.0171 -0.5429 -0.1800
35180W        W41780   1.335   4.828  31.483 -0.0956 -0.0212  0.1339
35181W        W41781   9.664   0.552  28.755  0.0398 -0.3763  0.1579
35182W        W41782  20.933   0.945  10.621  0.1591  0.0138  0.2728
35183W        W41783   0.865   2.437   8.847  0.1557  0.0907  0.1015
35184W        W41784  15.018   0.394  10.053 -0.0510  0.0082 -0.0617
35185W        W41785   4.452   6.369   3.952  0.1414  0.2722  0.2626
35186W        W41786   1.512   4.628   4.415 -0.5043  0.0096 -0.3897
35187W        W41787  11.950   1.900   8.035  0.3213  0.0144 -0.1752
35188W        W41788  18.255   2.767   0.429  0.0784  0.0800  0.1045
35189W        W41789  16.427   5.209   2.488  0.1665  0.0835  0.1597
35190W        W41790  11.368   2.866  11.448 -0.2459  0.1802  0.0772
35191W        W41791  10.295   3.052   5.905 -0.0048  0.2498  0.0955
35192W        W41792  24.576   5.467  29.106 -0.0943  0.1900 -0.2707
35193W        W41793   6.064   3.780   2.997 -0.2634 -0.0569  0.0656
35194W        W41794   6.057   1.955  10.938 -0.1553 -0.0460 -0.2004
35195W        W41795  13.710   2.651  29.024  0.0788 -0.4832  0.1385
35196W        W41796   4.589   5.764  24.242 -0.0142 -0.0356 -0.0013
35197W        W41797   3.414   5.309   3.881  0.3455  0.0448  0.1850
35198W        W41798  11.684   4.048   3.700  0.2545 -0.0455  0.1127
35199W        W41799  19.498   6.097   0.324 -0.0742  0.0954  0.0986
35200W        W41800   2.778   3.005   9.751 -0.0615 -0.0489 -0.2103
35201W        W41801  13.360   4.421  11.547  0.1004 -0.3801 -0.1844
35202W        W41802  19.423   0.149  27.394  0.0785 -0.1667 -0.1143
35203W        W41803   1.055   5.131  10.853  0.1575  0.3188 -0.0817
35204W        W41804  16.414   2.391  35.204 -0.2899 -0.0763  0.0008
35205W        W41805   4.241   5.102   7.302 -0.1803  0.0705  0.3119
35206W        W41806  17.763   0.209  22.055  0.1495  0.1947  0.0232
35207W        W41807  15.532   4.589  28.779  0.0175  0.1340 -0.0926
35208W        W41808  13.075   1.672  33.523 -0.2362 -0.1531 -0.1280
35209W        W41809  15.405   4.332   1.881 -0.3107 -0.1036  0.0103
35210W        W41810  25.496   3.491  28.231 -0.2206  0.0006  0.0688
35211W        W41811  21.477   3.897  23.191  0.3118  0.0491 -0.1217
35212W        W41812  14.506   4.268  27.349  0.1835  0.0411 -0.2615
35213W        W41813  22.730   1.295  29.771  0.1893 -0.1720 -0.0829
35214W        W41814  19.251   2.190  32.754  0.3267  0.0238  0.0945
35215W        W41815  22.128   2.602  21.078 -0.1367  0.0557  0.1255
35216W        W41816   1.441   4.711  32.055  0.2110 -0.0581 -0.0476
35217W        W41817   3.465   6.523   4.819  0.0745  0.2941 -0.2674
35218W        W41818  22.335   1.233  27.076 -0.0888 -0.2366  0.3775
35219W        W41819   9.246   0.148  11.804 -0.1598 -0.0326 -0.0834
35220W        W41820  11.776   3.170   6.711  0.1504  0.2499 -0.4315
35221W        W41821   1.214   1.235  32.971 -0.1517 -0.0018 -0.0365
35222W        W41822   0.977   2.582  24.017  0.2312 -0.2159 -0.2574
35223W        W41823   3.967   1.027  27.927 -0.1567 -0.1133  0.0157
35224W        W41824   1.769   3.137   0.293  0.2911  0.1949  0.0367
35225W        W41825   9.087   3.913   4.035 -0.0288 -0.2874  0.1379
35226W        W41826   8.280   5.997   3.420 -0.0157 -0.0371  0.1798
35227W        W41827  15.020   4.639  24.074 -0.0639  0.1041  0.0619
35228W        W41828  16.977   1.189   3.459 -0.0603 -0.1632  0.0890
35229W        W41829   4.192   3.280  14.563  0.2759 -0.0215  0.0885
35230W        W41830  16.047   3.756  24.831  0.0122 -0.0279 -0.1963
35231W        W41831  16.844   5.958  24.385  0.0722  0.0660 -0.1179
35232W        W41832  14.498   5.768  26.424  0.1099 -0.0389 -0.2283
35233W        W41833   1.517   4.130  33.912  0.3070  0.0901 -0.1147
35234W        W41834   8.968   3.365  25.774 -0.1369  0.0144 -0.0152
35235W        W41835   7.350   5.623  32.465 -0.0152 -0.1767  0.2101
35236W        W41836   9.770   0.822   8.005  0.0229 -0.1119 -0.1629
35237W        W41837  12.322   1.865  26.994 -0.4097 -0.1302  0.3128
35238W        W41838  10.412   3.402  32.649  0.1597 -0.0239 -0.0301
35239W        W41839  12.963   0.797   4.858  0.0434  0.1216  0.0535
35240W        W41840   4.041   4.107  28.749  0.2192 -0.0304  0.3640
35241W        W41841  16.226   4.776  34.790 -0.0704 -0.1408 -0.0359
35242W        W41842  17.028   1.966  21.104  0.3470 -0.1131 -0.0307
35243W        W41843  20.424   5.978  24.148  0.1377 -0.0495 -0.1641
35244W        W41844   4.025   5.727  15.259  0.2927 -0.0742  0.1442
35245W        W41845   1.248   1.672   6.308 -0.1330 -0.3310  0.1595
35246W        W41846  24.505   0.114  26.856  0.0770 -0.1915 -0.1667
35247W        W41847  24.436   3.491  13.226 -0.0509  0.1235  0.1299
35248W        W41848   5.752   5.773  26.872  0.3493  0.2802  0.4008
35249W        W41849   4.955   6.184   8.046 -0.0516  0.1117  0.1212
35250W        W41850  23.399   1.100  22.967 -0.1120  0.0190 -0.2054
35251W        W41851  24.114   4.663  33.913 -0.2403 -0.0310 -0.1393
35252W        W41852  25.909   1.889  35.619  0.1161  0.2167 -0.1656
35253W        W41853  24.644   4.753   5.955 -0.1402 -0.0905  0.1258
35254W        W41854   0.763   3.675   5.039 -0.0906  0.1812  0.0417
35255W        W41855  21.690   0.212   8.514  0.2270 -0.3748 -0.0218
35256W        W41856  14.447   2.363   6.544  0.0341  0.0551  0.0281
35257W        W41857   7.701   3.801  10.698  0.1347  0.0484  0.0779
35258W        W41858  10.152   1.743   9.530  0.0373  0.0101 -0.1608
35259W        W41859   2.262   4.181  30.431  0.1415 -0.0939 -0.4520
35260W        W41860  21.043   5.300   0.675 -0.1560 -0.0552 -0.1821
35261W        W41861   3.759   5.265   1.991  0.1343  0.1706  0.0457
35262W        W41862   2.821   4.966  12.847 -0.2869  0.0355  0.0780
35263W        W41863   4.901   2.058   4.670 -0.0912 -0.2897  0.1490
35264W        W41864  22.902   4.351  13.899  0.0401  0.2294 -0.0267
35265W        W41865  12.604   4.327   8.652 -0.4534 -0.2394  0.0794
35266W        W41866   0.260   0.449   3.400  0.0789 -0.0668 -0.1012
35267W        W41867   2.709   3.022   8.389  0.0284  0.0303 -0.1305
35268W        W41868  15.507   1.217  22.813  0.2869 -0.0348  0.3361
35269W        W41869  11.372   0.025  21.405 -0.0227  0.0666  0.4110
35270W        W41870   5.896   0.912  12.817 -0.1113 -0.1242 -0.2504
35271W        W41871   1.449   5.756   1.568 -0.0387  0.2205  0.0497
35272W        W41872  19.024   2.264  35.135 -0.1198 -0.1867  0.2012
35273W        W41873   5.524   1.732  33.704 -0.0985  0.0660  0.1372
35274W        W41874  10.347   1.852  26.865 -0.1075 -0.1747 -0.2186
35275W        W41875  17.454   2.070  14.821  0.1587 -0.1567  0.0526
35276W        W41876   6.199   2.620  34.594 -0.1723  0.1512 -0.0401
35277W        W41877  24.463   0.614   6.619 -0.0701  0.0983  0.1072
35278W        W41878  22.192   2.774  23.744  0.0356  0.0850 -0.1185
35279W        W41879  13.112   0.671  13.442 -0.0224 -0.0792  0.0192
35280W        W41880  20.749   4.062  35.461  0.0916  0.1138 -0.1400
35281W        W41881  21.006   1.184  11.109 -0.2418 -0.3240  0.1495
35282W        W41882  18.844   5.311  12.769  0.0282 -0.1220 -0.0964
35283W        W41883  16.302   2.895   2.796  0.1514 -0.1385  0.1750
35284W        W41884   9.112   2.872  34.257  0.1110  0.1110 -0.0712
35285W        W41885   2.993   2.149   3.640  0.0913 -0.0641 -0.1330
35286W        W41886   9.087   5.581  25.683 -0.1746 -0.0705 -0.0412
35287W        W41887  17.312   3.209   9.552  0.3293  0.2493 -0.1762
35288W        W41888  12.012   5.903  25.232  0.0067  0.1580 -0.2314
35289W        W41889  18.116   2.337   8.872 -0.0706  0.3050 -0.2233
35290W        W41890  10.693   1.057  13.009  0.2266 -0.0790  0.1063
35291W        W41891   7.539   6.500  30.912 -0.0983  0.1282  0.1419
35292W        W41892   9.533   5.058  12.986 -0.6318  0.0497  0.0644
35293W        W41893  24.867   6.342  25.269  0.0280 -0.1549  0.0906
35294W        W41894   5.429   3.067   8.395  0.0867 -0.0420 -0.0470
35295W        W41895  15.373   3.018  24.848  0.2078  0.0922 -0.2072
35296W        W41896  17.448   2.058  25.943  0.2505  0.0778 -0.0064
35297W        W41897  18.911   4.408  34.659 -0.0533 -0.1967 -0.0350
35298W        W41898   4.196   2.623  21.127 -0.0523 -0.2990 -0.0580
35299W        W41899  17.867   3.882   0.930  0.0007 -0.0850 -0.0749
35300W        W41900   0.820   2.000   3.999 -0.0580  0.0660 -0.0418
35301W        W41901  19.117   0.177  14.201 -0.1338 -0.0273  0.0101
35302W        W41902  10.332   5.545  32.363 -0.1595 -0.1588 -0.3004
35303W        W41903   4.273   0.251  28.544  0.2196  0.2238 -0.2609
35304W        W41904  21.680   6.382  35.698 -0.2971  0.3028 -0.1372
35305W        W41905   3.118   5.671  23.418 -0.1669 -0.1968  0.3298
35306W        W41906  22.529   6.330   2.703 -0.1296 -0.1622  0.0774
35307W        W41907  20.181   2.027  23.404 -0.0897 -0.2189 -0.0655
35308W        W41908  11.856   0.928   1.871  0.0749 -0.2061 -0.0725
35309W        W41909   7.622   4.700  36.132 -0.2344  0.0106 -0.3386
35310W        W41910  18.725   4.107   3.432  0.1857  0.1195 -0.6362
35311W        W41911  17.528   5.353  10.055  0.2691  0.1196 -0.1110
35312W        W41912   8.431   0.148  21.243  0.2908  0.1327 -0.0938
35313W        W41913  24.012   2.344  13.838 -0.0925  0.1077  0.0494
35314W        W41914   3.274   2.128  34.340  0.1230  0.0656 -0.4146
35315W        W41915   3.559   4.915  20.602 -0.1824  0.0469  0.1856
35316W        W41916  23.207   4.072   5.140 -0.0061  0.1179  0.2621
35317W        W41917   5.643   2.197  13.175  0.0155  0.0960  0.1306
35318W        W41918   4.199   4.208   1.211 -0.1634 -0.1942  0.0778
35319W        W41919   6.594   5.602   0.971 -0.1794 -0.2689 -0.2997
35320W        W41920  19.114   4.349  27.618 -0.4416 -0.3411 -0.0728
35321W        W41921  15.114   5.750  13.388  0.0184  0.1392  0.3060
35322W        W41922   3.329   0.595  20.821  0.1565  0.3582  0.3034
35323W        W41923   7.959   4.429   7.061 -0.1224 -0.0618  0.1885
35324W        W41924  22.294   2.734  11.657 -0.0358  0.1304 -0.1749
35325W        W41925   6.627   1.499  22.107  0.2761  0.0106 -0.2173
35326W        W41926   7.708   2.734  25.276  0.0228 -0.1167 -0.1828
35327W        W41927   4.438   2.501  35.316  0.0009 -0.2698 -0.1181
35328W        W41928   8.006   3.686  31.174  0.2820 -0.1190 -0.1782
35329W        W41929   7.647   1.568   7.088  0.0053 -0.2929  0.1347
35330W        W41930  11.063   3.498  33.583 -0.0984  0.0075 -0.0360
35331W        W41931  10.357   2.368  28.672  0.2172 -0.1189  0.1172
35332W        W41932  13.286   2.210  31.884  0.2992  0.1071  0.1094
35333W        W41933  16.771   1.632  11.692 -0.2141  0.2050  0.1486
35334W        W41934  10.831   4.543  22.018  0.0454  0.1984 -0.0586
35335W        W41935  23.157   5.279  35.896  0.1213  0.0743  0.1879
35336W        W41936  22.776   4.823  21.101 -0.1458 -0.0192  0.1413
35337W        W41937   5.105   6.040  31.427  0.0356 -0.2056 -0.0723
35338W        W41938  21.428   6.529  33.497 -0.1916 -0.0219 -0.2073
35339W        W41939   8.522   4.467  29.006 -0.1566  0.2663  0.3034
35340W        W41940  14.432   3.940  30.087 -0.0779  0.1114 -0.2210
35341W        W41941  12.461   3.178   4.729 -0.1362 -0.1311  0.0344
35342W        W41942  23.170   5.537  14.180 -0.1732 -0.0401 -0.0330
35343W        W41943   6.559   4.570   5.356  0.0949  0.0466  0.2995
35344W        W41944  10.185   0.892   4.682  0.0406 -0.1578 -0.0825
35345W        W41945   0.379   3.389  25.630  0.0717  0.0159 -0.0465
35346W        W41946  25.842   4.984  20.338 -0.0654 -0.0607  0.1015
35347W        W41947  21.939   2.364  28.370 -0.0883 -0.3075  0.2531
35348W        W41948   7.154   1.744  35.964  0.0302 -0.0622 -0.0231
35349W        W41949  12.814   3.433   0.390  0.1471  0.1364 -0.2748
35350W        W41950   8.069   6.111   2.554 -0.2888  0.4008  0.0853
35351W        W41951  18.956   3.862  24.413 -0.2515  0.3822  0.0897
35352W        W41952   2.778   5.351  14.736  0.2030 -0.1033 -0.0077
35353W        W41953  24.725   3.544  10.955  0.2324  0.0260 -0.1307
35354W        W41954  25.967   3.638  31.909 -0.2211 -0.1310  0.1874
35355W        W41955  20.492   1.315  10.797  0.1801  0.2293 -0.0324
35356W        W41956  25.749   1.445  35.859  0.0677 -0.0001  0.1558
35357W        W41957   8.277   3.251  28.463 -0.1062  0.0530 -0.2247
35358W        W41958  13.081   5.638  12.712  0.0018  0.0690 -0.0726
35359W        W41959   4.401   3.216   3.298  0.0186  0.0488 -0.2195
35360W        W41960  22.954   0.416  29.242 -0.1326 -0.2778  0.1310
35361W        W41961   8.647   2.865  11.977  0.0152 -0.1074  0.0135
35362W        W41962  11.009   4.492  29.966 -0.1483  0.0931 -0.1325
35363W        W41963   6.406   4.815  21.659 -0.1581  0.1330  0.0686
35364W        W41964   9.371   6.167  23.466  0.0301  0.1458 -0.0106
35365W        W41965  23.279   1.043  31.457 -0.1914  0.3116 -0.1466
35366W        W41966  20.753   5.894  20.959 -0.1870 -0.0187  0.2041
35367W        W41967  12.500   6.385  29.489 -0.0041 -0.1745  0.0799
35368W        W41968   4.985   2.910  11.182  0.2877 -0.0569 -0.1946
35369W        W41969  17.674   2.525  30.638  0.1017 -0.2562 -0.2668
35370W        W41970   3.726   2.267   8.555  0.2539  0.4579  0.0591
35371W        W41971  14.995   6.466   8.791 -0.1495  0.3402  0.0274
35372W        W41972  13.115   6.423  28.792 -0.0933  0.1496  0.0214
35373W        W41973   4.989   4.248  32.641 -0.0293  0.1825  0.1559
35374W        W41974   6.439   6.218  21.094 -0.3111  0.3205  0.0620
35375W        W41975  25.037   1.736  34.221 -0.1442 -0.0650  0.3189
35376W        W41976   0.210   1.691   7.649 -0.0213 -0.0418 -0.0259
35377W        W41977  20.235   1.164  26.337  0.2313  0.0286  0.1288
35378W        W41978  15.662   4.648   9.196  0.2431 -0.1673  0.0002
35379W        W41979  23.639   0.036   5.146  0.0762  0.0266  0.0452
35380W        W41980   8.088   0.912  25.023 -0.1593 -0.1184 -0.1304
35381W        W41981   7.636   5.004  13.383 -0.0215 -0.1832 -0.2529
35382W        W41982  16.640   5.735   9.708 -0.1604 -0.1192 -0.2131
35383W        W41983   3.062   2.703  31.555  0.0164  0.0716  0.3866
35384W        W41984  23.593   4.655  24.573  0.2008 -0.0716 -0.0596
35385W        W41985   3.335   6.345   8.143  0.1595  0.1122 -0.1464
35386W        W41986  20.280   4.344   7.113  0.6255 -0.2146  0.0113
35387W        W41987   4.920   2.016  21.692  0.2395  0.0217  0.1911
35388W        W41988  22.013   3.470  35.292  0.1000 -0.0141 -0.0165
35389W        W41989  25.555   6.217  12.707  0.1815  0.0797 -0.1083
35390W        W41990  10.187   6.263   5.271  0.3995  0.1082  0.1191
35391W        W41991   9.805   4.278  29.700  0.2342  0.1490  0.1828
35392W        W41992  10.142   5.377   7.007 -0.0072  0.2643 -0.2575
35393W        W41993  11.643   2.148  12.647  0.0728 -0.1518 -0.2546
35394W        W41994  18.998   3.224   7.723 -0.2725  0.1885 -0.2149
35395W        W41995  22.579   3.527  14.804  0.1176 -0.0820  0.2918
35396W        W41996  13.355   2.183   8.660 -0.0434  0.0303  0.2495
35397W        W41997  20.804   2.846  27.640 -0.2945 -0.0432  0.1348
35398W        W41998  14.144   1.700   0.611 -0.0783 -0.2086 -0.0290
35399W        W41999  17.745   3.352  33.777  0.1769  0.0059  0.0650
35400W        W42000   1.843   0.603  13.579 -0.1194  0.1589  0.0811
35401W        W42001   3.022   5.158   6.386  0.2146 -0.1945  0.2523
35402W        W42002  22.722   1.359  21.804  0.2208  0.0710 -0.0504
35403W        W42003   0.428   4.482  24.719  0.1208  0.0507 -0.1236
35404W        W42004  20.682   2.158   1.328 -0.1071  0.0935 -0.0775
35405W        W42005  19.538   5.138  21.763  0.0627  0.2622  0.1850
35406W        W42006   1.131   4.468  21.038  0.1171  0.1184  0.1283
35407W        W42007  24.807   5.260  27.259 -0.0613  0.4045 -0.2759
35408W        W42008  24.781   2.688  27.752 -0.3396  0.1914  0.2926
35409W        W42009  12.267   1.689  24.223 -0.1014  0.0668  0.0523
35410W        W42010  15.063   3.542   5.957  0.0699  0.1582  0.2808
35411W        W42011   6.769   0.392  12.700  0.3005 -0.1534 -0.4065
35412W        W42012   6.661   0.701  32.259 -0.0284  0.1888  0.0676
35413W        W42013  16.353   4.566  13.538  0.0171 -0.1032 -0.0970
35414W        W42014   7.065   3.016  27.797 -0.1239 -0.0762 -0.0761
35415W        W42015   5.768   4.405  10.320 -0.1015 -0.0449 -0.0538
35416W        W42016  17.413   2.087   5.962  0.2287  0.1603 -0.1437
35417W        W42017  21.002   4.666  27.762 -0.1121  0.1025  0.2181
35418W        W42018  18.178   3.147  24.464 -0.1751 -0.3870 -0.1154
35419W        W42019  21.113   1.026  29.907 -0.5524  0.1738  0.0282
35420W        W42020  11.090   2.614  22.085  0.2873 -0.1434  0.0023
35421W        W42021  24.941   5.528  13.955 -0.0850  0.1719 -0.0225
35422W        W42022  21.742   5.867  29.206 -0.2266 -0.1177 -0.4242
35423W        W42023  22.064   3.320   1.104  0.0404 -0.1001  0.2579
35424W        W42024  15.471   2.375  12.098  0.2398  0.1005  0.3677
35425W        W42025  11.274   0.185  11.010  0.0506  0.3465 -0.0217
35426W        W42026  13.966   3.776  27.441 -0.2102  0.1821  0.2048
35427W        W42027  22.683   4.845  25.593 -0.0298  0.0688 -0.0266
35428W        W42028   4.118   0.918  34.430  0.1392 -0.0055  0.1592
35429W        W42029   2.206   0.853   2.551  0.0010  0.2753  0.1314
35430W        W42030  14.508   4.814  30.565 -0.1086 -0.0777 -0.3591
35431W        W42031  21.845   4.037   5.165 -0.2979  0.0660  0.1928
35432W        W42032  24.334   3.272  35.458  0.2250  0.2165 -0.4345
35433W        W42033  22.521   6.523   6.887 -0.0033 -0.0078 -0.0961
35434W        W42034  21.328   0.190   5.710  0.0688  0.0571 -0.2034
35435W        W42035  12.721   2.925   7.804 -0.2797 -0.1535 -0.0816
35436W        W42036   8.705   4.679  30.661 -0.1780 -0.0997  0.0610
35437W        W42037  21.454   5.590   7.605 -0.1146  0.3931 -0.0585
35438W        W42038  25.365   1.978  26.250  0.3201  0.0052  0.0699
35439W        W42039  25.403   5.292  20.992 -0.0060 -0.2542  0.2162
35440W        W42040   0.067   1.212  27.086 -0.3801  0.0811 -0.1470
35441W        W42041  23.792   1.222   8.821  0.1794 -0.0959  0.1367
35442W        W42042  23.398   5.709   4.994 -0.1236  0.1827  0.0313
35443W        W42043  11.861   2.682  13.758  0.0987 -0.0661  0.0462
35444W        W42044   6.085   2.967   2.672 -0.2550  0.0652  0.1101
35445W        W42045   4.337   0.679  28.033  0.1420  0.2203 -0.0841
35446W        W42046  17.636   5.917  36.002 -0.0608  0.1804  0.1104
35447W        W42047  25.471   0.754  26.172  0.1669  0.1970  0.2635
35448W        W42048   9.666   4.344  26.737  0.0623 -0.2217 -0.3361
35449W        W42049  21.817   6.324  35.059 -0.1430  0.2291 -0.1028
35450W        W42050  25.517   0.369  36.151 -0.0675  0.1327  0.0714
35451W        W42051  10.826   3.529  33.026  0.0555  0.3528 -0.1329
35452W        W42052  14.232   6.292   3.253 -0.0513  0.0266 -0.4723
35453W        W42053   3.718   1.456   3.547  0.1567 -0.1460  0.3337
35454W        W42054  20.771   3.541  25.986  0.2429  0.0653 -0.3444
35455W        W42055   1.741   1.901  30.941 -0.0122  0.1863 -0.0236
35456W        W42056  12.709   2.857  32.231 -0.1425  0.0550 -0.0411
35457W        W42057   8.559   0.844   1.194 -0.0959  0.0053 -0.3920
35458W        W42058  15.583   2.946  10.618 -0.2131  0.0770  0.1018
35459W        W42059  15.499   5.481   0.383 -0.2837 -0.0712 -0.0305
35460W        W42060   6.419   3.024  34.361 -0.0604  0.0998 -0.0162
35461W        W42061  20.117   5.511  33.663  0.0600  0.0661 -0.1536
35462W        W42062   0.390   3.853   1.628  0.1940 -0.0933 -0.3224
35463W        W42063  22.451   4.443  28.854 -0.2440 -0.2757 -0.0088
35464W        W42064  18.290   1.099   6.079  0.0695 -0.3056 -0.0358
35465W        W42065  20.872   1.122  33.635  0.1217  0.0209 -0.0061
35466W        W42066  23.196   2.517   5.201 -0.0256 -0.0617  0.0963
35467W        W42067   0.647   2.922  14.590  0.2112  0.2548 -0.0390
35468W        W42068  15.444   3.176  29.895 -0.2135  0.2398  0.1231
35469W        W42069  17.680   0.791  34.632  0.1544 -0.1437 -0.0257
35470W        W42070  25.750   3.611  30.314  0.3768 -0.1947 -0.0247
35471W        W42071  10.914   3.380  25.384 -0.1293  0.1119 -0.1053
35472W        W42072  18.893   0.601  10.632  0.1000 -0.0637  0.0203
35473W        W42073  21.298   4.799   7.018  0.4435  0.1100 -0.0288
35474W        W42074  12.408   1.568  29.126  0.1944  0.0550 -0.2969
35475W        W42075  23.990   2.518   3.086  0.1255 -0.1175  0.3429
35476W        W42076  24.018   5.946  31.299  0.0818 -0.2583  0.0287
35477W        W42077  12.200   3.295   5.999 -0.2772 -0.0833  0.1807
35478W        W42078  21.257   5.494  23.899  0.1220  0.1917 -0.2433
35479W        W42079   6.166   1.917  30.390  0.1100  0.0346  0.0031
35480W        W42080  19.609   5.127  34.288 -0.3309 -0.1043  0.1027
35481W        W42081   9.942   0.992  34.123 -0.0603 -0.5095  0.0035
35482W        W42082  13.011   5.251  31.174 -0.1889  0.2732  0.1766
35483W        W42083  24.583   0.986  33.649  0.1083 -0.0895 -0.0703
35484W        W42084  24.164   1.458  29.795  0.1994  0.0980 -0.0770
35485W        W42085  19.543   4.971   0.807  0.1167 -0.0766  0.0422
35486W        W42086  11.855   0.050  31.531  0.0370  0.1488 -0.1140
35487W        W42087   5.951   6.152  27.422  0.0950  0.2125 -0.1073
35488W        W42088   6.636   1.753   9.218 -0.0638  0.0959  0.2583
35489W        W42089  16.119   6.440  26.637  0.0876 -0.1670 -0.3181
35490W        W42090  11.190   1.464  14.965  0.0861 -0.0414 -0.1435
35491W        W42091   7.656   4.950   4.900  0.1730 -0.3464 -0.1001
35492W        W42092   4.644   5.617   7.289 -0.4123  0.1167  0.0197
35493W        W42093  14.954   0.473  26.323  0.1496 -0.1450 -0.0768
35494W        W42094  17.174   5.474  23.632 -0.1156 -0.0398 -0.1097
35495W        W42095   7.038   6.251  34.719 -0.0968 -0.3126 -0.0242
35496W        W42096   7.335   3.845  30.515  0.0481 -0.1158 -0.1046
35497W        W42097  24.608   4.600  28.672 -0.2144 -0.1460 -0.1255
35498W        W42098  25.786   2.839   9.427 -0.0973  0.3152 -0.2959
35499W        W42099  18.446   4.361   9.849  0.0547  0.3817 -0.0532
35500W        W42100  11.021   5.879  11.808  0.1656  0.0959  0.0825
35501W        W42101  21.508   3.073  14.731 -0.3632  0.0739  0.0966
35502W        W42102  12.196   2.870  33.505 -0.2602  0.1113 -0.1190
35503W        W42103  21.858   5.528   4.649  0.2890 -0.0052  0.0377
35504W        W42104   2.303   3.752  31.190 -0.1977 -0.1288  0.1226
35505W        W42105   5.391   6.474   5.492 -0.0104  0.0731 -0.5612
35506W        W42106  19.909   5.329  29.090  0.1498  0.1334  0.2487
35507W        W42107  19.924   0.493  12.358  0.1076  0.0067 -0.1454
35508W        W42108  17.111   3.484  23.534 -0.3196 -0.2571 -0.0146
35509W        W42109  13.071   6.068   9.212  0.1214 -0.0577 -0.0778
35510W        W42110  10.929   4.620   3.588  0.2186 -0.1533 -0.2579
35511W        W42111  21.452   1.310  33.980 -0.1009 -0.0184 -0.1993
35512W        W42112  11.796   2.277   6.139  0.2540 -0.6462 -0.2119
35513W        W42113  11.232   3.089   9.463  0.0163  0.0575 -0.2029
35514W        W42114  23.837   3.766   5.788  0.3152 -0.1065 -0.1095
35515W        W42115   8.565   5.604  23.603  0.1689 -0.1533 -0.2296
35516W        W42116   6.383   1.622  30.039  0.1468 -0.2390  0.1175
35517W        W42117  25.409   4.810   7.519 -0.3746  0.2508  0.0251
35518W        W42118  23.213   5.487   7.000  0.0221  0.0141  0.1141
35519W        W42119   1.675   0.575  25.918 -0.1074  0.0743  0.2732
35520W        W42120  12.083   6.359   6.524  0.1118  0.1059  0.0507
35521W        W42121  13.853   2.497   3.229  0.3136 -0.2051  0.0058
35522W        W42122   3.559   2.030  22.607  0.0141 -0.1739  0.0292
35523W        W42123   7.958   6.396  30.509 -0.0300 -0.0490 -0.2680
35524W        W42124   8.877   5.722   5.616 -0.0455  0.0980 -0.1823
35525W        W42125   4.310   0.719  12.153 -0.0271 -0.2584  0.0228
35526W        W42126   3.209   2.923  20.986  0.0120  0.0797  0.1491
35527W        W42127  24.104   0.276  21.474 -0.1949 -0.2747  0.1395
35528W        W42128  18.015   2.920  27.482 -0.0921 -0.2121 -0.0130
35529W        W42129  17.768   5.038   2.790 -0.2035  0.3641  0.0851
35530W        W42130   8.600   4.920  14.144  0.1376 -0.2057  0.0556
35531W        W42131  17.014   0.116   0.268  0.0523  0.1719 -0.2525
35532W        W42132  10.748   6.294  12.912  0.1161  0.0291 -0.0275
35533W        W42133   2.553   3.333   4.369 -0.1272  0.1127  0.0309
35534W        W42134  10.663   0.496   9.124  0.1358  0.1819  0.2437
35535W        W42135  16.414   5.713   2.584  0.1196  0.1903 -0.0943
35536W        W42136   0.648   1.076  10.042  0.2299  0.1572 -0.2118
35537W        W42137  18.906   1.581  10.834 -0.1856 -0.1121  0.0786
35538W        W42138   5.901   5.282  26.685 -0.2241 -0.1622 -0.0055
35539W        W42139  19.806   6.307  23.255  0.1420 -0.2297 -0.1827
35540W        W42140   7.633   2.386  15.340 -0.0916  0.2916 -0.3722
35541W        W42141  22.785   2.847   1.253  0.0679  0.0089  0.0666
35542W        W42142  24.711   6.058   8.309  0.0391  0.0748 -0.2023
35543W        W42143  11.961   5.306  33.199  0.3771  0.0976 -0.0392
35544W        W42144  19.081   0.956   6.866 -0.0867 -0.1002 -0.1498
35545W        W42145  19.255   5.981  24.660  0.1401 -0.1094  0.1504
35546W        W42146   4.707   6.485  27.106  0.1254 -0.0108 -0.0622
35547W        W42147   4.910   4.044  24.681  0.1465 -0.3184  0.1889
35548W        W42148  12.636   1.002   8.960  0.0244  0.0657  0.3197
35549W        W42149   6.351   2.208   2.221 -0.0288  0.0931 -0.0549
35550W        W42150  23.572   2.731   4.646  0.2850 -0.2118  0.1780
35551W        W42151   2.526   5.382  33.916  0.4353 -0.0187  0.2683
35552W        W42152  25.252   0.589  20.561  0.0496 -0.1933 -0.0169
35553W        W42153   6.426   6.524  25.764 -0.0959  0.0941  0.1426
35554W        W42154  19.239   0.519   8.502  0.0289 -0.0686  0.1435
35555W        W42155  10.612   1.700  21.579 -0.1118 -0.2088  0.0640
35556W        W42156   7.706   6.083   4.578 -0.0163 -0.0678  0.0824
35557W        W42157  25.542   6.185  33.591  0.3596  0.1271 -0.0307
35558W        W42158  25.261   0.980  33.590 -0.0527 -0.3103 -0.1223
35559W        W42159  23.788   4.737  12.915 -0.0298  0.0908  0.1928
35560W        W42160   9.453   5.507  30.106  0.0043 -0.0970  0.0978
35561W        W42161   3.712   2.651  26.147  0.2488 -0.2596 -0.1783
35562W        W42162  22.309   5.407  14.222  0.0038  0.0412 -0.0575
35563W        W42163   9.402   1.770   2.691 -0.0668  0.2135  0.1814
35564W        W42164  12.146   3.093  23.145  0.1432  0.2111  0.1838
35565W        W42165   0.960   5.343   8.953 -0.3377 -0.3581  0.0770
35566W        W42166  10.561   3.650  25.099  0.3050  0.2033 -0.0943
35567W        W42167  21.234   4.260  27.347 -0.0676 -0.0736  0.4526
35568W        W42168  24.545   6.343  10.976  0.0315  0.1576 -0.0806
35569W        W42169   1.534   5.284   0.710 -0.0777 -0.1863  0.0544
35570W        W42170  16.052   1.965   7.511  0.2333 -0.4531 -0.0315
35571W        W42171   7.663   3.659  24.683  0.2057 -0.0871  0.1891
35572W        W42172  21.304   6.524   8.503 -0.1728  0.0718 -0.2453
35573W        W42173  20.846   0.398   1.013 -0.0741  0.1060  0.0276
35574W        W42174  12.220   3.663  15.226 -0.0970 -0.1105  0.1138
35575W        W42175  20.346   6.438   3.849  0.1487 -0.2439  0.2282
35576W        W42176   5.012   3.667   7.930 -0.0317 -0.2146  0.0710
35577W        W42177  23.276   6.426   5.524 -0.0207 -0.2576  0.1611
35578W        W42178  20.985   0.835  14.805 -0.2426 -0.0303 -0.4661
35579W        W42179  14.259   4.790  22.513  0.0323 -0.0284  0.1993
35580W        W42180  23.252   5.592  15.243 -0.1827 -0.1201 -0.0047
35581W        W42181  14.628   3.782   5.080 -0.4950 -0.1704  0.2940
35582W        W42182   8.742   5.332  27.178  0.1208  0.1259  0.0668
35583W        W42183   9.159   3.522   6.220  0.0459 -0.0754 -0.1463
35584W        W42184  10.072   2.833  27.081  0.0234 -0.2576 -0.4679
35585W        W42185   2.086   4.758  25.784  0.2885 -0.1489  0.0965
35586W        W42186   7.765   5.740  34.537  0.1363 -0.0734  0.0532
35587W        W42187  25.945   1.746  31.314 -0.0414 -0.3956  0.0455
35588W        W42188  15.105   3.222  30.644  0.0032 -0.1044  0.0690
35589W        W42189  15.093   1.642   2.852  0.1713 -0.2534  0.5811
35590W        W42190  25.410   0.517   6.857  0.2871 -0.0759  0.0003
35591W        W42191   6.295   5.801  24.882  0.0704 -0.0211 -0.2829
35592W        W42192  10.809   0.693  35.488  0.3090  0.2261  0.1661
35593W        W42193   6.419   5.237  27.250 -0.2824 -0.3143 -0.1353
35594W        W42194   2.359   5.187  31.184 -0.2320  0.1382 -0.0500
35595W        W42195   4.381   1.604   3.015 -0.1512  0.2789 -0.1415
35596W        W42196  24.498   3.074  32.769  0.0428  0.2815 -0.0664
35597W        W42197  11.361   1.840  10.678 -0.0370  0.1285 -0.0672
35598W        W42198   9.155   1.758  25.922 -0.2035  0.0069  0.0258
35599W        W42199   9.070   4.135  10.183  0.0058  0.1556 -0.2707
35600W        W42200  16.278   5.031  34.385  0.0973 -0.0949 -0.1702
35601W        W42201  24.151   5.403   6.336 -0.1227 -0.0608 -0.1038
35602W        W42202   6.989   3.793  15.799 -0.1393 -0.2287  0.1982
35603W        W42203  20.515   3.951  21.376  0.1790  0.0946 -0.1625
35604W        W42204   7.160   5.773   7.867 -0.1480 -0.1401  0.2278
35605W        W42205  21.770   1.039  12.915 -0.0610 -0.0506 -0.0011
35606W        W42206  22.171   3.058   6.904 -0.1901  0.3034 -0.1476
35607W        W42207  19.594   0.413   2.726 -0.0812 -0.0129 -0.1141
35608W        W42208  11.812   5.618  34.074 -0.1412 -0.0860 -0.0262
35609W        W42209  19.161   2.873  23.084  0.0978 -0.1584  0.0562
35610W        W42210   0.123   4.898   7.506  0.1100 -0.2450  0.0384
35611W        W42211   3.312   2.009  12.344 -0.0120  0.1436  0.0885
35612W        W42212   6.221   3.795   0.419 -0.0390 -0.1309  0.0252
35613W        W42213  11.647   4.121  28.131 -0.1801  0.3484 -0.0211
35614W        W42214  17.192   2.836  12.031 -0.0916 -0.0397 -0.1572
35615W        W42215   0.519   4.693  12.499 -0.2396  0.0213  0.2332
35616W        W42216  10.812   4.512  27.118  0.0811 -0.0269 -0.5766
35617W        W42217  14.388   4.793  34.384  0.1282 -0.0424 -0.0678
35618W        W42218  16.701   1.351  22.241  0.1126  0.0394  0.2882
35619W        W42219  25.225   6.488  14.073  0.1306 -0.1460 -0.0203
35620W        W42220  10.683   3.234  35.343 -0.2896 -0.3689  0.0800
35621W        W42221   8.441   3.975  14.180  0.1083  0.0286 -0.0210
35622W        W42222  19.404   3.758  14.835  0.2287 -0.0659 -0.0699
35623W        W42223  26.397   5.369   6.242  0.3034  0.2638  0.2419
35624W        W42224   4.219   3.666  31.743  0.0066 -0.0431  0.0441
35625W        W42225  17.420   1.676  21.044 -0.0674 -0.2366  0.0162
35626W        W42226  21.459   3.524  33.448 -0.0129 -0.0213  0.0712
35627W        W42227  19.095   0.596  24.842 -0.1243  0.0150 -0.1731
35628W        W42228  14.470   4.197  31.475  0.1245  0.1594  0.3221
35629W        W42229  24.134   2.363   5.313  0.0311  0.0757  0.1933
35630W        W42230   4.475   2.526   4.052 -0.2428 -0.1678 -0.1174
35631W        W42231   6.971   1.308  21.752  0.3872 -0.1596  0.0711
35632W        W42232  17.696   1.441   1.596 -0.1792  0.1590  0.1295
35633W        W42233  24.112   6.219  30.895 -0.1717 -0.1094  0.0311
35634W        W42234   5.792   1.316  30.297  0.1222  0.1461  0.1525
35635W        W42235  10.657   4.003  28.151 -0.0326  0.0685  0.0732
35636W        W42236   3.684   5.625  23.258 -0.1055 -0.2974  0.1873
35637W        W42237  24.690   0.096  12.200 -0.1088  0.0402 -0.1322
35638W        W42238  24.225   3.947  14.220 -0.3106 -0.3877 -0.0859
35639W        W42239   0.432   1.281   3.927 -0.0365  0.1872 -0.1771
35640W        W42240  21.636   6.443  10.762  0.0770  0.0349 -0.0534
35641W        W42241   8.896   6.251   3.904 -0.0051  0.3976  0.2105
35642W        W42242  19.909   6.543  12.447  0.1133 -0.0261  0.3306
35643W        W42243   2.908   2.954  34.270 -0.1565 -0.2165 -0.1190
35644W        W42244  10.963   1.063  23.653 -0.2879  0.2383 -0.0877
35645W        W42245  19.080   3.187  11.311 -0.0352  0.2166 -0.1678
35646W        W42246  21.997   2.584  10.697 -0.1938 -0.0680 -0.2340
35647W        W42247  12.137   3.472   8.378  0.1681  0.0066 -0.2932
35648W        W42248  22.924   0.393  21.886 -0.1234  0.2320 -0.1499
35649W        W42249  23.384   0.586  10.386 -0.1398  0.2593  0.0769
35650W        W42250  16.827   2.099   8.655  0.0565 -0.1353 -0.0984
35651W        W42251   6.763   3.505  31.652 -0.1936 -0.0769 -0.0126
35652W        W42252  21.320   2.078  20.866 -0.1467  0.2021  0.0702
35653W        W42253  24.789   0.126  33.662 -0.1741  0.0995 -0.0582
35654W        W42254  10.147   1.814   0.596  0.0422 -0.3089  0.1006
35655W        W42255  17.367   0.827   3.401  0.2088 -0.0014  0.3229
35656W        W42256  14.810   3.252   7.337 -0.0605  0.2151  0.0687
35657W        W42257  24.937   1.130   4.367 -0.1471  0.0796 -0.0179
35658W        W42258  11.567   5.038  21.765 -0.0607 -0.0928 -0.0399
35659W        W42259   0.269   1.940  22.898 -0.2051  0.0312 -0.1853
35660W        W42260  12.377   3.503  29.202 -0.0247 -0.1366 -0.0313
35661W        W42261  25.045   0.145  35.173 -0.3457 -0.2292  0.0388
35662W        W42262  26.412   6.200  30.836 -0.1305  0.0608 -0.1425
35663W        W42263  10.462   0.798  34.129 -0.2473 -0.3429 -0.0127
35664W        W42264  26.361   5.796  14.622  0.2276  0.0568  0.0759
35665W        W42265   6.804   1.361  20.918 -0.1803 -0.1864  0.1218
35666W        W42266  20.627   4.149  14.788  0.4302 -0.0768 -0.0265
35667W        W42267  20.168   0.042   8.359  0.0975 -0.0629  0.3010
35668W        W42268  18.403   5.838  35.716  0.1036  0.2687 -0.1600
35669W        W42269  13.446   3.638   2.902  0.1615 -0.1385  0.2220
35670W        W42270  10.958   0.291  28.891 -0.1013  0.2145  0.0920
35671W        W42271   3.552   5.255  26.412  0.0529 -0.0262 -0.1264
35672W        W42272  10.600   2.613  26.362  0.0283 -0.1131 -0.1552
35673W        W42273  18.100   3.881  25.905  0.0238 -0.1978  0.5113
35674W        W42274   5.433   2.920   3.134  0.0180 -0.1010 -0.0075
35675W        W42275  24.092   1.776  28.524  0.0092  0.1117 -0.0780
35676W        W42276   5.467   6.013  14.941  0.0185  0.2056 -0.1674
35677W        W42277  10.997   1.717   2.251 -0.0658  0.1518 -0.1070
35678W        W42278   7.274   6.522  13.385 -0.0853  0.1068  0.0400
35679W        W42279   2.716   6.165  10.550  0.0236  0.0662  0.0741
35680W        W42280  22.038   2.376  23.453 -0.0401  0.0261 -0.0836
35681W        W42281  19.619   1.807  11.925  0.0113 -0.1691 -0.1882
35682W        W42282  25.812   2.804  26.193 -0.0294  0.0675 -0.1054
35683W        W42283   4.013   3.816  11.449 -0.2164  0.0882  0.0106
35684W        W42284  17.240   2.280  31.801  0.1560  0.1233 -0.1153
35685W        W42285  12.623   5.595   2.156  0.0349 -0.2061  0.1924
35686W        W42286  13.559   3.523  27.515  0.1055  0.0322 -0.1284
35687W        W42287  16.170   6.056  25.199  0.2604  0.2387  0.0312
35688W        W42288  23.966   0.792  14.623 -0.1829  0.1873  0.1451
35689W        W42289  22.195   4.661   0.035  0.0362 -0.1376 -0.1522
35690W        W42290  11.776   2.467   1.380 -0.1581  0.1562 -0.5292
35691W        W42291  15.614   1.552  12.126  0.4381 -0.0362  0.1626
35692W        W42292   8.779   6.337   1.928 -0.2788 -0.0176 -0.0183
35693W        W42293  23.743   1.526  11.007  0.0043  0.0876  0.0431
35694W        W42294  21.810   2.721   2.205  0.0051  0.0884 -0.0585
35695W        W42295  11.215   6.203  14.095 -0.1027  0.2369  0.0486
35696W        W42296  17.263   2.534  11.603 -0.0400  0.0076  0.4129
35697W        W42297  23.661   5.176   1.119  0.1837 -0.3234  0.0454
35698W        W42298   7.328   5.789  23.938 -0.3787  0.0268  0.2641
35699W        W42299   4.536   2.464   5.499  0.4372 -0.3238 -0.0465
35700W        W42300  18.851   2.989  10.083 -0.5027 -0.1138  0.0226
35701W        W42301   0.944   2.616   2.902  0.0447  0.3735 -0.2361
35702W        W42302   0.960   2.877   9.118  0.2238  0.0030 -0.2065
35703W        W42303  19.106   3.175   6.222 -0.1153 -0.1363 -0.0688
35704W        W42304  13.872   2.831  25.369  0.3046 -0.3317  0.0806
35705ION     NA42305  11.516   3.920  24.246  0.0505 -0.3906  0.1549
35706ION     NA42306  12.017   2.085  34.842 -0.5623 -0.1831  0.5013
35707ION     NA42307  22.004   1.752  11.547 -0.2693  0.4691 -0.3909
35708ION     NA42308  14.022   4.038   0.032 -0.3576 -0.1048  0.0903
35709ION     NA42309  13.435   4.551  25.025 -0.2045 -0.1004  0.4287
35710ION     NA42310  13.829   0.652  35.516  0.0191 -0.5554 -0.1597
35711ION     NA42311  16.974   6.270  23.508  0.3940 -0.3435 -0.4248
35712ION     NA42312  12.427   5.564  13.770  0.0323 -0.0817  0.1830
35713ION     NA42313   3.855   0.210  30.352 -0.1938  0.3011 -0.0323
35714ION     NA42314  25.089   4.066   1.133  0.1184 -0.3261  0.6298
35715ION     NA42315  25.535   5.166  30.898  0.1155  0.1833 -0.7763
35716ION     NA42316  13.746   3.131  11.758 -0.3635  0.0988  0.0706
35717ION     NA42317  13.044   6.080   7.785  0.2759 -0.3246  0.2178
35718ION     NA42318  16.753   2.202   5.383 -0.0608 -0.3715  0.2034
35719ION     NA42319  13.311   2.622   2.471  0.0688  0.2816  0.0506
35720ION     NA42320  19.294   4.711   2.415 -0.0520 -0.0265 -0.3513
35721ION     NA42321  15.214   5.762   9.279  0.0571  0.1879 -0.0439
35722ION     NA42322   2.854   5.751  30.935  0.3749  0.0049  0.2953
35723ION     NA42323  18.856   0.616  28.119 -0.1809 -0.3304  0.2770
35724ION     NA42324  25.293   0.968   4.079 -0.3265  0.1682  0.1185
35725ION     NA42325   1.603   2.479  35.541 -0.1044 -0.0004  0.0347
35726ION     NA42326   2.128   2.956   1.497 -0.1433  0.2394 -0.1491
35727ION     NA42327  12.007   6.040   5.347  0.0032  0.0911  0.0251
35728ION     NA42328   2.843   5.830  32.597 -0.1800 -0.3082  0.1969
35729ION     NA42329  12.676   4.083  31.042 -0.5071  0.0590 -0.3365
35730ION     NA42330  24.830   4.707  34.917  0.0354 -0.2425 -0.4673
35731ION     NA42331  18.871   1.222   3.468  0.5553  0.0910 -0.6178
35732ION     NA42332  11.703   0.434  28.481  0.4023 -0.4154  0.2440
35733ION     NA42333   6.252   4.731   9.223  0.0291 -0.1179 -0.1964
35734ION     NA42334   6.059   6.384   0.530  0.0662  0.2982  0.2584
35735ION     NA42335  14.406   3.078   8.156 -0.0247 -0.1684 -0.3842
35736ION     NA42336  13.076   2.517  11.846  0.0599 -0.2639  0.0829
35737ION     NA42337  11.299   0.634  14.604 -0.4286 -0.1849  0.1070
35738ION     NA42338  12.523   6.397   8.719 -0.1046  0.0888 -0.3891
35739ION     NA42339  22.756   2.058   8.620  0.1570 -0.2923 -0.0159
35740ION     NA42340   8.402   5.192   2.165  0.1571 -0.1351  0.2201
35741ION     NA42341  16.622   4.523   9.776 -0.0133 -0.2680  0.0852
35742ION     NA42342   6.545   4.977   5.396 -0.0213 -0.1127  0.2357
35743ION     NA42343   5.565   3.410   6.610  0.0231  0.3289 -0.2009
35744ION     NA42344   3.620   5.744  24.954 -0.5421 -0.0394  0.1441
35745ION     NA42345  13.010   2.776   7.122  0.1912 -0.3231  0.0516
35746ION     NA42346   6.818   5.821  10.251 -0.3119 -0.2084  0.3087
35747ION     NA42347  10.211   0.763   3.917  0.2342  0.4073 -0.0090
35748ION     NA42348   7.725   2.023  11.682  0.2119  0.0836 -0.1542
35749ION     NA42349  25.401   5.020  31.781  0.5136  0.0289  0.0602
35750ION     NA42350  16.022   5.221  26.490  0.3057  0.0448  0.3034
35751ION     NA42351  17.156   6.564  31.215  0.1453 -0.0041  0.4966
35752ION     NA42352   9.992   2.170   6.323  0.0490 -0.1357  0.2869
35753ION     NA42353  14.028   1.734  11.697  0.2691 -0.2413 -0.3409
35754ION     NA42354  14.360   3.546   8.794  0.0557 -0.5749  0.0124
35755ION     NA42355   1.509   0.921  28.696 -0.1592  0.1333 -0.0908
35756ION     NA42356  16.066   2.119  31.847  0.2167  0.4363  0.4808
35757ION     NA42357  16.230   6.205   6.152  0.2484  0.6841 -0.1639
35758ION     NA42358  19.441   3.802  21.997 -0.1779  0.5812 -0.2348
35759ION     NA42359  13.900   4.028   7.470  0.3498 -0.0637 -0.1004
35760ION     NA42360  10.955   1.758   9.181 -0.0509  0.0148  0.1891
35761ION     NA42361  14.271   1.452  27.597  0.1618 -0.3502  0.4723
35762ION     NA42362  12.071   3.408   3.481  0.1364  0.2506 -0.2993
35763ION     NA42363  19.900   0.132  22.841  0.4017  0.1809 -0.2988
35764ION     NA42364  23.583   3.571   5.502 -0.0182  0.1213 -0.1297
35765ION     NA42365   0.312   4.146  27.486  0.0566 -0.3299  0.0988
35766ION     NA42366   9.016   0.972  14.530  0.3844 -0.2969 -0.1058
35767ION     NA42367   2.678   1.728   5.684 -0.0377 -0.2763  0.0556
35768ION     NA42368  21.924   1.729  12.922 -0.1650  0.0213  0.0951
35769ION     NA42369  15.246   0.408   6.118 -0.5882 -0.1809  0.4992
35770ION     NA42370   7.959   2.241   0.871 -0.0952 -0.1083  0.2189
35771ION     NA42371  26.105   0.962   8.817  0.4104 -0.2378 -0.3683
35772ION     NA42372  14.497   6.206  21.458 -0.5379  0.0020 -0.0100
35773ION     NA42373   4.502   3.445  24.539  0.3470  0.0563  0.2374
35774ION     NA42374  22.295   0.080  33.787 -0.1346 -0.0958 -0.0080
35775ION     NA42375   5.242   3.763   8.802  0.1865  0.0231 -0.1884
35776ION     NA42376  16.066   2.327  21.804 -0.3271  0.3033  0.5163
35777ION     NA42377   4.471   4.160   3.555  0.1612  0.0171  0.1945
35778ION     NA42378  25.707   0.981  32.633 -0.6827 -0.0276  0.1522
35779ION     NA42379  10.197   3.092   5.141 -0.1363  0.2053  0.1206
35780ION     NA42380  11.324   1.790  31.371  0.3009 -0.4128 -0.2806
35781ION     NA42381  25.281   4.179  31.423  0.0727  0.1272 -0.3424
35782ION     NA42382  13.600   6.355  13.653 -0.2058 -0.0311  0.0461
35783ION     NA42383  12.928   0.903   2.127  0.1566  0.1383 -0.3715
35784ION     NA42384   3.498   5.989  21.739  0.2019 -0.4210  0.0636
35785ION     NA42385   3.619   5.216   7.425 -0.0534  0.2548  0.2036
35786ION     NA42386  16.276   4.524  23.513  0.2188 -0.1693  0.2139
35787ION     NA42387  10.903   5.286  26.308  0.5131 -0.3595  0.0105
35788ION     NA42388  20.973   0.964  28.581  0.1452 -0.1574  0.0191
35789ION     NA42389  11.517   5.702  10.303 -0.2612 -0.2239 -0.4405
35790ION     NA42390   8.087   2.861  13.021  0.0958  0.0635  0.2309
35791ION     NA42391  18.152   0.340  28.659  0.2717  0.0852 -0.3697
35792ION     NA42392  13.728   6.108  23.731  0.1672 -0.1799  0.0352
35793ION     NA42393  22.156   3.121  22.650  0.2607 -0.4372 -0.1320
35794ION     NA42394   9.834   2.524  23.418  0.2848 -0.0834 -0.5145
35795ION     NA42395  26.429   1.044  31.371 -0.3225  0.0913 -0.0768
35796ION     NA42396   3.513   5.484  13.739  0.1103  0.3499 -0.0123
35797ION     NA42397   8.700   4.875  22.381  0.3095  0.1655  0.3257
35798ION     NA42398   7.569   0.114   5.128 -0.4759  0.0182 -0.0736
35799ION     NA42399   6.533   1.350   0.109 -0.0273  0.0725  0.0114
35800ION     NA42400  24.012   3.283  21.928 -0.3330 -0.1052  0.2209
35801ION     NA42401  11.985   5.517   4.251  0.1139 -0.2139 -0.3133
35802ION     NA42402  22.256   4.643  30.596  0.1135  0.1560 -0.2026
35803ION     NA42403  17.287   0.664  24.228 -0.1854  0.1167  0.0184
35804ION     NA42404   1.065   0.343  13.464 -0.3553  0.2055  0.0025
35805ION     NA42405   1.556   1.885   2.841  0.0191 -0.0794  0.2903
35806ION     NA42406   8.951   0.025   4.514 -0.1814 -0.2075  0.0606
35807ION     NA42407  19.524   1.687   4.948  0.4372  0.0111  0.3035
35808ION     NA42408  17.738   4.392   8.103 -0.0561 -0.0593 -0.1794
35809ION     NA42409  15.116   5.620  35.285  0.0282 -0.2297 -0.4192
35810ION     NA42410  12.130   3.245  34.816 -0.2605  0.1302  0.2583
35811ION     NA42411  16.116   4.360  31.225 -0.3836 -0.5213 -0.3544
35812ION     NA42412   5.708   1.034  29.126 -0.2120 -0.1742  0.0816
35813ION     NA42413   7.561   2.681   6.799 -0.2858  0.2936  0.2040
35814ION     NA42414  20.094   1.333   5.762  0.0990 -0.4903  0.1004
35815ION     NA42415  25.122   4.960  11.946 -0.1963 -0.2957 -0.3008
35816ION     NA42416  10.996   2.516  25.699 -0.3210 -0.3748  0.2746
35817ION     NA42417  22.853   6.122   1.625  0.2867 -0.2277 -0.5717
35818ION     NA42418  10.877   5.172   4.042  0.0657 -0.1725 -0.0641
35819ION     NA42419  21.993   1.636  27.867 -0.1983  0.0955  0.0259
35820ION     NA42420  12.881   0.776  32.729  0.1319  0.1388 -0.3221
35821ION     NA42421  16.166   3.138  28.323 -0.1820 -0.4384 -0.4020
35822ION     NA42422  11.429   0.600   4.462  0.1690 -0.0365 -0.2912
35823ION     NA42423  26.075   1.256  10.852 -0.0254  0.0233 -0.1205
35824ION     NA42424  12.335   3.884  12.781  0.0089  0.4161 -0.4513
35825ION     NA42425  26.287   3.968   5.793 -0.0291  0.2724  0.0635
35826ION     NA42426  11.906   0.823  14.178  0.4515 -0.1205 -0.0415
35827ION     NA42427  18.936   5.066   4.756 -0.3002 -0.0242 -0.0897
35828ION     NA42428   6.127   6.423  29.435  0.0590  0.0769  0.2401
35829ION     NA42429  24.865   1.721   0.408 -0.0161  0.0678 -0.0916
35830ION     NA42430   4.334   2.622   7.313  0.0155 -0.1062 -0.1505
35831ION     NA42431   0.185   4.417  10.976  0.2868 -0.3094  0.7410
35832ION     NA42432  17.019   2.751   4.260 -0.0292  0.0380  0.1068
35833ION     NA42433   7.653   5.748  33.710 -0.1097  0.1536 -0.2278
35834ION     NA42434  15.555   0.481   7.981  0.5327  0.1539  0.3753
35835ION     NA42435  20.968   3.407  29.024  0.0497  0.0537  0.3181
35836ION     NA42436  23.953   5.790  33.309  0.3119 -0.0831  0.3705
35837ION     NA42437  19.475   0.244   5.582  0.1483 -0.0796 -0.3538
35838ION     NA42438   9.205   1.060  12.012  0.0167  0.0594  0.2072
35839ION     NA42439   6.354   1.839  32.163 -0.5572 -0.1618  0.2414
35840ION     NA42440   8.116   5.209   0.489 -0.1708  0.2947  0.2124
35841ION     NA42441  24.865   2.801  10.637 -0.0610 -0.0367 -0.4454
35842ION     NA42442  10.242   1.568  11.873  0.0862 -0.1623 -0.2993
35843ION     NA42443   1.877   2.877   7.240  0.1239 -0.4033 -0.0628
35844ION     NA42444   1.966   5.574   6.065 -0.2512  0.1494  0.0983
35845ION     NA42445  19.002   3.399   0.310 -0.0760  0.1097 -0.1928
35846ION     NA42446   1.836   5.401   8.691 -0.2075 -0.0388 -0.0026
35847ION     NA42447  25.657   5.258  25.477 -0.1105  0.2300 -0.0852
35848ION     NA42448  20.353   1.855  34.390 -0.1999  0.0533 -0.3733
35849ION     NA42449  19.401   1.767  28.772  0.1450  0.2315  0.2905
35850ION     CL42450  17.853   4.544   7.790 -0.2561 -0.5733 -0.3337
35851ION     CL42451  20.795   6.283  20.735  0.2893  0.1507  0.3371
35852ION     CL42452  25.643   4.955  29.184  0.3720 -0.0135 -0.4523
35853ION     CL42453   1.882   5.059  32.372  0.0831 -0.0912 -0.1299
35854ION     CL42454   2.898   0.506   9.114 -0.1139 -0.1118 -0.0047
35855ION     CL42455   4.506   4.325   7.656 -0.3980  0.0924  0.1312
35856ION     CL42456   8.811   0.294   9.184 -0.4609 -0.1496  0.0032
35857ION     CL42457  19.589   1.398  31.685  0.4257 -0.1582 -0.1063
35858ION     CL42458   5.731   2.243  32.465 -0.2776 -0.1809  0.3836
35859ION     CL42459   1.872   5.340   7.766 -0.0739  0.3572  0.1722
35860ION     CL42460  16.298   2.362  10.221  0.0430 -0.2597  0.0028
35861ION     CL42461   1.849   3.319  25.608 -0.5416  0.0966  0.1690
35862ION     CL42462  12.662   0.278  32.444 -0.3081 -0.0996  0.1647
35863ION     CL42463   5.395   2.456  29.125 -0.1400  0.2385  0.3653
35864ION     CL42464  11.447   2.422  35.292  0.0646 -0.0844 -0.3466
35865ION     CL42465  10.918   1.743  26.497 -0.0981  0.5769  0.0018
35866ION     CL42466   2.065   4.748  22.254 -0.6110 -0.7756 -0.0599
35867ION     CL42467   7.745   2.098  35.693  0.1466  0.1658  0.2476
35868ION     CL42468  11.026   0.677  14.788  0.4065  0.0290  0.2586
35869ION     CL42469  13.568   6.575   2.847 -0.2072  0.3192  0.0971
35870ION     CL42470   5.403   1.147  36.091  0.3027 -0.3432  0.2771
35871ION     CL42471  23.583   4.401   6.266  0.2698 -0.1324 -0.0609
35872ION     CL42472  19.080   1.618  28.793 -0.2488 -0.3928  0.5153
35873ION     CL42473  10.558   3.455  24.644 -0.1591 -0.1201  0.1688
35874ION     CL42474  16.212   2.331  12.204  0.0243  0.3953 -0.2653
35875ION     CL42475   3.382   3.943   1.524 -0.0717  0.2485  0.4000
35876ION     CL42476  11.695   5.193  34.852  0.0203 -0.0507 -0.2299
35877ION     CL42477  16.406   2.863  27.990 -0.1456  0.3177  0.4136
35878ION     CL42478  12.249   4.070  15.035 -0.3060 -0.2175 -0.1028
35879ION     CL42479  16.415   2.301  30.723  0.1805  0.3226 -0.0732
35880ION     CL42480  23.480   2.855  34.046  0.0854  0.1146  0.1784
35881ION     CL42481   2.475   0.007  30.218  0.0484  0.1582 -0.0593
35882ION     CL42482  11.382   3.657   4.214 -0.1174  0.0761 -0.4306
35883ION     CL42483  22.482   2.629   8.100  0.1644  0.2033  0.2714
35884ION     CL42484  23.076   5.112  28.026 -0.8773 -0.0263  0.3795
35885ION     CL42485   7.314   3.515  30.078  0.2539 -0.3758  0.1961
35886ION     CL42486   1.143   2.174  10.479 -0.2539  0.5201  0.0543
35887ION     CL42487  10.192   1.424   3.828  0.5568  0.5257  0.3082
35888ION     CL42488  19.695   1.045   9.499 -0.1662  0.1995  0.2849
35889ION     CL42489  24.128   6.332   3.606 -0.1234  0.1315  0.3643
35890ION     CL42490  12.218   2.108  21.181  0.3883  0.1378 -0.0787
35891ION     CL42491  23.849   2.072  31.561  0.0826 -0.0124 -0.3680
35892ION     CL42492  10.961   0.628  22.191 -0.3453  0.2074 -0.0521
35893ION     CL42493  17.404   5.751  26.517  0.1784  0.0921 -0.4269
35894ION     CL42494   0.006   3.303  14.643 -0.0367 -0.0058 -0.2165
35895ION     CL42495  14.657   6.136  26.261 -0.3260  0.4947  0.2325
35896ION     CL42496   5.616   0.310   9.289 -0.2255  0.4249  0.3191
35897ION     CL42497  12.792   6.483   8.457 -0.1352 -0.0609 -0.1382
35898ION     CL42498  16.323   5.692  30.727  0.0087  0.1312 -0.0105
35899ION     CL42499  23.301   0.873   3.002 -0.3950 -0.1079  0.0558
35900ION     CL42500  18.017   3.383  21.735  0.3875 -0.4036  0.3343
35901ION     CL42501  17.654   0.112   3.707  0.1303  0.2820  0.4052
35902ION     CL42502  23.227   1.214  24.961 -0.1705 -0.1429  0.0130
35903ION     CL42503  16.616   5.552  27.337 -0.4887  0.1020 -0.1082
35904ION     CL42504  22.716   3.474  22.972 -0.2499  0.1305  0.1322
35905ION     CL42505   0.240   4.107  11.737  0.3678 -0.1500  0.3246
35906ION     CL42506  16.335   2.894  21.612 -0.4710  0.3999 -0.3107
35907ION     CL42507   7.434   1.255  24.471 -0.1836  0.2518  0.2683
35908ION     CL42508  25.034   0.869  35.824  0.0672 -0.0497  0.0018
35909ION     CL42509  13.103   3.048  33.167 -0.3895 -0.3804  0.3129
35910ION     CL42510  22.986   1.643  25.329  0.0880  0.0690 -0.0292
35911ION     CL42511   3.288   5.488  23.087 -0.4091  0.3731  0.3975
35912ION     CL42512  17.868   3.157  11.834 -0.1188  0.0494 -0.0082
35913ION     CL42513  24.601   3.630  12.814  0.0664  0.0269 -0.0496
35914ION     CL42514  19.872   3.394  32.898  0.0209 -0.3626 -0.2012
35915ION     CL42515   8.849   4.745   5.893 -0.0388 -0.2718  0.2373
35916ION     CL42516  11.886   1.235  11.525  0.1522 -0.2174  0.3273
35917ION     CL42517  19.348   0.071  35.862 -0.3407 -0.1370  0.3086
35918ION     CL42518   9.162   0.457  26.804 -0.0787  0.0168 -0.1454
35919ION     CL42519   6.828   0.578   7.367 -0.2382 -0.3660 -0.7443
35920ION     CL42520  14.849   1.917   2.582 -0.1051  0.4303 -0.1807
35921ION     CL42521  15.426   5.160  29.905  0.2011  0.1138 -0.5640
35922ION     CL42522   6.995   0.813  10.133 -0.1546  0.0888 -0.3257
35923ION     CL42523   3.569   2.981   5.087  0.2595 -0.4719 -0.4404
35924ION     CL42524   8.450   0.852  33.873  0.1948 -0.1966  0.0810
35925ION     CL42525   2.337   1.983  28.587 -0.5422 -0.0619  0.4818
35926ION     CL42526   4.417   0.694   8.130  0.6791 -0.3340 -0.2623
35927ION     CL42527  16.128   1.898  21.269  0.1509  0.2390  0.1453
35928ION     CL42528  20.401   2.707  30.083 -0.2317  0.2637  0.3218
35929ION     CL42529  15.278   6.335  30.614 -0.1027 -0.2446  0.0856
35930ION     CL42530   5.577   5.794   2.823  0.0633  0.0491 -0.1565
35931ION     CL42531  18.322   1.757  13.067 -0.1894 -0.1848  0.4060
35932ION     CL42532  16.473   5.044  29.761 -0.3377 -0.2282 -0.0519
35933ION     CL42533   0.217   3.405  35.490 -0.2211 -0.2469 -0.1686
35934ION     CL42534  16.915   2.713   0.498  0.2850  0.0764  0.0145
35935ION     CL42535  15.001   3.994  21.248 -0.0269 -0.2256  0.0506
35936ION     CL42536   5.952   3.636   8.953  0.2827  0.0178  0.4227
35937ION     CL42537  11.492   4.754   3.036  0.1331  0.0881 -0.0372
35938ION     CL42538  25.144   1.184   0.142 -0.0865 -0.0688  0.0260
35939ION     CL42539   0.743   5.413  10.956 -0.0280  0.1316  0.0332
35940ION     CL42540  25.152   5.975  23.035 -0.3816  0.0966 -0.2313
35941ION     CL42541  21.864   0.574   9.626 -0.2076 -0.0091 -0.1068
35942ION     CL42542   8.735   2.758  14.836 -0.2530 -0.2395 -0.2320
35943ION     CL42543   7.416   6.307  28.385  0.4631  0.0221 -0.0945
35944ION     CL42544  25.886   0.857  26.108  0.2997 -0.1283  0.0622
35945ION     CL42545   4.077   6.350  27.790 -0.5077 -0.1133  0.0094
35946ION     CL42546   1.424   4.722   5.956 -0.2105  0.0838 -0.0211
35947ION     CL42547   0.105   6.281  14.529  0.5753  0.1361  0.0441
35948ION     CL42548   0.739   4.818  35.394  0.2318 -0.1743 -0.0029
35949ION     CL42549   6.321   1.630   0.014  0.2642 -0.0628 -0.2859
35950ION     CL42550   5.229   3.271   7.385 -0.1766  0.0032  0.0464
35951ION     CL42551   6.072   6.522  33.187 -0.3024 -0.2109 -0.2732
35952ION     CL42552  19.255   4.703   3.721 -0.2187 -0.0792 -0.6167
35953ION     CL42553   1.706   4.292   4.573  0.0615  0.1848 -0.1068
35954ION     CL42554  25.667   5.366  11.539  0.0188  0.2936 -0.0234
35955ION     CL42555   6.459   4.777  25.459  0.1925  0.3140  0.2525
35956ION     CL42556   3.654   5.037   6.787  0.2559  0.5327  0.0314
35957ION     CL42557   4.773   5.993  23.542 -0.2194  0.1605  0.2280
35958ION     CL42558   9.092   3.218  33.953 -0.0683  0.1571  0.0436
35959ION     CL42559  24.389   4.230  32.945  0.6318  0.1019 -0.3376
35960ION     CL42560  17.269   6.488  24.181  0.2370 -0.2121  0.3004
35961ION     CL42561  11.838   5.604  10.544 -0.1963  0.3477 -0.5174
35962ION     CL42562  14.253   5.418  31.669  0.3171 -0.1266  0.5281
35963ION     CL42563   4.947   2.031  28.452  0.0003  0.1739  0.0185
35964ION     CL42564  22.719   4.279  12.449 -0.6673  0.2404 -0.2554
35965ION     CL42565  16.960   1.938  14.809 -0.1517 -0.0120  0.0225
35966ION     CL42566  20.062   6.310   1.661 -0.3065 -0.4276 -0.0590
35967ION     CL42567  16.480   0.045  30.902 -0.1697  0.1734 -0.1351
35968ION     CL42568   9.755   2.219  10.513  0.0198 -0.1275  0.6235
35969ION     CL42569   9.385   0.402  21.788 -0.1014  0.0880  0.0128
35970ION     CL42570  11.999   6.431  24.012 -0.0050 -0.1347  0.4591
35971ION     CL42571   0.256   3.922   3.775 -0.0671 -0.0245 -0.2107
35972ION     CL42572   9.714   5.547  14.227 -0.3719 -0.2935 -0.0742
35973ION     CL42573  12.827   6.521   6.766  0.3590  0.2427  0.1865
35974ION     CL42574   3.475   4.856  22.589  0.0683  0.4889 -0.1627
35975ION     CL42575  14.905   2.651  33.221  0.2485 -0.3203 -0.2578
35976ION     CL42576  17.601   3.806  26.559  0.3139  0.1149 -0.0198
35977ION     CL42577  25.061   1.465   8.429  0.4442  0.2769 -0.2518
35978ION     CL42578  24.463   6.388  32.198  0.3080  0.2058 -0.1651
35979ION     CL42579  23.346   3.219   5.329 -0.1148 -0.4509 -0.2141
35980ION     CL42580  16.189   1.293   3.079  0.1406 -0.2388  0.0115
35981ION     CL42581  22.373   4.304  24.545 -0.1549  0.3759 -0.2688
35982ION     CL42582  12.108   1.836  10.305 -0.2578  0.0714 -0.0710
35983ION     CL42583  11.143   6.567  15.312 -0.2958 -0.1394 -0.0534
35984ION     CL42584  12.655   6.056   9.987 -0.2176 -0.0685  0.2396
35985ION     CL42585   9.147   0.062  26.058  0.3459  0.1693 -0.1500
35986ION     CL42586   8.980   3.230  14.092  0.3236  0.2239  0.4664
35987ION     CL42587   9.456   3.403  35.469  0.0264  0.0134  0.5940
35988ION     CL42588  10.053   5.835   6.737  0.2662  0.3422 -0.1196
35989ION     CL42589   3.405   1.032   2.859 -0.1585 -0.3680 -0.0848
35990ION     CL42590  17.773   4.495  26.400 -0.1472 -0.0649 -0.3032
35991ION     CL42591  17.880   1.521  12.179  0.1513 -0.2136 -0.2417
35992ION     CL42592  19.436   1.789  24.012 -0.1047 -0.2198 -0.3769
35993ION     CL42593   6.344   6.139  15.208  0.1752 -0.1974  0.3080
35994ION     CL42594   5.336   4.109  11.923  0.3244 -0.5407 -0.0134
35995DPPC   NC342595   8.594   2.324  20.789 -0.3750  0.0983  0.0628
35995DPPC   PO442596   8.598   2.482  20.416 -0.0111 -0.1728  0.1623
35995DPPC   GL142597   8.534   2.461  20.026  0.1886  0.3892 -0.0708
35995DPPC   GL242598   8.756   2.256  20.064  0.2025  0.1369 -0.1750
35995DPPC   C1A42599   8.542   2.360  19.711 -0.1078  0.2022 -0.1341
35995DPPC   C2A42600   8.520   2.274  19.340 -0.2865  0.0571  0.3650
35995DPPC   C3A42601   8.533   2.232  18.849 -0.0779  0.0475 -0.4072
35995DPPC   C4A42602   8.519   2.254  18.343  0.2623  0.1293 -0.1658
35995DPPC   C1B42603   9.001   2.220  19.766 -0.2035 -0.1489 -0.1407
35995DPPC   C2B42604   9.001   2.189  19.300  0.0015  0.0453 -0.0511
35995DPPC   C3B42605   8.996   2.224  18.833 -0.1407 -0.1519  0.0755
35995DPPC   C4B42606   9.053   2.165  18.381 -0.2015 -0.0055  0.4393
35996DPPC   NC342607   7.588   3.469  20.143  0.0916 -0.2480 -0.1519
35996DPPC   PO442608   7.780   3.292  20.432  0.0355  0.0379 -0.2431
35996DPPC   GL142609   8.137   3.247  20.186  0.0510 -0.2006 -0.0674
35996DPPC   GL242610   7.949   3.242  19.974 -0.1316  0.3712  0.1912
35996DPPC   C1A42611   8.430   3.227  19.986  0.0086 -0.0177  0.1889
35996DPPC   C2A42612   8.633   3.078  19.650  0.0780 -0.0648  0.1851
35996DPPC   C3A42613   8.681   3.114  19.122 -0.1474 -0.0544  0.0481
35996DPPC   C4A42614   8.634   3.082  18.659 -0.1529 -0.1896  0.0706
35996DPPC   C1B42615   8.020   3.281  19.616 -0.5369  0.1362  0.4980
35996DPPC   C2B42616   8.130   3.244  19.212  0.0876  0.1219 -0.0568
35996DPPC   C3B42617   8.133   3.193  18.756  0.0181 -0.1452  0.1730
35996DPPC   C4B42618   8.132   3.223  18.267 -0.1347 -0.1513  0.1915
35997DPPC   NC342619  12.199   6.584  20.520 -0.1409 -0.1092  0.1853
35997DPPC   PO442620  12.516   6.377  20.460 -0.1219 -0.2370  0.1132
35997DPPC   GL142621  12.505   6.274  20.087 -0.1942  0.0021 -0.1336
35997DPPC   GL242622  12.347   6.603  20.068 -0.1817  0.2005  0.0671
35997DPPC   C1A42623  12.583   6.242  19.712 -0.3231 -0.0421 -0.0264
35997DPPC   C2A42624  12.674   6.242  19.320  0.2074  0.2423  0.1813
35997DPPC   C3A42625  12.695   6.207  18.861  0.0504  0.1522 -0.1597
35997DPPC   C4A42626  12.719   6.242  18.399  0.1371  0.0312  0.2645
35997DPPC   C1B42627  12.456   6.732  19.763  0.2435 -0.0338 -0.0740
35997DPPC   C2B42628  12.479   6.713  19.334 -0.1474 -0.1505  0.1616
35997DPPC   C3B42629  12.532   6.673  18.849 -0.0497  0.0792  0.2254
35997DPPC   C4B42630  12.590   6.693  18.282 -0.3095 -0.1198 -0.0700
35998DPPC   NC342631  11.885   0.381  20.782  0.0894  0.4616 -0.1372
35998DPPC   PO442632  12.255   0.477  20.644  0.0123 -0.1776 -0.0243
35998DPPC   GL142633  12.181   0.790  20.298  0.2835  0.0907 -0.2710
35998DPPC   GL242634  12.493   0.653  20.318 -0.0823  0.0870  0.1456
35998DPPC   C1A42635  11.976   0.913  19.982  0.1907 -0.3044  0.1576
35998DPPC   C2A42636  12.055   1.028  19.593 -0.0491  0.0067  0.0690
35998DPPC   C3A42637  12.146   1.096  19.045 -0.0551  0.2961  0.0968
35998DPPC   C4A42638  12.120   1.039  18.562 -0.0238  0.0489 -0.2307
35998DPPC   C1B42639  12.540   0.615  19.955 -0.3093 -0.0465  0.2323
35998DPPC   C2B42640  12.708   0.484  19.586 -0.0896 -0.1819  0.1138
35998DPPC   C3B42641  12.793   0.444  19.132 -0.1582  0.0202 -0.0927
35998DPPC   C4B42642  12.794   0.435  18.585 -0.2652 -0.2930  0.1344
35999DPPC   NC342643   6.815   3.652  20.690  0.0333  0.0647 -0.0237
35999DPPC   PO442644   6.796   3.311  20.476 -0.3964  0.5060  0.0875
35999DPPC   GL142645   6.950   3.318  20.028  0.1236 -0.0590 -0.3531
35999DPPC   GL242646   6.970   3.578  20.115 -0.0288 -0.1529  0.0184
35999DPPC   C1A42647   7.049   3.268  19.704 -0.3032 -0.1697  0.0162
35999DPPC   C2A42648   7.120   3.409  19.293 -0.0736 -0.0801 -0.2341
35999DPPC   C3A42649   7.160   3.410  18.841 -0.1327  0.0030 -0.0306
35999DPPC   C4A42650   7.243   3.512  18.398  0.0604 -0.1300 -0.3060
35999DPPC   C1B42651   7.208   3.642  19.856  0.2632  0.0508  0.3229
35999DPPC   C2B42652   7.476   3.761  19.631  0.0287 -0.0314 -0.0998
35999DPPC   C3B42653   7.459   3.795  19.096  0.2806 -0.3468 -0.1123
35999DPPC   C4B42654   7.582   3.827  18.627  0.1003  0.2742 -0.2180
36000DPPC   NC342655  10.436   0.530  21.238  0.0824 -0.2564  0.1911
36000DPPC   PO442656  10.271   0.796  20.947  0.0489 -0.1018  0.1194
36000DPPC   GL142657  10.217   0.793  20.504 -0.0574 -0.2410  0.2979
36000DPPC   GL242658  10.250   0.447  20.519  0.0572 -0.0905  0.1193
36000DPPC   C1A42659  10.301   0.806  20.162 -0.1155  0.0180  0.0005
36000DPPC   C2A42660  10.275   0.990  19.788  0.0660  0.4255  0.2956
36000DPPC   C3A42661  10.228   1.009  19.289 -0.2793 -0.2788  0.2267
36000DPPC   C4A42662  10.341   1.084  18.816 -0.2834 -0.0289 -0.0384
36000DPPC   C1B42663  10.346   0.396  20.167 -0.2913 -0.0972  0.2920
36000DPPC   C2B42664  10.467   0.530  19.760 -0.1189  0.0352 -0.1081
36000DPPC   C3B42665  10.457   0.536  19.270  0.1964 -0.0881 -0.2998
36000DPPC   C4B42666  10.470   0.520  18.749  0.0025 -0.2685 -0.1459
36001DPPC   NC342667  13.279   5.636  20.880  0.0299 -0.0593 -0.0887
36001DPPC   PO442668  13.047   5.598  20.563 -0.1568  0.1006 -0.0285
36001DPPC   GL142669  13.208   5.628  20.160  0.4080 -0.0506 -0.2951
36001DPPC   GL242670  13.272   5.431  20.036  0.0854  0.0877  0.0524
36001DPPC   C1A42671  13.268   5.891  19.954 -0.2386 -0.0256 -0.1754
36001DPPC   C2A42672  13.196   6.159  19.664  0.0277  0.2247 -0.0640
36001DPPC   C3A42673  13.179   6.077  19.210  0.1169 -0.1457 -0.1856
36001DPPC   C4A42674  13.162   6.123  18.729 -0.0965 -0.3800 -0.0471
36001DPPC   C1B42675  13.240   5.544  19.683 -0.2602 -0.0069 -0.1378
36001DPPC   C2B42676  13.238   5.571  19.255  0.0005 -0.0442  0.0280
36001DPPC   C3B42677  13.246   5.592  18.746  0.0649  0.0539  0.2997
36001DPPC   C4B42678  13.349   5.605  18.261  0.0211 -0.0551 -0.3062
36002DPPC   NC342679  11.421   1.109  20.556  0.0803  0.0584 -0.2451
36002DPPC   PO442680  11.086   0.936  20.641 -0.1035 -0.0454  0.1606
36002DPPC   GL142681  11.053   0.776  20.253  0.0932 -0.6140  0.0414
36002DPPC   GL242682  11.280   0.815  20.157 -0.2801 -0.0636 -0.0984
36002DPPC   C1A42683  10.856   0.810  19.930 -0.0648 -0.0501  0.2045
36002DPPC   C2A42684  10.793   0.881  19.508 -0.2122 -0.1468  0.0089
36002DPPC   C3A42685  10.762   0.947  19.020 -0.0228  0.2270 -0.0179
36002DPPC   C4A42686  10.807   0.851  18.538  0.0354 -0.1902 -0.3155
36002DPPC   C1B42687  11.232   0.758  19.812 -0.1511  0.1896 -0.2362
36002DPPC   C2B42688  11.289   0.766  19.397 -0.2525  0.0717 -0.1023
36002DPPC   C3B42689  11.277   0.743  18.902  0.1737  0.0625  0.2840
36002DPPC   C4B42690  11.259   0.738  18.367  0.1379 -0.0276 -0.4669
36003DPPC   NC342691  10.592   0.170  20.591 -0.0262  0.1894  0.2147
36003DPPC   PO442692  10.794  -0.147  20.485 -0.1673 -0.1260 -0.0460
36003DPPC   GL142693  10.906   0.021  20.111 -0.0247  0.0617  0.1966
36003DPPC   GL242694  10.798   0.268  20.206 -0.3919 -0.4223 -0.0290
36003DPPC   C1A42695  11.007   0.019  19.747 -0.0081  0.2513 -0.4648
36003DPPC   C2A42696  11.095  -0.070  19.401  0.2072 -0.0125  0.0222
36003DPPC   C3A42697  11.185  -0.049  18.940 -0.0582 -0.0230 -0.2770
36003DPPC   C4A42698  11.235  -0.030  18.441 -0.1767  0.2834 -0.0855
36003DPPC   C1B42699  11.004   0.397  19.920 -0.1532 -0.2752 -0.0324
36003DPPC   C2B42700  10.954   0.413  19.541  0.1137  0.2005  0.0458
36003DPPC   C3B42701  10.968   0.445  19.083  0.0093 -0.0612 -0.0976
36003DPPC   C4B42702  11.013   0.408  18.606 -0.2547 -0.0806 -0.0016
36004DPPC   NC342703   8.388   5.162  21.095  0.0149 -0.1144  0.1422
36004DPPC   PO442704   8.517   4.890  20.862  0.2050  0.1687  0.3692
36004DPPC   GL142705   8.703   4.732  20.473  0.1158 -0.2522  0.0392
36004DPPC   GL242706   8.638   5.028  20.413  0.3985 -0.0406 -0.2139
36004DPPC   C1A42707   8.673   4.594  20.137  0.1821 -0.0648  0.1410
36004DPPC   C2A42708   8.659   4.413  19.759  0.1952  0.2439 -0.0569
36004DPPC   C3A42709   8.703   4.436  19.276  0.1648  0.1282 -0.0144
36004DPPC   C4A42710   8.730   4.434  18.778  0.0099 -0.4172 -0.3531
36004DPPC   C1B42711   8.729   5.088  20.058  0.1152 -0.2405 -0.0608
36004DPPC   C2B42712   8.843   5.255  19.754  0.0725 -0.0400  0.0250
36004DPPC   C3B42713   8.829   5.250  19.224 -0.2132 -0.1437 -0.1131
36004DPPC   C4B42714   8.869   5.356  18.746 -0.2157  0.1681 -0.0404
36005DPPC   NC342715   9.076   5.248  20.265 -0.0227 -0.1916  0.2274
36005DPPC   PO442716   8.853   5.606  20.357 -0.2783 -0.0005  0.0098
36005DPPC   GL142717   8.697   5.716  20.043 -0.1368 -0.2583 -0.3123
36005DPPC   GL242718   8.614   6.018  20.033 -0.0170  0.1971 -0.0733
36005DPPC   C1A42719   8.630   5.675  19.673 -0.1089  0.0503  0.0071
36005DPPC   C2A42720   8.649   5.745  19.264 -0.0286  0.1345  0.3154
36005DPPC   C3A42721   8.742   5.811  18.849 -0.5699  0.1569  0.0595
36005DPPC   C4A42722   8.781   5.835  18.373  0.2353 -0.2456 -0.0730
36005DPPC   C1B42723   8.534   6.115  19.711 -0.2744  0.1068 -0.0363
36005DPPC   C2B42724   8.561   6.291  19.362  0.0499  0.0530  0.0182
36005DPPC   C3B42725   8.585   6.316  18.900 -0.2117  0.0750  0.1061
36005DPPC   C4B42726   8.640   6.351  18.414  0.1782 -0.0598 -0.2037
36006DPPC   NC342727   8.632   6.363  20.846  0.1038 -0.2344  0.0972
36006DPPC   PO442728   8.289   6.346  20.671  0.1793 -0.1510 -0.3742
36006DPPC   GL142729   8.353   6.320  20.279 -0.1894 -0.3324  0.1696
36006DPPC   GL242730   8.637   6.390  20.349 -0.1781  0.0126 -0.0241
36006DPPC   C1A42731   8.322   6.376  19.889 -0.0647 -0.0940 -0.0546
36006DPPC   C2A42732   8.278   6.733  19.654 -0.1165  0.0742  0.3055
36006DPPC   C3A42733   8.316   6.769  19.130 -0.0148 -0.2689 -0.1694
36006DPPC   C4A42734   8.405   6.754  18.607  0.0872 -0.1518 -0.0265
36006DPPC   C1B42735   8.753   6.550  20.054 -0.0276  0.1156 -0.0404
36006DPPC   C2B42736   8.803   6.703  19.650 -0.2979 -0.0215  0.1371
36006DPPC   C3B42737   8.923   6.641  19.181 -0.0415  0.1324 -0.1307
36006DPPC   C4B42738   8.953   6.667  18.676 -0.3017  0.0523 -0.3564
36007DPPC   NC342739   8.935   2.691  20.733 -0.2114 -0.1716  0.2023
36007DPPC   PO442740   8.697   2.983  20.691  0.0209 -0.1436  0.2682
36007DPPC   GL142741   8.942   3.111  20.344  0.4744 -0.1189  0.1634
36007DPPC   GL242742   8.855   2.803  20.270  0.0196  0.0622 -0.2940
36007DPPC   C1A42743   8.982   3.283  20.009 -0.0700 -0.1631  0.1504
36007DPPC   C2A42744   8.988   3.453  19.670  0.1470 -0.1049 -0.1908
36007DPPC   C3A42745   9.042   3.514  19.205 -0.1461  0.2681  0.2971
36007DPPC   C4A42746   9.000   3.506  18.731  0.1229  0.0455 -0.0892
36007DPPC   C1B42747   8.876   2.676  19.900  0.1936 -0.3141  0.0790
36007DPPC   C2B42748   8.839   2.609  19.521  0.1384 -0.1388 -0.0700
36007DPPC   C3B42749   8.772   2.630  19.087  0.1469  0.0514 -0.1205
36007DPPC   C4B42750   8.816   2.606  18.604  0.0118 -0.1018 -0.1137
36008DPPC   NC342751  11.698   5.886  20.836  0.0629 -0.0610  0.2399
36008DPPC   PO442752  11.767   5.488  20.887 -0.0530 -0.0364  0.1230
36008DPPC   GL142753  11.840   5.330  20.423 -0.0582  0.0217 -0.0723
36008DPPC   GL242754  11.913   5.612  20.466  0.2125  0.0513  0.2167
36008DPPC   C1A42755  11.861   5.388  20.059  0.2156 -0.2579  0.0918
36008DPPC   C2A42756  11.981   5.436  19.705 -0.0872  0.0230 -0.3163
36008DPPC   C3A42757  12.004   5.443  19.243 -0.4502 -0.1770  0.0786
36008DPPC   C4A42758  12.058   5.449  18.775  0.0154  0.2814  0.4845
36008DPPC   C1B42759  11.784   5.866  20.197  0.2584  0.2029 -0.3087
36008DPPC   C2B42760  11.704   5.963  19.811 -0.0531  0.2294  0.0800
36008DPPC   C3B42761  11.785   5.952  19.402  0.0174 -0.2332  0.2319
36008DPPC   C4B42762  11.742   5.954  18.907  0.0447  0.0938 -0.2034
36009DPPC   NC342763   9.156   2.340  20.309 -0.1375 -0.2516 -0.0091
36009DPPC   PO442764   8.996   2.067  20.558  0.1110  0.0701  0.1190
36009DPPC   GL142765   8.913   1.751  20.295  0.2670 -0.1283 -0.0375
36009DPPC   GL242766   9.137   1.722  20.144  0.0194  0.1142 -0.0732
36009DPPC   C1A42767   8.714   1.850  19.964 -0.0837 -0.1582  0.1548
36009DPPC   C2A42768   8.642   1.908  19.570  0.0205  0.1586  0.1317
36009DPPC   C3A42769   8.660   1.832  19.061 -0.1684  0.1275  0.1930
36009DPPC   C4A42770   8.705   1.820  18.578  0.0852 -0.1050  0.0704
36009DPPC   C1B42771   9.131   1.778  19.780  0.2614  0.2534 -0.1180
36009DPPC   C2B42772   9.108   1.694  19.356  0.3023 -0.1237 -0.1749
36009DPPC   C3B42773   9.129   1.754  18.887 -0.0735  0.1758  0.0111
36009DPPC   C4B42774   9.311   1.629  18.455 -0.2433 -0.2345 -0.1989
36010DPPC   NC342775  10.832   3.683  20.607 -0.2571  0.0381  0.0577
36010DPPC   PO442776  10.973   3.335  20.684 -0.1348 -0.0113  0.1378
36010DPPC   GL142777  10.909   3.263  20.308 -0.1746  0.3455  0.2338
36010DPPC   GL242778  11.078   3.021  20.169 -0.1695 -0.0682  0.3683
36010DPPC   C1A42779  10.744   3.552  20.104  0.0011 -0.2595  0.5738
36010DPPC   C2A42780  10.804   3.466  19.708 -0.2586  0.0078  0.2565
36010DPPC   C3A42781  10.825   3.512  19.186  0.0264 -0.1302 -0.1739
36010DPPC   C4A42782  10.826   3.498  18.672  0.1742 -0.0954  0.4615
36010DPPC   C1B42783  10.979   3.035  19.819 -0.0427 -0.0819  0.0545
36010DPPC   C2B42784  10.891   3.039  19.411 -0.0102 -0.0057 -0.0507
36010DPPC   C3B42785  10.933   3.028  18.938 -0.3606  0.4575  0.1658
36010DPPC   C4B42786  10.919   3.048  18.421 -0.3912 -0.0850  0.1260
36011DPPC   NC342787  11.221   5.375  21.042 -0.0108  0.0389 -0.1918
36011DPPC   PO442788  11.234   5.746  20.957 -0.1076 -0.0093  0.2337
36011DPPC   GL142789  11.406   5.663  20.465 -0.2059 -0.2497 -0.3944
36011DPPC   GL242790  11.131   5.730  20.455  0.4240  0.1903 -0.1272
36011DPPC   C1A42791  11.449   5.597  20.107  0.1264 -0.1530 -0.0825
36011DPPC   C2A42792  11.415   5.552  19.656 -0.3931  0.4112 -0.1053
36011DPPC   C3A42793  11.508   5.532  19.193  0.1987 -0.6006  0.0581
36011DPPC   C4A42794  11.569   5.572  18.679  0.0086 -0.3462  0.2500
36011DPPC   C1B42795  11.034   5.745  20.066  0.1206 -0.0357  0.0684
36011DPPC   C2B42796  10.936   5.637  19.685 -0.3528  0.0535  0.1421
36011DPPC   C3B42797  10.992   5.689  19.210  0.1227 -0.1896  0.1546
36011DPPC   C4B42798  11.036   5.598  18.741  0.3948  0.2091 -0.0630
36012DPPC   NC342799   9.290   5.943  20.692  0.0413 -0.3364 -0.3636
36012DPPC   PO442800   9.634   5.890  20.531  0.1340 -0.0179 -0.2506
36012DPPC   GL142801   9.627   6.026  20.118 -0.2754 -0.1438  0.3470
36012DPPC   GL242802   9.421   6.176  20.230  0.3828 -0.2362 -0.0511
36012DPPC   C1A42803   9.582   5.902  19.746 -0.2538  0.3478 -0.1247
36012DPPC   C2A42804   9.565   6.002  19.305 -0.0541 -0.2114  0.2800
36012DPPC   C3A42805   9.592   6.024  18.853  0.3297  0.0220  0.2242
36012DPPC   C4A42806   9.526   5.997  18.387 -0.1722 -0.0003 -0.4611
36012DPPC   C1B42807   9.203   6.141  19.949  0.1895  0.0432 -0.0883
36012DPPC   C2B42808   9.016   6.085  19.627 -0.2033  0.0031 -0.1660
36012DPPC   C3B42809   9.059   6.136  19.159 -0.0677  0.0037  0.2684
36012DPPC   C4B42810   9.052   6.172  18.674  0.1294 -0.0769  0.0217
36013DPPC   NC342811  12.441   4.297  20.798 -0.2197 -0.0537 -0.3611
36013DPPC   PO442812  12.302   3.919  20.844 -0.1922  0.2080 -0.1354
36013DPPC   GL142813  12.309   3.727  20.432 -0.0464  0.0624 -0.1669
36013DPPC   GL242814  12.593   3.542  20.419 -0.2542 -0.0733  0.3732
36013DPPC   C1A42815  12.106   3.724  20.110 -0.2641 -0.2850  0.2104
36013DPPC   C2A42816  12.039   3.683  19.687  0.0048 -0.1824 -0.1052
36013DPPC   C3A42817  12.120   3.627  19.183  0.0988 -0.1220  0.0905
36013DPPC   C4A42818  12.093   3.634  18.676  0.0391  0.0095 -0.3649
36013DPPC   C1B42819  12.631   3.547  20.037  0.1403 -0.4930 -0.3273
36013DPPC   C2B42820  12.578   3.554  19.625 -0.0547 -0.2587 -0.1283
36013DPPC   C3B42821  12.658   3.560  19.125 -0.1450  0.1592  0.0906
36013DPPC   C4B42822  12.666   3.465  18.676  0.1368 -0.0840  0.1529
36014DPPC   NC342823  13.482   5.951  20.373  0.0714  0.1644  0.0926
36014DPPC   PO442824  13.644   5.633  20.573  0.1383  0.1354  0.1099
36014DPPC   GL142825  13.684   5.505  20.119 -0.3319 -0.0268 -0.2150
36014DPPC   GL242826  13.878   5.400  20.181 -0.0198  0.0566  0.1270
36014DPPC   C1A42827  13.666   5.596  19.791 -0.4026  0.1458 -0.2198
36014DPPC   C2A42828  13.780   5.526  19.410  0.4054 -0.0058  0.2426
36014DPPC   C3A42829  13.778   5.534  18.836  0.0847 -0.1534  0.2228
36014DPPC   C4A42830  13.816   5.549  18.346 -0.1245 -0.0886  0.0297
36014DPPC   C1B42831  14.066   5.379  19.881  0.0294  0.0179  0.1525
36014DPPC   C2B42832  14.288   5.312  19.511  0.0912 -0.2549 -0.0695
36014DPPC   C3B42833  14.224   5.323  19.059  0.0241 -0.1859 -0.1779
36014DPPC   C4B42834  14.240   5.415  18.559  0.4207  0.2250  0.2024
36015DPPC   NC342835  15.060   5.538  20.445 -0.1873 -0.0520  0.2339
36015DPPC   PO442836  14.908   5.903  20.390  0.0636  0.0619 -0.0539
36015DPPC   GL142837  14.725   6.029  19.991 -0.2978 -0.0692  0.1004
36015DPPC   GL242838  14.977   6.044  19.913  0.0213 -0.0977  0.4425
36015DPPC   C1A42839  14.508   6.128  19.782  0.3011 -0.1158 -0.5579
36015DPPC   C2A42840  14.425   6.171  19.420 -0.0061  0.2971  0.2113
36015DPPC   C3A42841  14.402   6.252  18.994  0.2389  0.0379 -0.3749
36015DPPC   C4A42842  14.362   6.243  18.539  0.1307  0.1007 -0.0647
36015DPPC   C1B42843  14.887   6.107  19.504  0.3611  0.0390 -0.4765
36015DPPC   C2B42844  14.950   6.163  19.132  0.0746  0.2727  0.3024
36015DPPC   C3B42845  14.934   6.096  18.661  0.0576  0.1116 -0.2872
36015DPPC   C4B42846  14.968   6.096  18.241 -0.1666 -0.0180  0.0876
36016DPPC   NC342847  11.519   5.034  20.628  0.0548  0.0334  0.1519
36016DPPC   PO442848  11.175   5.238  20.570 -0.1926 -0.2125  0.1630
36016DPPC   GL142849  11.179   5.187  20.167 -0.2144  0.0242  0.0772
36016DPPC   GL242850  11.468   5.177  20.176  0.2458 -0.3074 -0.2990
36016DPPC   C1A42851  11.123   5.181  19.824 -0.0369 -0.5812  0.2543
36016DPPC   C2A42852  11.068   5.196  19.445 -0.1741 -0.0647  0.0586
36016DPPC   C3A42853  11.219   5.191  18.960  0.3490 -0.3640  0.1960
36016DPPC   C4A42854  11.181   5.169  18.472 -0.1785 -0.2333 -0.0347
36016DPPC   C1B42855  11.595   5.110  19.810  0.0036  0.0099  0.0823
36016DPPC   C2B42856  11.586   5.139  19.462 -0.1083 -0.1637  0.1370
36016DPPC   C3B42857  11.712   5.142  19.010 -0.0248 -0.2560  0.0399
36016DPPC   C4B42858  11.655   5.097  18.548 -0.0523 -0.2823 -0.0293
36017DPPC   NC342859  11.350   3.247  21.029 -0.0807  0.0128 -0.2219
36017DPPC   PO442860  11.583   3.402  20.768 -0.1306 -0.1197  0.0624
36017DPPC   GL142861  11.638   3.294  20.339  0.0257 -0.3636  0.1363
36017DPPC   GL242862  11.323   3.361  20.279  0.1621  0.1111  0.0426
36017DPPC   C1A42863  11.735   3.326  19.935  0.0660 -0.3293 -0.3791
36017DPPC   C2A42864  11.801   3.279  19.491  0.1114 -0.0762  0.0237
36017DPPC   C3A42865  11.823   3.260  19.004  0.0411  0.1076 -0.0982
36017DPPC   C4A42866  11.828   3.251  18.528 -0.0448  0.1439  0.2008
36017DPPC   C1B42867  11.265   3.413  19.893  0.2421  0.3382  0.2461
36017DPPC   C2B42868  11.262   3.374  19.464  0.2641 -0.0348  0.3839
36017DPPC   C3B42869  11.340   3.366  19.013  0.1269 -0.1595 -0.3162
36017DPPC   C4B42870  11.319   3.379  18.584 -0.3218  0.1769  0.0215
36018DPPC   NC342871  10.937   1.719  21.224 -0.0446  0.1098  0.0078
36018DPPC   PO442872  10.775   1.488  20.961 -0.1809 -0.0847 -0.0507
36018DPPC   GL142873  11.024   1.398  20.581 -0.3478 -0.0423  0.1060
36018DPPC   GL242874  10.895   1.682  20.443 -0.0569  0.1474  0.1249
36018DPPC   C1A42875  11.090   1.237  20.223 -0.2308  0.1356 -0.0010
36018DPPC   C2A42876  11.014   1.231  19.799 -0.2075 -0.1245 -0.1667
36018DPPC   C3A42877  11.050   1.268  19.297 -0.0584 -0.0212 -0.2990
36018DPPC   C4A42878  11.065   1.253  18.817  0.2065 -0.1462  0.3475
36018DPPC   C1B42879  10.937   1.641  20.068  0.0919  0.2727 -0.2888
36018DPPC   C2B42880  10.930   1.689  19.656 -0.1080  0.2340  0.0901
36018DPPC   C3B42881  10.968   1.727  19.213 -0.0745  0.0178 -0.0825
36018DPPC   C4B42882  10.956   1.768  18.705 -0.2250 -0.0502 -0.1922
36019DPPC   NC342883  10.896   6.088  20.912  0.4478  0.2438 -0.1215
36019DPPC   PO442884  11.253   6.173  20.681  0.2323  0.1428  0.0453
36019DPPC   GL142885  11.312   6.062  20.243 -0.2537  0.0055  0.1603
36019DPPC   GL242886  11.077   6.179  20.174 -0.1748  0.0767 -0.0248
36019DPPC   C1A42887  11.491   6.339  19.984 -0.1602 -0.1756  0.0741
36019DPPC   C2A42888  11.617   6.438  19.619 -0.1985 -0.1340  0.2012
36019DPPC   C3A42889  11.674   6.432  19.150  0.1154  0.1999  0.1896
36019DPPC   C4A42890  11.680   6.402  18.699  0.1714 -0.0306 -0.0802
36019DPPC   C1B42891  11.115   6.125  19.841  0.2685  0.0705 -0.4178
36019DPPC   C2B42892  11.282   6.067  19.487  0.0927 -0.0829 -0.1407
36019DPPC   C3B42893  11.307   6.029  19.037  0.4736 -0.3156  0.0015
36019DPPC   C4B42894  11.377   6.002  18.515  0.1376 -0.0744  0.3360
36020DPPC   NC342895   7.568   0.703  20.529  0.0369  0.2207  0.3479
36020DPPC   PO442896   7.639   1.077  20.448 -0.0269  0.2458 -0.0313
36020DPPC   GL142897   7.271   1.027  20.178  0.1406  0.1275  0.0647
36020DPPC   GL242898   7.401   1.180  20.017 -0.2466  0.2176  0.0429
36020DPPC   C1A42899   7.222   0.789  19.945 -0.0249 -0.2063 -0.5279
36020DPPC   C2A42900   7.415   0.768  19.584 -0.0893 -0.1453 -0.0063
36020DPPC   C3A42901   7.636   0.730  19.113 -0.0227  0.0507  0.1847
36020DPPC   C4A42902   7.664   0.728  18.615  0.2293 -0.1475  0.2683
36020DPPC   C1B42903   7.410   1.257  19.621 -0.2477  0.2464  0.1129
36020DPPC   C2B42904   7.475   1.200  19.208 -0.0527 -0.3910 -0.1580
36020DPPC   C3B42905   7.435   1.179  18.701  0.1582  0.0494 -0.0290
36020DPPC   C4B42906   7.621   1.342  18.248  0.1927  0.1982  0.2047
36021DPPC   NC342907   9.127   3.219  20.754 -0.2522 -0.1216  0.1181
36021DPPC   PO442908   9.103   3.630  20.682  0.0657 -0.0146  0.1364
36021DPPC   GL142909   9.095   3.746  20.245 -0.3958  0.1737 -0.0098
36021DPPC   GL242910   8.865   3.873  20.191  0.1037  0.0225  0.0703
36021DPPC   C1A42911   9.304   3.839  19.942 -0.0479 -0.3753  0.1553
36021DPPC   C2A42912   9.314   3.837  19.538  0.0374 -0.0124 -0.0404
36021DPPC   C3A42913   9.383   3.862  19.001 -0.2564 -0.1043  0.1115
36021DPPC   C4A42914   9.356   3.866  18.452  0.0602 -0.1377  0.0517
36021DPPC   C1B42915   8.834   3.879  19.856 -0.1010 -0.1353  0.0024
36021DPPC   C2B42916   8.838   3.954  19.458 -0.0107  0.0190  0.1759
36021DPPC   C3B42917   8.773   3.931  19.005  0.2556  0.1055  0.1911
36021DPPC   C4B42918   8.907   4.024  18.558 -0.0729 -0.1689  0.0797
36022DPPC   NC342919   9.822   4.706  20.481  0.1121  0.2866  0.0915
36022DPPC   PO442920   9.511   4.895  20.549 -0.0714 -0.0594  0.1486
36022DPPC   GL142921   9.435   5.003  20.092 -0.1248  0.0587 -0.0388
36022DPPC   GL242922   9.697   4.910  20.094 -0.0693  0.5027  0.0927
36022DPPC   C1A42923   9.293   5.006  19.732 -0.0989  0.0612  0.0806
36022DPPC   C2A42924   9.305   5.160  19.327 -0.1939  0.2563 -0.0971
36022DPPC   C3A42925   9.332   5.249  18.871  0.2154 -0.0547  0.0144
36022DPPC   C4A42926   9.293   5.196  18.355  0.1532  0.2727  0.0774
36022DPPC   C1B42927   9.789   4.938  19.773  0.2323  0.1627  0.1397
36022DPPC   C2B42928   9.814   5.034  19.371 -0.3647  0.1478  0.1509
36022DPPC   C3B42929   9.818   5.116  18.917 -0.1409  0.0329  0.0630
36022DPPC   C4B42930   9.914   5.130  18.458 -0.1112 -0.0059  0.1842
36023DPPC   NC342931  12.577   3.092  20.556  0.3044  0.3230 -0.0545
36023DPPC   PO442932  12.853   2.785  20.624  0.1729 -0.1620  0.1717
36023DPPC   GL142933  13.021   2.589  20.252  0.2288 -0.2936 -0.2297
36023DPPC   GL242934  13.147   2.837  20.224 -0.0005 -0.1818  0.1636
36023DPPC   C1A42935  12.926   2.530  19.903  0.0281  0.7276  0.1747
36023DPPC   C2A42936  12.924   2.591  19.476  0.1471  0.1687  0.0671
36023DPPC   C3A42937  12.965   2.589  19.008 -0.2633 -0.1067 -0.0884
36023DPPC   C4A42938  12.971   2.576  18.548 -0.0958 -0.1150 -0.0578
36023DPPC   C1B42939  13.177   2.950  19.919  0.0549 -0.1518 -0.0243
36023DPPC   C2B42940  13.239   2.979  19.532 -0.3361 -0.0636 -0.0064
36023DPPC   C3B42941  13.216   3.016  19.000 -0.0566  0.3027  0.0248
36023DPPC   C4B42942  13.339   2.910  18.499 -0.1531 -0.0581 -0.0171
36024DPPC   NC342943  13.232   4.340  20.349 -0.0217 -0.2009  0.0786
36024DPPC   PO442944  12.906   4.388  20.575  0.0526  0.1379  0.1653
36024DPPC   GL142945  12.802   4.262  20.180 -0.0631  0.0272 -0.0847
36024DPPC   GL242946  12.610   4.005  20.256 -0.0209 -0.0241  0.1984
36024DPPC   C1A42947  13.032   4.481  19.988  0.3307  0.3468 -0.1029
36024DPPC   C2A42948  13.028   4.765  19.657  0.1417  0.2913 -0.0316
36024DPPC   C3A42949  13.099   4.771  19.180 -0.0983 -0.1882 -0.0576
36024DPPC   C4A42950  13.177   4.764  18.691 -0.3647  0.0949 -0.2782
36024DPPC   C1B42951  12.436   3.944  19.899  0.1909 -0.3137  0.1129
36024DPPC   C2B42952  12.388   3.962  19.502  0.0741 -0.0120  0.0310
36024DPPC   C3B42953  12.441   3.995  19.064 -0.0930  0.0634  0.1818
36024DPPC   C4B42954  12.450   3.921  18.478  0.0006 -0.1655  0.0881
36025DPPC   NC342955  10.175   2.834  20.982  0.0437 -0.0169  0.0967
36025DPPC   PO442956  10.386   2.889  20.653  0.1998 -0.0482  0.1400
36025DPPC   GL142957  10.338   2.571  20.310  0.0918  0.1409 -0.6426
36025DPPC   GL242958  10.079   2.690  20.251 -0.1780  0.1158  0.3424
36025DPPC   C1A42959  10.523   2.448  20.015 -0.4978 -0.1456  0.2135
36025DPPC   C2A42960  10.621   2.612  19.631 -0.2768  0.1342 -0.1027
36025DPPC   C3A42961  10.656   2.687  19.141  0.1365 -0.1311  0.2581
36025DPPC   C4A42962  10.633   2.695  18.589  0.1231 -0.1763  0.1901
36025DPPC   C1B42963  10.068   2.730  19.905  0.3804  0.3152 -0.1179
36025DPPC   C2B42964  10.093   2.759  19.501 -0.1992 -0.4849 -0.1642
36025DPPC   C3B42965  10.163   2.761  19.061 -0.4692 -0.0067  0.0412
36025DPPC   C4B42966  10.097   2.857  18.589 -0.1698 -0.1851  0.1305
36026DPPC   NC342967  12.642   0.593  20.862  0.0778 -0.0348  0.0350
36026DPPC   PO442968  12.856   0.798  20.610  0.1006  0.0171 -0.1265
36026DPPC   GL142969  12.879   0.853  20.175  0.0939  0.0937 -0.0753
36026DPPC   GL242970  13.040   0.533  20.217  0.4715  0.4330  0.5282
36026DPPC   C1A42971  12.972   0.813  19.825  0.5847  0.3003  0.2404
36026DPPC   C2A42972  13.117   0.816  19.425  0.1172  0.1565  0.0522
36026DPPC   C3A42973  13.128   0.838  18.945 -0.0180  0.0709 -0.0508
36026DPPC   C4A42974  13.153   0.763  18.428 -0.0547  0.0835  0.0693
36026DPPC   C1B42975  12.851   0.293  19.942  0.0922  0.1289 -0.0866
36026DPPC   C2B42976  12.905   0.007  19.568  0.1761  0.2588 -0.0681
36026DPPC   C3B42977  13.016  -0.053  19.137 -0.0930  0.0408 -0.1119
36026DPPC   C4B42978  13.009   0.002  18.649  0.0879  0.0258  0.0906
36027DPPC   NC342979   8.438   3.987  20.940  0.1069 -0.1643 -0.0072
36027DPPC   PO442980   8.649   3.944  20.634  0.1875  0.1396  0.4213
36027DPPC   GL142981   8.565   4.183  20.331  0.2711  0.0580 -0.1799
36027DPPC   GL242982   8.874   4.319  20.430 -0.2921 -0.0859 -0.1845
36027DPPC   C1A42983   8.471   4.051  20.054  0.0906  0.2383 -0.0799
36027DPPC   C2A42984   8.337   3.994  19.689  0.2882 -0.0368  0.0739
36027DPPC   C3A42985   8.328   4.043  19.204  0.1470 -0.0193 -0.0301
36027DPPC   C4A42986   8.369   4.047  18.697  0.1416  0.1430 -0.1799
36027DPPC   C1B42987   9.026   4.347  20.097  0.0826 -0.2864 -0.2786
36027DPPC   C2B42988   9.194   4.318  19.776  0.0259 -0.0447 -0.0244
36027DPPC   C3B42989   9.183   4.305  19.274 -0.3769  0.1031  0.0208
36027DPPC   C4B42990   9.206   4.375  18.803 -0.0375  0.1749  0.1363
36028DPPC   NC342991  13.020   2.307  20.826 -0.0771 -0.1544  0.0472
36028DPPC   PO442992  13.369   2.060  20.781 -0.2412  0.1182 -0.3586
36028DPPC   GL142993  13.128   1.873  20.492 -0.1596 -0.0711 -0.2318
36028DPPC   GL242994  13.170   2.189  20.423 -0.1946  0.2920  0.1244
36028DPPC   C1A42995  13.116   1.701  20.179 -0.5037  0.1141 -0.0492
36028DPPC   C2A42996  13.243   1.591  19.805 -0.1586  0.1106 -0.0414
36028DPPC   C3A42997  13.251   1.590  19.340 -0.2073  0.1930  0.1589
36028DPPC   C4A42998  13.194   1.640  18.827 -0.2377 -0.4740 -0.2945
36028DPPC   C1B42999  13.068   2.131  20.079  0.0984  0.2684  0.0346
36028DPPC   C2B43000  13.114   2.128  19.672  0.0366  0.1167  0.1881
36028DPPC   C3B43001  13.108   2.092  19.197 -0.0049 -0.0524 -0.2485
36028DPPC   C4B43002  13.064   2.138  18.766  0.4113  0.2965 -0.2240
36029DPPC   NC343003  10.798   4.831  20.399 -0.2742  0.1879  0.2821
36029DPPC   PO443004  10.813   4.446  20.548  0.1226 -0.0797  0.3086
36029DPPC   GL143005  10.951   4.339  20.214 -0.0737  0.3607  0.0470
36029DPPC   GL243006  11.049   4.028  20.295  0.0951  0.0636 -0.1626
36029DPPC   C1A43007  10.910   4.346  19.822 -0.0836  0.2235  0.4589
36029DPPC   C2A43008  10.989   4.380  19.387  0.0997  0.0747 -0.2032
36029DPPC   C3A43009  11.045   4.416  18.948  0.0581  0.3524 -0.1330
36029DPPC   C4A43010  11.052   4.373  18.534  0.1777  0.1903  0.1043
36029DPPC   C1B43011  11.075   3.906  19.896  0.2810  0.1882 -0.0655
36029DPPC   C2B43012  11.109   3.858  19.506  0.1531 -0.3691 -0.1818
36029DPPC   C3B43013  11.109   3.925  19.003 -0.0948 -0.0391  0.0497
36029DPPC   C4B43014  11.166   3.862  18.504 -0.1054  0.2480 -0.1574
36030DPPC   NC343015   9.382   0.763  20.707 -0.0692 -0.2545 -0.1508
36030DPPC   PO443016   9.068   0.993  20.570  0.1361  0.2758  0.0054
36030DPPC   GL143017   9.022   1.260  20.278 -0.0245 -0.2378 -0.1748
36030DPPC   GL243018   9.131   1.082  20.143  0.3222  0.1915  0.0723
36030DPPC   C1A43019   8.761   1.377  20.050  0.1028  0.2900 -0.2594
36030DPPC   C2A43020   8.798   1.410  19.634  0.0251  0.0496 -0.1727
36030DPPC   C3A43021   8.784   1.363  19.102  0.1459  0.1205 -0.0202
36030DPPC   C4A43022   8.864   1.234  18.603 -0.1477 -0.0673  0.3636
36030DPPC   C1B43023   9.319   1.140  19.863 -0.3159 -0.1391  0.1995
36030DPPC   C2B43024   9.284   1.190  19.435 -0.1759  0.1772 -0.1532
36030DPPC   C3B43025   9.268   1.306  18.962 -0.3838  0.2023  0.1270
36030DPPC   C4B43026   9.347   1.156  18.536  0.0785 -0.1213  0.3667
36031DPPC   NC343027   8.484   1.958  20.380  0.4496  0.2416  0.0457
36031DPPC   PO443028   8.170   2.255  20.322 -0.2009  0.2362 -0.0277
36031DPPC   GL143029   8.127   2.515  19.967 -0.0858 -0.5637 -0.1733
36031DPPC   GL243030   7.935   2.386  19.810 -0.1502 -0.3115  0.0595
36031DPPC   C1A43031   8.247   2.782  19.725  0.0140  0.0137  0.1583
36031DPPC   C2A43032   8.364   2.782  19.339 -0.1868  0.0849  0.1677
36031DPPC   C3A43033   8.311   2.680  18.830 -0.0216  0.1077  0.0998
36031DPPC   C4A43034   8.380   2.726  18.359  0.3880  0.0336 -0.1732
36031DPPC   C1B43035   8.022   2.416  19.442 -0.2436  0.2018  0.3712
36031DPPC   C2B43036   8.025   2.347  19.028  0.0218 -0.2936  0.0167
36031DPPC   C3B43037   8.008   2.381  18.534 -0.1149 -0.0813 -0.1330
36031DPPC   C4B43038   8.052   2.384  18.083  0.0758 -0.2322  0.2342
36032DPPC   NC343039  10.024   5.640  20.695 -0.3009 -0.0308 -0.0499
36032DPPC   PO443040  10.333   5.516  20.523 -0.0302 -0.1259 -0.1420
36032DPPC   GL143041  10.372   5.609  20.175  0.1275  0.1335  0.1917
36032DPPC   GL243042  10.416   5.860  20.117  0.1430 -0.1225  0.0554
36032DPPC   C1A43043  10.498   5.398  19.911 -0.1236 -0.0745 -0.3908
36032DPPC   C2A43044  10.523   5.279  19.497  0.0372  0.1358 -0.1710
36032DPPC   C3A43045  10.707   5.291  19.005 -0.2204 -0.0428 -0.1970
36032DPPC   C4A43046  10.674   5.286  18.504  0.1765 -0.0278  0.2533
36032DPPC   C1B43047  10.416   5.763  19.748 -0.0176  0.0470 -0.1001
36032DPPC   C2B43048  10.502   5.745  19.299  0.0479  0.0546  0.0546
36032DPPC   C3B43049  10.555   5.762  18.856 -0.1196  0.0762 -0.0371
36032DPPC   C4B43050  10.629   5.898  18.410  0.0319 -0.2717 -0.0568
36033DPPC   NC343051  14.054   2.734  21.011  0.3558  0.4152  0.1688
36033DPPC   PO443052  13.714   2.819  20.823 -0.2175 -0.3892 -0.0634
36033DPPC   GL143053  13.756   3.096  20.430  0.2445  0.1304 -0.2349
36033DPPC   GL243054  13.633   2.845  20.303 -0.0506 -0.2491 -0.4141
36033DPPC   C1A43055  13.661   3.278  20.130  0.3927 -0.0549  0.2134
36033DPPC   C2A43056  13.519   3.308  19.717 -0.1033 -0.0303 -0.1699
36033DPPC   C3A43057  13.547   3.326  19.246 -0.3033 -0.0583  0.2124
36033DPPC   C4A43058  13.550   3.286  18.796 -0.2575  0.0879  0.1969
36033DPPC   C1B43059  13.673   2.908  19.968  0.1222  0.0903  0.1146
36033DPPC   C2B43060  13.740   2.864  19.554  0.1921  0.1859 -0.2176
36033DPPC   C3B43061  13.752   2.900  19.049  0.1359  0.0300 -0.0958
36033DPPC   C4B43062  13.819   2.808  18.540  0.1664  0.3214 -0.1242
36034DPPC   NC343063  11.404   3.001  20.592 -0.0585 -0.0575  0.1496
36034DPPC   PO443064  11.256   2.644  20.524 -0.1748 -0.4063  0.2576
36034DPPC   GL143065  11.023   2.545  20.213  0.1520 -0.1408 -0.1072
36034DPPC   GL243066  10.784   2.817  20.345  0.0128  0.4232  0.1077
36034DPPC   C1A43067  11.015   2.598  19.884 -0.1527  0.1146  0.0335
36034DPPC   C2A43068  11.101   2.607  19.478  0.1404 -0.0706 -0.2141
36034DPPC   C3A43069  11.199   2.633  19.015 -0.2987  0.1717 -0.0892
36034DPPC   C4A43070  11.231   2.619  18.524 -0.1427  0.2316 -0.1335
36034DPPC   C1B43071  10.596   3.029  20.069  0.0262 -0.0711  0.0267
36034DPPC   C2B43072  10.410   3.107  19.736  0.1967 -0.0690  0.0924
36034DPPC   C3B43073  10.438   3.181  19.214  0.0985  0.4108 -0.0219
36034DPPC   C4B43074  10.443   3.123  18.772 -0.0597 -0.0472 -0.0632
36035DPPC   NC343075  10.787   2.390  20.549  0.0894  0.1362  0.1752
36035DPPC   PO443076  10.484   2.379  20.780 -0.1427 -0.1165  0.1096
36035DPPC   GL143077  10.297   2.074  20.429 -0.1321  0.6708  0.1298
36035DPPC   GL243078  10.545   2.043  20.390  0.1798 -0.1426  0.0665
36035DPPC   C1A43079  10.253   2.078  20.087  0.0300  0.1791  0.1335
36035DPPC   C2A43080  10.269   2.255  19.684  0.3263  0.0944 -0.0105
36035DPPC   C3A43081  10.318   2.263  19.239  0.3775 -0.2492  0.0861
36035DPPC   C4A43082  10.258   2.359  18.756 -0.0497  0.0247 -0.0288
36035DPPC   C1B43083  10.789   2.156  20.121 -0.1417  0.0912  0.3958
36035DPPC   C2B43084  10.840   2.157  19.701  0.1159 -0.0533 -0.1272
36035DPPC   C3B43085  10.832   2.201  19.190 -0.1668 -0.1197 -0.0997
36035DPPC   C4B43086  10.884   2.271  18.729  0.0940 -0.3546 -0.0874
36036DPPC   NC343087  12.331   2.016  20.435  0.1010 -0.1009 -0.2120
36036DPPC   PO443088  12.219   2.404  20.355  0.0599  0.2248 -0.1735
36036DPPC   GL143089  12.288   2.775  20.309 -0.1777 -0.0067  0.0814
36036DPPC   GL243090  12.545   2.714  20.229  0.1229 -0.0543 -0.1298
36036DPPC   C1A43091  12.154   2.695  19.946 -0.0269 -0.1267  0.1778
36036DPPC   C2A43092  11.898   2.738  19.611 -0.1847 -0.2123 -0.0491
36036DPPC   C3A43093  11.938   2.721  19.136 -0.2821  0.1633 -0.0183
36036DPPC   C4A43094  11.985   2.759  18.680 -0.1795  0.1856 -0.0594
36036DPPC   C1B43095  12.551   2.725  19.832  0.0254 -0.1923 -0.1329
36036DPPC   C2B43096  12.414   2.640  19.454 -0.2899 -0.0422 -0.1455
36036DPPC   C3B43097  12.396   2.698  18.969 -0.0845  0.1533  0.0521
36036DPPC   C4B43098  12.433   2.640  18.545  0.1728 -0.1820 -0.2310
36037DPPC   NC343099   9.267   4.137  20.408  0.1187 -0.1874  0.2002
36037DPPC   PO443100   9.517   3.841  20.470  0.0568  0.0107  0.3080
36037DPPC   GL143101   9.647   3.653  20.103  0.1082  0.0361 -0.3633
36037DPPC   GL243102   9.455   3.427  20.268  0.2041 -0.0498 -0.2526
36037DPPC   C1A43103   9.733   3.703  19.764  0.4255  0.3170 -0.0860
36037DPPC   C2A43104   9.794   3.736  19.334  0.1287 -0.0594  0.1067
36037DPPC   C3A43105   9.811   3.729  18.828 -0.2316  0.1366  0.0354
36037DPPC   C4A43106   9.840   3.798  18.376  0.0323  0.0626  0.1341
36037DPPC   C1B43107   9.363   3.398  19.897  0.1014  0.1051 -0.1279
36037DPPC   C2B43108   9.466   3.313  19.506  0.2008 -0.0984  0.1318
36037DPPC   C3B43109   9.521   3.390  19.082 -0.2447 -0.0578 -0.1164
36037DPPC   C4B43110   9.463   3.397  18.611 -0.3099 -0.3952  0.1688
36038DPPC   NC343111   8.247   3.111  20.630 -0.2431 -0.0590 -0.1048
36038DPPC   PO443112   8.186   3.510  20.671  0.3497 -0.0792 -0.2971
36038DPPC   GL143113   8.049   3.685  20.224 -0.1316  0.1775  0.0715
36038DPPC   GL243114   8.315   3.673  20.131  0.3383  0.3201 -0.0525
36038DPPC   C1A43115   7.898   3.657  19.875 -0.2230  0.0793  0.0871
36038DPPC   C2A43116   7.978   3.683  19.475  0.1214 -0.1856 -0.0187
36038DPPC   C3A43117   7.997   3.687  19.023 -0.0145 -0.2389  0.1095
36038DPPC   C4A43118   8.104   3.684  18.518 -0.1022 -0.1748  0.1769
36038DPPC   C1B43119   8.528   3.623  19.812  0.0251  0.1527  0.0215
36038DPPC   C2B43120   8.525   3.556  19.407 -0.0826  0.3044  0.0251
36038DPPC   C3B43121   8.448   3.538  18.884 -0.0386  0.0307 -0.0997
36038DPPC   C4B43122   8.605   3.644  18.433 -0.4164  0.1934 -0.0858
36039DPPC   NC343123  10.309   5.366  20.968 -0.1146  0.1855  0.0406
36039DPPC   PO443124  10.455   5.092  20.745 -0.1707 -0.0025  0.0030
36039DPPC   GL143125  10.404   5.032  20.314 -0.4459  0.1029  0.2061
36039DPPC   GL243126  10.175   5.123  20.352  0.0976  0.0668 -0.0710
36039DPPC   C1A43127  10.568   4.957  19.986  0.1667 -0.4014 -0.0052
36039DPPC   C2A43128  10.696   4.772  19.667 -0.0076 -0.2113  0.1709
36039DPPC   C3A43129  10.894   4.828  19.186 -0.1182 -0.0381 -0.2051
36039DPPC   C4A43130  10.808   4.826  18.697  0.2190  0.3108 -0.0077
36039DPPC   C1B43131  10.003   5.284  20.046  0.3042 -0.1699 -0.2489
36039DPPC   C2B43132  10.071   5.362  19.673  0.0305  0.0770 -0.1715
36039DPPC   C3B43133  10.122   5.409  19.258 -0.1668  0.1571  0.3179
36039DPPC   C4B43134  10.246   5.396  18.753  0.1392  0.1026  0.0594
36040DPPC   NC343135  11.378   0.733  20.919 -0.2887 -0.1017 -0.2602
36040DPPC   PO443136  11.534   0.623  20.564  0.3456 -0.1620  0.1035
36040DPPC   GL143137  11.443   0.444  20.227 -0.1664  0.1960 -0.0926
36040DPPC   GL243138  11.655   0.645  20.117 -0.0893  0.0691 -0.1985
36040DPPC   C1A43139  11.543   0.293  19.913  0.0217 -0.2300  0.1114
36040DPPC   C2A43140  11.500   0.315  19.515 -0.0780  0.2382  0.3491
36040DPPC   C3A43141  11.555   0.278  19.008  0.2647  0.2604  0.1814
36040DPPC   C4A43142  11.511   0.400  18.622 -0.1111 -0.2121  0.0676
36040DPPC   C1B43143  11.688   0.635  19.730 -0.1077  0.2761 -0.4650
36040DPPC   C2B43144  11.817   0.707  19.335  0.0672 -0.2053 -0.1027
36040DPPC   C3B43145  11.791   0.710  18.864 -0.0594 -0.2942  0.0894
36040DPPC   C4B43146  11.873   0.660  18.414 -0.0151 -0.0775  0.0221
36041DPPC   NC343147   8.289   4.578  20.503  0.0372 -0.0631  0.1780
36041DPPC   PO443148   8.134   4.984  20.412 -0.0113 -0.0563 -0.1855
36041DPPC   GL143149   8.292   4.968  19.978  0.1159 -0.2389 -0.3221
36041DPPC   GL243150   8.055   5.001  19.846  0.0426  0.3541  0.0437
36041DPPC   C1A43151   8.444   4.850  19.707  0.0598 -0.0965 -0.1705
36041DPPC   C2A43152   8.509   4.906  19.266 -0.0534 -0.0150  0.3242
36041DPPC   C3A43153   8.539   4.942  18.765  0.4732 -0.0435 -0.1754
36041DPPC   C4A43154   8.548   4.902  18.295  0.2078  0.3193  0.0890
36041DPPC   C1B43155   8.093   4.970  19.459  0.1053 -0.1909  0.2273
36041DPPC   C2B43156   8.044   5.015  19.062  0.0222 -0.2889  0.1703
36041DPPC   C3B43157   8.099   5.079  18.604  0.2748  0.2626 -0.2347
36041DPPC   C4B43158   8.111   5.106  18.070 -0.1347  0.2719 -0.0059
36042DPPC   NC343159   9.560   6.506  20.819  0.1854  0.2088  0.0061
36042DPPC   PO443160   9.770   6.807  20.678  0.1489 -0.1128  0.0008
36042DPPC   GL143161   9.947   6.798  20.303  0.1340  0.2011  0.0852
36042DPPC   GL243162   9.866   7.103  20.239 -0.1120  0.2648  0.2141
36042DPPC   C1A43163  10.021   6.728  19.913  0.1761 -0.0194 -0.2768
36042DPPC   C2A43164  10.122   6.827  19.509  0.1201  0.0533 -0.3057
36042DPPC   C3A43165  10.150   6.738  19.026  0.2063 -0.1023 -0.2669
36042DPPC   C4A43166  10.196   6.792  18.562 -0.0500  0.0490  0.2706
36042DPPC   C1B43167   9.870   7.273  19.929  0.2068  0.1104  0.1629
36042DPPC   C2B43168   9.961   7.320  19.526  0.1096  0.0205  0.4252
36042DPPC   C3B43169  10.028   7.230  19.023  0.2110 -0.1400  0.1026
36042DPPC   C4B43170  10.108   7.336  18.567 -0.0166 -0.1368  0.2002
36043DPPC   NC343171  14.170   1.667  20.373  0.3141  0.2565 -0.0373
36043DPPC   PO443172  13.845   1.818  20.600  0.0473  0.0245  0.1191
36043DPPC   GL143173  13.559   1.929  20.233 -0.1034 -0.0617 -0.1034
36043DPPC   GL243174  13.597   2.186  20.347 -0.2527 -0.2740  0.2056
36043DPPC   C1A43175  13.599   2.058  19.861 -0.1821  0.4798 -0.0933
36043DPPC   C2A43176  13.638   2.201  19.517  0.0292 -0.0146  0.1184
36043DPPC   C3A43177  13.604   2.095  19.041  0.1079  0.0455  0.0032
36043DPPC   C4A43178  13.591   2.075  18.559 -0.2020  0.0844 -0.4307
36043DPPC   C1B43179  13.452   2.438  20.160 -0.1988 -0.0274 -0.0559
36043DPPC   C2B43180  13.405   2.547  19.779 -0.2776  0.2388  0.2470
36043DPPC   C3B43181  13.355   2.572  19.307 -0.0612  0.2431  0.0149
36043DPPC   C4B43182  13.386   2.476  18.813 -0.1776 -0.1737  0.1011
36044DPPC   NC343183   7.944   5.944  20.709 -0.1293  0.3420 -0.0541
36044DPPC   PO443184   7.926   5.714  20.378  0.2921  0.1415 -0.0380
36044DPPC   GL143185   8.205   5.782  20.041 -0.1877 -0.0744 -0.2147
36044DPPC   GL243186   8.099   5.954  19.906  0.1219 -0.1635  0.1113
36044DPPC   C1A43187   8.320   5.419  19.862 -0.1302 -0.1712 -0.2449
36044DPPC   C2A43188   8.367   5.362  19.479 -0.2161  0.4373 -0.0911
36044DPPC   C3A43189   8.383   5.375  19.006  0.0924  0.1416 -0.0417
36044DPPC   C4A43190   8.419   5.463  18.515 -0.0128  0.2552  0.0012
36044DPPC   C1B43191   8.217   5.950  19.536  0.0528 -0.2249 -0.1055
36044DPPC   C2B43192   8.228   5.953  19.142 -0.0621  0.1107  0.4261
36044DPPC   C3B43193   8.254   5.959  18.639 -0.3139  0.1670 -0.2574
36044DPPC   C4B43194   8.396   5.955  18.139 -0.1729 -0.2550  0.5654
36045DPPC   NC343195  11.721   2.445  20.465  0.0522 -0.2126 -0.0863
36045DPPC   PO443196  11.714   2.052  20.370  0.1478  0.0789 -0.1692
36045DPPC   GL143197  11.704   1.748  20.010  0.1445  0.0805 -0.1422
36045DPPC   GL243198  11.609   1.961  19.886  0.2271 -0.0316 -0.1952
36045DPPC   C1A43199  11.906   1.545  19.798  0.0728 -0.1393  0.1881
36045DPPC   C2A43200  11.892   1.454  19.433 -0.2519  0.2206  0.0651
36045DPPC   C3A43201  11.891   1.508  18.922  0.1099 -0.3099 -0.2953
36045DPPC   C4A43202  11.907   1.513  18.401 -0.1625 -0.1446 -0.1599
36045DPPC   C1B43203  11.707   1.923  19.567  0.2731 -0.0257  0.0236
36045DPPC   C2B43204  11.692   1.929  19.176 -0.1526 -0.0571  0.0536
36045DPPC   C3B43205  11.781   1.905  18.668  0.1693 -0.1582  0.0863
36045DPPC   C4B43206  11.789   1.961  18.161 -0.0179 -0.1097 -0.0327
36046DPPC   NC343207  10.216   3.630  21.233 -0.1086 -0.0823 -0.4758
36046DPPC   PO443208  10.410   3.727  20.890  0.0461  0.2102  0.0096
36046DPPC   GL143209  10.294   3.925  20.515  0.0414  0.1600  0.4092
36046DPPC   GL243210  10.554   3.989  20.399  0.1483 -0.0311 -0.0644
36046DPPC   C1A43211  10.153   3.954  20.144  0.1186  0.4073 -0.2471
36046DPPC   C2A43212  10.127   4.052  19.733  0.0045  0.1241  0.0224
36046DPPC   C3A43213  10.139   4.113  19.236  0.1723  0.3573 -0.1169
36046DPPC   C4A43214  10.153   4.145  18.742 -0.2725  0.0270 -0.0213
36046DPPC   C1B43215  10.660   3.977  20.065 -0.2006 -0.0456  0.1348
36046DPPC   C2B43216  10.660   3.983  19.664 -0.2557  0.0394 -0.1806
36046DPPC   C3B43217  10.667   4.071  19.193  0.1916 -0.0714 -0.1057
36046DPPC   C4B43218  10.656   4.091  18.728  0.0312 -0.1812 -0.3236
36047DPPC   NC343219   9.525   2.068  21.146  0.2588 -0.1846  0.0944
36047DPPC   PO443220   9.410   1.895  20.795  0.1457 -0.2747 -0.0448
36047DPPC   GL143221   9.487   1.837  20.387 -0.0733  0.1822 -0.2703
36047DPPC   GL243222   9.510   2.084  20.350  0.0135 -0.1440 -0.1727
36047DPPC   C1A43223   9.629   1.631  20.083  0.0867 -0.1416 -0.2716
36047DPPC   C2A43224   9.550   1.520  19.691 -0.0729 -0.0750  0.0287
36047DPPC   C3A43225   9.587   1.606  19.205  0.1417  0.2822 -0.1249
36047DPPC   C4A43226   9.680   1.597  18.751  0.1603 -0.1454 -0.0346
36047DPPC   C1B43227   9.515   2.035  20.002  0.2093 -0.1230 -0.1605
36047DPPC   C2B43228   9.490   1.964  19.606 -0.2197 -0.0215 -0.2094
36047DPPC   C3B43229   9.430   2.048  19.160  0.0291 -0.1817  0.0628
36047DPPC   C4B43230   9.483   2.117  18.681 -0.0353  0.2210 -0.0427
36048DPPC   NC343231  12.048   3.464  21.022  0.1195 -0.1145  0.1844
36048DPPC   PO443232  12.127   3.268  20.683  0.1511 -0.3292  0.4936
36048DPPC   GL143233  12.064   3.143  20.410 -0.0439 -0.1539 -0.1738
36048DPPC   GL243234  11.874   2.926  20.367  0.0074 -0.6594 -0.1361
36048DPPC   C1A43235  12.170   3.201  20.089  0.1896  0.1834 -0.2520
36048DPPC   C2A43236  12.288   3.100  19.714 -0.0682  0.1694  0.1259
36048DPPC   C3A43237  12.231   3.087  19.287  0.0331 -0.2042 -0.1448
36048DPPC   C4A43238  12.304   3.196  18.837  0.1126  0.0779 -0.2615
36048DPPC   C1B43239  11.709   2.801  20.086  0.1422  0.2309  0.0802
36048DPPC   C2B43240  11.493   2.950  19.760  0.2775  0.2591 -0.2059
36048DPPC   C3B43241  11.472   2.940  19.276  0.1136  0.0602 -0.0116
36048DPPC   C4B43242  11.508   2.938  18.780 -0.0237 -0.2881 -0.4402
36049DPPC   NC343243  14.167   0.323  20.860 -0.1559 -0.2571  0.2389
36049DPPC   PO443244  14.502   0.288  20.647  0.2227  0.0748 -0.0104
36049DPPC   GL143245  14.567   0.380  20.253 -0.0065  0.1542 -0.0839
36049DPPC   GL243246  14.792   0.209  20.221 -0.2146 -0.2323 -0.1185
36049DPPC   C1A43247  14.462   0.320  19.860 -0.1550  0.0860 -0.1692
36049DPPC   C2A43248  14.502   0.418  19.458 -0.0477 -0.0294 -0.0867
36049DPPC   C3A43249  14.575   0.462  19.007  0.2095 -0.1495  0.0050
36049DPPC   C4A43250  14.603   0.467  18.498 -0.1169 -0.0258  0.0014
36049DPPC   C1B43251  14.915   0.338  19.865 -0.1101  0.2658  0.0721
36049DPPC   C2B43252  14.994   0.292  19.457 -0.1097  0.0790 -0.0685
36049DPPC   C3B43253  15.063   0.323  18.984 -0.1570  0.2012 -0.0686
36049DPPC   C4B43254  15.109   0.301  18.450  0.1526  0.0542 -0.0672
36050DPPC   NC343255  14.270   1.687  20.917 -0.0097  0.0670 -0.0321
36050DPPC   PO443256  14.560   1.722  20.655 -0.2121 -0.0363  0.0111
36050DPPC   GL143257  14.580   1.935  20.288  0.0927 -0.1701  0.0901
36050DPPC   GL243258  14.832   1.963  20.231 -0.3380  0.0942 -0.1327
36050DPPC   C1A43259  14.528   1.835  19.953 -0.0060  0.0929 -0.1666
36050DPPC   C2A43260  14.682   1.786  19.558  0.2929  0.0306  0.1505
36050DPPC   C3A43261  14.611   1.712  19.063 -0.0580  0.2466 -0.1490
36050DPPC   C4A43262  14.185   1.503  18.791  0.0490 -0.0378  0.4535
36050DPPC   C1B43263  14.867   2.142  19.907 -0.0009  0.1782 -0.0015
36050DPPC   C2B43264  14.995   2.187  19.502 -0.1239 -0.0490  0.2413
36050DPPC   C3B43265  14.966   2.330  19.023  0.3539 -0.0411 -0.1941
36050DPPC   C4B43266  14.937   2.330  18.545  0.1492 -0.1281 -0.0092
36051DPPC   NC343267  12.919   6.570  20.236  0.1876  0.1848  0.1809
36051DPPC   PO443268  13.246   6.361  20.265 -0.2774 -0.2159  0.0927
36051DPPC   GL143269  13.563   6.643  20.132 -0.1789 -0.1787  0.0107
36051DPPC   GL243270  13.457   6.882  20.041  0.0577  0.1628  0.1102
36051DPPC   C1A43271  13.604   6.423  19.881  0.0659 -0.3362  0.2585
36051DPPC   C2A43272  13.518   6.460  19.494 -0.0637  0.3350 -0.0678
36051DPPC   C3A43273  13.486   6.528  19.028  0.1004 -0.0670 -0.1105
36051DPPC   C4A43274  13.462   6.441  18.553  0.1446 -0.2058 -0.0133
36051DPPC   C1B43275  13.262   6.758  19.704 -0.0371  0.1398  0.0690
36051DPPC   C2B43276  13.249   6.965  19.318  0.0395 -0.0583  0.3269
36051DPPC   C3B43277  13.325   6.975  18.835 -0.0548 -0.1237  0.2822
36051DPPC   C4B43278  13.332   6.912  18.396  0.1293 -0.0938  0.2476
36052DPPC   NC343279   9.028   1.579  20.702  0.4993 -0.0813  0.0287
36052DPPC   PO443280   8.650   1.470  20.626  0.2411 -0.0445 -0.3044
36052DPPC   GL143281   8.477   1.187  20.357  0.1020  0.0623 -0.1003
36052DPPC   GL243282   8.608   0.967  20.396  0.0289 -0.2942 -0.1253
36052DPPC   C1A43283   8.326   1.142  19.959 -0.2377  0.4646  0.1752
36052DPPC   C2A43284   8.430   1.012  19.629 -0.1368  0.3538 -0.0036
36052DPPC   C3A43285   8.426   0.921  19.180 -0.0083 -0.1385  0.2763
36052DPPC   C4A43286   8.484   0.890  18.699 -0.1165  0.3739 -0.2036
36052DPPC   C1B43287   8.710   0.952  20.043 -0.2276  0.0721 -0.2109
36052DPPC   C2B43288   8.950   0.909  19.724  0.0926 -0.0409  0.0338
36052DPPC   C3B43289   9.018   0.884  19.220  0.0633 -0.1403 -0.0349
36052DPPC   C4B43290   9.061   0.817  18.768 -0.1183  0.1327  0.3378
36053DPPC   NC343291  14.459   6.524  20.214  0.1702 -0.1771  0.1601
36053DPPC   PO443292  14.358   6.157  20.311 -0.1568 -0.0810 -0.0445
36053DPPC   GL143293  14.161   6.018  19.958  0.1191 -0.0865  0.0727
36053DPPC   GL243294  14.169   5.814  19.962  0.1367  0.0555 -0.0797
36053DPPC   C1A43295  13.966   6.219  19.669  0.1881 -0.1463 -0.0441
36053DPPC   C2A43296  13.927   6.285  19.253 -0.0588 -0.1030 -0.1371
36053DPPC   C3A43297  13.979   6.353  18.810 -0.1585  0.0338 -0.0435
36053DPPC   C4A43298  13.968   6.510  18.321 -0.1647  0.3536  0.0169
36053DPPC   C1B43299  14.174   5.785  19.582 -0.2284  0.2620  0.0425
36053DPPC   C2B43300  14.111   5.851  19.179 -0.0459  0.0931  0.0948
36053DPPC   C3B43301  14.106   5.885  18.703 -0.0677  0.6943 -0.0462
36053DPPC   C4B43302  14.184   5.858  18.215  0.0512 -0.5046 -0.1794
36054DPPC   NC343303  14.936   4.398  20.652  0.1778  0.1541  0.2466
36054DPPC   PO443304  15.034   4.720  20.827 -0.1379  0.2910  0.0110
36054DPPC   GL143305  15.119   4.782  20.432 -0.2163 -0.0087 -0.1853
36054DPPC   GL243306  15.318   4.618  20.401  0.0238 -0.0795 -0.1772
36054DPPC   C1A43307  14.944   4.763  20.124 -0.2814  0.1314  0.0996
36054DPPC   C2A43308  14.954   4.766  19.750  0.0825 -0.1358  0.2981
36054DPPC   C3A43309  15.012   4.785  19.251 -0.0322  0.2139  0.2717
36054DPPC   C4A43310  15.006   4.771  18.767  0.3987  0.0234  0.3395
36054DPPC   C1B43311  15.370   4.604  20.045  0.0962 -0.2463 -0.1614
36054DPPC   C2B43312  15.436   4.711  19.659 -0.1030  0.0317 -0.0332
36054DPPC   C3B43313  15.474   4.746  19.129 -0.1768  0.1358 -0.0051
36054DPPC   C4B43314  15.471   4.736  18.631 -0.1201 -0.1762  0.0737
36055DPPC   NC343315   9.735   2.782  20.622 -0.0290  0.2162 -0.2442
36055DPPC   PO443316   9.320   2.821  20.475 -0.0654 -0.0832  0.0964
36055DPPC   GL143317   9.273   2.912  20.123 -0.2767  0.1945  0.4839
36055DPPC   GL243318   9.527   2.923  20.003 -0.2715 -0.1210  0.2089
36055DPPC   C1A43319   9.189   2.917  19.777  0.5284 -0.2628  0.0610
36055DPPC   C2A43320   9.146   2.987  19.324 -0.2204 -0.4096 -0.1536
36055DPPC   C3A43321   9.080   3.044  18.856 -0.0623 -0.0699 -0.1007
36055DPPC   C4A43322   9.217   3.046  18.395 -0.2759  0.1225  0.3016
36055DPPC   C1B43323   9.606   2.904  19.609 -0.3381  0.0959 -0.4663
36055DPPC   C2B43324   9.723   2.894  19.248 -0.4612 -0.0345  0.4625
36055DPPC   C3B43325   9.588   2.966  18.753 -0.1788  0.3620 -0.1833
36055DPPC   C4B43326   9.709   2.959  18.250 -0.0133 -0.2647  0.0997
36056DPPC   NC343327  11.387   4.332  21.166 -0.0299 -0.0037  0.1119
36056DPPC   PO443328  11.340   4.600  20.866 -0.1150 -0.0316  0.2082
36056DPPC   GL143329  11.345   4.430  20.490 -0.0309 -0.0144 -0.3404
36056DPPC   GL243330  11.234   4.700  20.411 -0.1706  0.3709  0.1098
36056DPPC   C1A43331  11.444   4.308  20.154  0.1211  0.1051  0.0092
36056DPPC   C2A43332  11.365   4.269  19.743  0.2798 -0.0144 -0.2047
36056DPPC   C3A43333  11.453   4.252  19.264 -0.0022 -0.1453  0.1537
36056DPPC   C4A43334  11.522   4.231  18.732 -0.1699 -0.1101  0.2214
36056DPPC   C1B43335  11.194   4.723  20.023 -0.0051  0.3061 -0.1154
36056DPPC   C2B43336  11.278   4.800  19.627 -0.0040  0.0423  0.2163
36056DPPC   C3B43337  11.430   4.754  19.184  0.1946 -0.0298  0.0802
36056DPPC   C4B43338  11.336   4.777  18.750 -0.2321  0.5842  0.0108
36057DPPC   NC343339  11.298   6.588  20.367  0.1947 -0.3071 -0.0959
36057DPPC   PO443340  11.623   6.716  20.520 -0.0434 -0.1932  0.0915
36057DPPC   GL143341  11.821   6.687  20.180 -0.1418 -0.1008 -0.2639
36057DPPC   GL243342  11.997   6.941  20.313  0.0890  0.0681  0.0801
36057DPPC   C1A43343  11.907   6.778  19.817 -0.0368 -0.4492  0.0280
36057DPPC   C2A43344  11.998   6.762  19.380  0.0745  0.0083  0.1521
36057DPPC   C3A43345  12.035   6.835  18.881  0.1314  0.1452  0.1146
36057DPPC   C4A43346  12.011   6.784  18.413  0.0185 -0.1180 -0.2394
36057DPPC   C1B43347  12.148   7.071  20.024 -0.0205  0.1270 -0.2118
36057DPPC   C2B43348  12.218   7.178  19.623 -0.2891  0.1006 -0.0993
36057DPPC   C3B43349  12.250   7.197  19.134 -0.1996 -0.1019 -0.3311
36057DPPC   C4B43350  12.306   7.131  18.665 -0.1002 -0.3417  0.0403
36058DPPC   NC343351  11.212   1.792  20.787  0.1603  0.1050 -0.1912
36058DPPC   PO443352  11.237   2.120  20.511  0.0010  0.0773 -0.1298
36058DPPC   GL143353  11.251   2.169  20.184 -0.0664  0.3954 -0.0717
36058DPPC   GL243354  11.497   2.406  20.018 -0.3199 -0.0774  0.1813
36058DPPC   C1A43355  11.191   1.974  19.895 -0.2149 -0.5476  0.1747
36058DPPC   C2A43356  11.265   2.048  19.450  0.4764  0.1894 -0.2237
36058DPPC   C3A43357  11.289   2.080  18.965  0.2220 -0.3667  0.1736
36058DPPC   C4A43358  11.362   2.102  18.493 -0.0674  0.2006 -0.1426
36058DPPC   C1B43359  11.582   2.376  19.691 -0.0941  0.1524 -0.0023
36058DPPC   C2B43360  11.592   2.399  19.259  0.0113  0.0200  0.1063
36058DPPC   C3B43361  11.653   2.405  18.793  0.0131  0.1679 -0.0125
36058DPPC   C4B43362  11.679   2.428  18.255 -0.2155 -0.0450 -0.0158
36059DPPC   NC343363  12.681   5.150  20.672 -0.2254 -0.0853  0.1318
36059DPPC   PO443364  12.621   4.750  20.752  0.2572 -0.1087  0.1035
36059DPPC   GL143365  12.483   4.468  20.403  0.1528 -0.3735  0.1290
36059DPPC   GL243366  12.265   4.642  20.473 -0.0674 -0.0750 -0.1890
36059DPPC   C1A43367  12.512   4.534  20.007  0.1814 -0.0201 -0.2595
36059DPPC   C2A43368  12.687   4.346  19.734 -0.0095  0.0564  0.0852
36059DPPC   C3A43369  12.777   4.418  19.287 -0.1480 -0.0976  0.0991
36059DPPC   C4A43370  12.795   4.372  18.814 -0.0097 -0.0694  0.1287
36059DPPC   C1B43371  12.092   4.766  20.141  0.3720  0.1721  0.1622
36059DPPC   C2B43372  12.041   4.952  19.748  0.0869  0.0589  0.1518
36059DPPC   C3B43373  12.056   4.980  19.283 -0.1987  0.2245  0.1769
36059DPPC   C4B43374  12.168   4.952  18.806 -0.1800  0.1808  0.2907
36060DPPC   NC343375  12.374   0.958  20.657 -0.0260 -0.0867  0.3718
36060DPPC   PO443376  12.548   1.123  20.365 -0.1017 -0.1587  0.0670
36060DPPC   GL143377  12.457   1.086  19.987  0.1661  0.0550  0.0443
36060DPPC   GL243378  12.243   1.299  20.012 -0.1186 -0.2907 -0.1122
36060DPPC   C1A43379  12.598   1.009  19.677 -0.0118 -0.0574 -0.2523
36060DPPC   C2A43380  12.583   0.895  19.301  0.1197  0.0474 -0.2352
36060DPPC   C3A43381  12.621   0.910  18.841  0.1364  0.2943 -0.3047
36060DPPC   C4A43382  12.619   0.870  18.338 -0.1917  0.2012 -0.2135
36060DPPC   C1B43383  12.315   1.385  19.669 -0.1622  0.1898  0.1903
36060DPPC   C2B43384  12.468   1.384  19.314  0.0866  0.3265  0.2261
36060DPPC   C3B43385  12.456   1.428  18.855  0.0778 -0.1572  0.0637
36060DPPC   C4B43386  12.462   1.397  18.399  0.0959 -0.0603  0.0713
36061DPPC   NC343387   9.050   5.074  20.706 -0.2160  0.0126 -0.2047
36061DPPC   PO443388   9.290   5.448  20.658 -0.1596 -0.0508  0.1958
36061DPPC   GL143389   9.338   5.600  20.350  0.2228  0.2441  0.1664
36061DPPC   GL243390   9.251   5.771  20.226  0.2343 -0.0241  0.2309
36061DPPC   C1A43391   9.516   5.451  20.033  0.0723 -0.3931  0.0949
36061DPPC   C2A43392   9.613   5.463  19.640  0.2167  0.3718 -0.0667
36061DPPC   C3A43393   9.679   5.556  19.161 -0.0847 -0.0639 -0.0004
36061DPPC   C4A43394   9.694   5.536  18.679  0.0354  0.1018  0.0823
36061DPPC   C1B43395   9.111   5.722  19.876 -0.3002  0.0946  0.1517
36061DPPC   C2B43396   9.124   5.576  19.482 -0.0500 -0.0599 -0.0980
36061DPPC   C3B43397   9.197   5.684  19.064  0.3802 -0.1584  0.1563
36061DPPC   C4B43398   9.201   5.665  18.562 -0.2222  0.1004 -0.0810
36062DPPC   NC343399   7.167   5.854  20.494  0.1381 -0.2508 -0.2300
36062DPPC   PO443400   7.494   5.978  20.367  0.1348 -0.1962  0.2194
36062DPPC   GL143401   7.656   5.989  19.885  0.4962  0.0225 -0.1678
36062DPPC   GL243402   7.740   5.717  19.967 -0.2402 -0.0687  0.5059
36062DPPC   C1A43403   7.658   5.998  19.519 -0.1482 -0.1962 -0.6761
36062DPPC   C2A43404   7.718   6.017  19.139  0.0269  0.2218 -0.0076
36062DPPC   C3A43405   7.794   5.995  18.673 -0.0936  0.3897  0.2338
36062DPPC   C4A43406   7.792   6.042  18.193 -0.2018  0.0328  0.0011
36062DPPC   C1B43407   7.825   5.530  19.656 -0.2658  0.0693  0.2516
36062DPPC   C2B43408   7.934   5.522  19.238 -0.1708  0.0182 -0.2444
36062DPPC   C3B43409   7.949   5.543  18.800  0.0363  0.1292 -0.0882
36062DPPC   C4B43410   7.988   5.606  18.309  0.0904  0.3094 -0.0241
36063DPPC   NC343411   9.962   2.014  20.819 -0.0004  0.1145  0.0956
36063DPPC   PO443412   9.949   2.321  20.591 -0.0156  0.2265 -0.0424
36063DPPC   GL143413   9.880   2.315  20.176 -0.0629 -0.3133  0.0736
36063DPPC   GL243414   9.622   2.534  20.236 -0.1708 -0.0192  0.1288
36063DPPC   C1A43415   9.833   2.345  19.786 -0.4356  0.0553 -0.0222
36063DPPC   C2A43416   9.787   2.390  19.346 -0.0079 -0.0404 -0.3014
36063DPPC   C3A43417   9.742   2.493  18.905 -0.1109  0.1436 -0.2722
36063DPPC   C4A43418   9.833   2.431  18.447  0.0034 -0.1306  0.0352
36063DPPC   C1B43419   9.418   2.468  19.937  0.0455 -0.4430  0.1396
36063DPPC   C2B43420   9.329   2.525  19.560  0.0259 -0.1036  0.1635
36063DPPC   C3B43421   9.281   2.535  19.096  0.0331 -0.2352  0.0081
36063DPPC   C4B43422   9.300   2.612  18.616 -0.1353  0.1049 -0.1834
36064DPPC   NC343423   9.431   1.365  20.487 -0.1481  0.1606 -0.2064
36064DPPC   PO443424   9.762   1.553  20.606  0.1063  0.3869  0.3635
36064DPPC   GL143425  10.020   1.721  20.324 -0.1235 -0.2843 -0.0037
36064DPPC   GL243426   9.899   1.879  20.279  0.3708 -0.0791  0.0216
36064DPPC   C1A43427  10.169   1.643  19.995  0.0849  0.2220  0.1347
36064DPPC   C2A43428  10.108   1.473  19.650 -0.0027 -0.0187 -0.1035
36064DPPC   C3A43429  10.116   1.515  19.143  0.1820 -0.1234  0.0200
36064DPPC   C4A43430  10.158   1.526  18.711 -0.0368  0.5791 -0.1052
36064DPPC   C1B43431   9.889   1.920  19.897  0.1052  0.2818 -0.1403
36064DPPC   C2B43432   9.958   1.920  19.478  0.0459 -0.2721  0.1082
36064DPPC   C3B43433   9.900   2.013  18.988 -0.1587  0.1480 -0.3658
36064DPPC   C4B43434   9.960   1.924  18.482 -0.0283  0.1273 -0.0393
36065DPPC   NC343435  13.318   3.041  20.605 -0.1060 -0.1875 -0.1233
36065DPPC   PO443436  13.505   3.396  20.663  0.1647  0.3272 -0.0146
36065DPPC   GL143437  13.441   3.703  20.365  0.2427 -0.0872 -0.1592
36065DPPC   GL243438  13.248   3.868  20.532  0.1894 -0.0441 -0.0081
36065DPPC   C1A43439  13.363   3.675  20.022 -0.1925 -0.1279 -0.1798
36065DPPC   C2A43440  13.372   3.755  19.603  0.0820  0.0037  0.1450
36065DPPC   C3A43441  13.528   3.804  19.132 -0.0940  0.1342 -0.0352
36065DPPC   C4A43442  13.546   3.792  18.586  0.2406  0.1666 -0.0264
36065DPPC   C1B43443  13.015   3.807  20.262  0.0308  0.0329  0.1898
36065DPPC   C2B43444  12.955   3.883  19.854  0.2512  0.0570 -0.1693
36065DPPC   C3B43445  12.863   3.933  19.395  0.3338 -0.0109 -0.0535
36065DPPC   C4B43446  12.911   3.915  18.874  0.2348  0.0116 -0.2439
36066DPPC   NC343447  11.837   3.717  20.521 -0.0167 -0.0184  0.0447
36066DPPC   PO443448  11.454   3.781  20.436  0.1494  0.4569 -0.0083
36066DPPC   GL143449  11.526   3.705  20.036  0.1609  0.1069 -0.1841
36066DPPC   GL243450  11.728   3.992  20.157  0.2180 -0.2528  0.0177
36066DPPC   C1A43451  11.546   3.744  19.668 -0.1733  0.3037 -0.0094
36066DPPC   C2A43452  11.538   3.735  19.225  0.1233 -0.0760 -0.1146
36066DPPC   C3A43453  11.606   3.746  18.812  0.0272  0.1646 -0.1469
36066DPPC   C4A43454  11.666   3.738  18.334 -0.1235 -0.2023 -0.1772
36066DPPC   C1B43455  11.785   4.139  19.800  0.0977 -0.0997 -0.2372
36066DPPC   C2B43456  11.907   4.140  19.422 -0.1351  0.1793 -0.0298
36066DPPC   C3B43457  11.953   4.051  18.927  0.1974 -0.0011  0.0324
36066DPPC   C4B43458  11.932   4.123  18.440 -0.1247  0.0713 -0.1499
36067DPPC   NC343459  12.132   4.748  21.050  0.1569  0.0229  0.2290
36067DPPC   PO443460  11.895   4.598  20.769 -0.0357 -0.1333 -0.1549
36067DPPC   GL143461  11.845   4.451  20.386  0.0207  0.1135  0.0261
36067DPPC   GL243462  11.701   4.651  20.252 -0.1992 -0.4536 -0.2927
36067DPPC   C1A43463  11.982   4.382  20.092  0.1751 -0.1290 -0.3388
36067DPPC   C2A43464  12.193   4.419  19.732  0.4424 -0.0050  0.2013
36067DPPC   C3A43465  12.284   4.469  19.309  0.0764  0.0271  0.3811
36067DPPC   C4A43466  12.259   4.459  18.788  0.0359 -0.0518  0.4302
36067DPPC   C1B43467  11.699   4.622  19.878 -0.4056  0.0455  0.0298
36067DPPC   C2B43468  11.804   4.634  19.494 -0.2743 -0.1789  0.2154
36067DPPC   C3B43469  11.851   4.566  18.973 -0.2238  0.1723 -0.2239
36067DPPC   C4B43470  11.824   4.611  18.465  0.0679  0.0110  0.0603
36068DPPC   NC343471  13.380   1.582  20.697  0.0499 -0.0916 -0.3413
36068DPPC   PO443472  13.354   1.162  20.607  0.0957  0.0192  0.1349
36068DPPC   GL143473  13.265   1.012  20.241 -0.0523 -0.4522  0.0564
36068DPPC   GL243474  12.993   1.241  20.241  0.2180 -0.0748  0.0775
36068DPPC   C1A43475  13.460   0.764  20.120  0.0605  0.1303  0.1070
36068DPPC   C2A43476  13.450   0.639  19.724  0.0937  0.0558  0.0752
36068DPPC   C3A43477  13.619   0.807  19.291 -0.0367 -0.1795 -0.0691
36068DPPC   C4A43478  13.656   0.719  18.834 -0.3790  0.0988  0.1124
36068DPPC   C1B43479  12.892   1.221  19.919  0.1923  0.0348  0.0575
36068DPPC   C2B43480  12.922   1.303  19.536  0.2504 -0.0641 -0.0549
36068DPPC   C3B43481  12.917   1.310  19.067 -0.1245  0.1411 -0.2549
36068DPPC   C4B43482  12.882   1.245  18.566 -0.1269 -0.0239  0.0298
36069DPPC   NC343483  10.411   4.345  20.768 -0.3912 -0.0537 -0.2707
36069DPPC   PO443484  10.334   4.655  20.572  0.0063  0.2115  0.3932
36069DPPC   GL143485  10.429   4.567  20.159 -0.1248 -0.0353 -0.1082
36069DPPC   GL243486  10.156   4.776  20.048 -0.1318  0.0646 -0.1107
36069DPPC   C1A43487  10.392   4.389  19.848  0.1334 -0.3109  0.2511
36069DPPC   C2A43488  10.465   4.447  19.432 -0.1571  0.2905 -0.2055
36069DPPC   C3A43489  10.458   4.541  18.980  0.0502 -0.0005 -0.0466
36069DPPC   C4A43490  10.504   4.454  18.518  0.1120  0.0520  0.3366
36069DPPC   C1B43491  10.208   4.905  19.685  0.2439  0.1723 -0.0591
36069DPPC   C2B43492  10.289   4.930  19.220  0.1279 -0.0828 -0.0325
36069DPPC   C3B43493  10.300   4.899  18.727 -0.0296  0.2654 -0.0077
36069DPPC   C4B43494  10.341   4.994  18.271 -0.2998 -0.0012 -0.0075
36070DPPC   NC343495  13.975   5.718  20.939  0.0861  0.1199  0.0118
36070DPPC   PO443496  13.877   6.037  20.724 -0.0664  0.0628 -0.3599
36070DPPC   GL143497  13.908   6.098  20.323  0.0144  0.0833 -0.0047
36070DPPC   GL243498  13.944   6.393  20.265 -0.0983  0.1052 -0.2836
36070DPPC   C1A43499  13.708   5.985  19.993 -0.4323 -0.3726  0.2594
36070DPPC   C2A43500  13.643   5.965  19.578  0.0411 -0.0174  0.3185
36070DPPC   C3A43501  13.653   5.970  19.045 -0.0216  0.1308  0.1799
36070DPPC   C4A43502  13.616   5.954  18.539  0.0778 -0.2284 -0.3799
36070DPPC   C1B43503  14.071   6.624  19.956  0.2300 -0.0083  0.1876
36070DPPC   C2B43504  14.248   6.619  19.594  0.1457 -0.0360 -0.0312
36070DPPC   C3B43505  14.206   6.714  19.128 -0.0940 -0.0975  0.1290
36070DPPC   C4B43506  14.285   6.724  18.647 -0.3144  0.0903  0.0628
36071DPPC   NC343507   7.696   3.734  20.579 -0.1387 -0.1800 -0.1015
36071DPPC   PO443508   7.707   4.101  20.441 -0.1774  0.1335 -0.1969
36071DPPC   GL143509   7.933   4.109  20.081  0.1639 -0.0130 -0.0223
36071DPPC   GL243510   8.108   4.335  20.189  0.1500  0.3183  0.0634
36071DPPC   C1A43511   7.799   4.078  19.772 -0.1789 -0.0092  0.0117
36071DPPC   C2A43512   7.867   4.171  19.355 -0.0564 -0.0064  0.1541
36071DPPC   C3A43513   7.895   4.165  18.862  0.2350  0.0305  0.2727
36071DPPC   C4A43514   7.911   4.239  18.349  0.0482 -0.2248  0.0152
36071DPPC   C1B43515   8.151   4.495  19.860  0.3423 -0.0058 -0.0477
36071DPPC   C2B43516   8.213   4.547  19.461 -0.2463  0.2027 -0.1497
36071DPPC   C3B43517   8.216   4.564  19.005  0.1296 -0.1760 -0.2060
36071DPPC   C4B43518   8.322   4.519  18.545 -0.0773  0.1827 -0.1004
36072DPPC   NC343519  13.523   0.719  20.619 -0.1166 -0.3497  0.0745
36072DPPC   PO443520  13.934   0.820  20.743  0.0322 -0.2078 -0.0156
36072DPPC   GL143521  13.976   1.112  20.353  0.0026 -0.2263  0.2326
36072DPPC   GL243522  13.722   1.095  20.316  0.1668  0.0137  0.0184
36072DPPC   C1A43523  13.988   1.317  20.028  0.0410  0.2363  0.0067
36072DPPC   C2A43524  13.881   1.648  19.812  0.3349  0.0735  0.1744
36072DPPC   C3A43525  13.777   1.686  19.330 -0.0694  0.0977  0.0969
36072DPPC   C4A43526  13.678   1.584  18.899 -0.1908  0.2512  0.1348
36072DPPC   C1B43527  13.604   1.150  19.951 -0.0843  0.2062  0.0629
36072DPPC   C2B43528  13.489   1.232  19.556  0.1040  0.1999  0.0411
36072DPPC   C3B43529  13.411   1.204  19.102  0.1051 -0.2000  0.0343
36072DPPC   C4B43530  13.422   1.158  18.634 -0.0288  0.2970 -0.0412
36073DPPC   NC343531  10.693   5.908  20.420  0.3022  0.0820 -0.2333
36073DPPC   PO443532  10.342   6.006  20.521 -0.2339 -0.1546  0.1685
36073DPPC   GL143533  10.064   5.978  20.371 -0.0260  0.4148 -0.0378
36073DPPC   GL243534  10.010   5.758  20.230 -0.0860 -0.0643 -0.2794
36073DPPC   C1A43535  10.070   6.181  20.066 -0.3310 -0.2829  0.2869
36073DPPC   C2A43536  10.286   6.322  19.694 -0.1205  0.0137 -0.0196
36073DPPC   C3A43537  10.345   6.246  19.235 -0.1607  0.1564 -0.3011
36073DPPC   C4A43538  10.342   6.312  18.745 -0.1127 -0.2711 -0.0533
36073DPPC   C1B43539  10.004   5.777  19.864 -0.2396  0.1090  0.1167
36073DPPC   C2B43540   9.973   5.878  19.496  0.0632 -0.0720  0.0323
36073DPPC   C3B43541  10.100   5.863  19.040 -0.0581  0.1867 -0.1751
36073DPPC   C4B43542  10.093   5.925  18.525  0.2707  0.0654 -0.0422
36074DPPC   NC343543   9.005   4.693  21.066 -0.1866  0.2190 -0.2170
36074DPPC   PO443544   9.125   4.583  20.712  0.0504 -0.3777  0.1685
36074DPPC   GL143545   9.116   4.778  20.293 -0.0747  0.1366 -0.1022
36074DPPC   GL243546   9.403   4.571  20.282 -0.0779 -0.0500  0.4269
36074DPPC   C1A43547   9.031   4.730  19.917  0.0037  0.2581 -0.0095
36074DPPC   C2A43548   8.938   4.801  19.542  0.1766  0.0519 -0.0996
36074DPPC   C3A43549   8.978   4.814  19.047 -0.0221  0.1446  0.2449
36074DPPC   C4A43550   9.028   4.819  18.587 -0.2089  0.1590  0.1893
36074DPPC   C1B43551   9.496   4.603  19.900 -0.3258  0.0342 -0.1078
36074DPPC   C2B43552   9.509   4.629  19.485 -0.2650 -0.5458  0.1299
36074DPPC   C3B43553   9.479   4.737  19.033  0.0435  0.2194 -0.1756
36074DPPC   C4B43554   9.504   4.788  18.563 -0.0201  0.1597 -0.1469
36075DPPC   NC343555  13.581   5.115  20.432 -0.0867  0.2526 -0.1253
36075DPPC   PO443556  13.139   5.148  20.376  0.0931  0.1257 -0.0214
36075DPPC   GL143557  12.840   5.158  20.042 -0.0750  0.0973  0.0536
36075DPPC   GL243558  12.760   5.432  20.160  0.0915  0.0298 -0.0288
36075DPPC   C1A43559  12.853   5.195  19.662  0.1832  0.1567 -0.1265
36075DPPC   C2A43560  12.870   5.195  19.273  0.0064 -0.0238  0.0028
36075DPPC   C3A43561  12.885   5.164  18.797 -0.2152 -0.1993  0.0957
36075DPPC   C4A43562  12.893   5.083  18.307 -0.0165  0.1063  0.0623
36075DPPC   C1B43563  12.849   5.601  19.846  0.0882  0.4730  0.0495
36075DPPC   C2B43564  12.816   5.779  19.525 -0.1056 -0.1962  0.0761
36075DPPC   C3B43565  12.826   5.723  19.053  0.0982  0.1703 -0.3950
36075DPPC   C4B43566  12.770   5.674  18.587  0.1066  0.3568 -0.1170
36076DPPC   NC343567  13.064   3.597  20.990 -0.0666 -0.5888 -0.2948
36076DPPC   PO443568  12.950   3.427  20.658 -0.1887  0.0873 -0.1541
36076DPPC   GL143569  12.998   3.239  20.341  0.0660 -0.0553 -0.1488
36076DPPC   GL243570  13.186   3.266  20.172  0.0731  0.1097  0.2093
36076DPPC   C1A43571  12.794   3.105  20.092 -0.4490  0.1416  0.1082
36076DPPC   C2A43572  12.775   3.067  19.691  0.1458  0.0845  0.0496
36076DPPC   C3A43573  12.728   3.013  19.241  0.1415  0.0994  0.0581
36076DPPC   C4A43574  12.773   2.983  18.748 -0.0156  0.1489 -0.0711
36076DPPC   C1B43575  13.068   3.390  19.877  0.4423 -0.0917  0.2295
36076DPPC   C2B43576  13.071   3.465  19.454  0.1230  0.1529  0.5381
36076DPPC   C3B43577  13.131   3.500  19.003 -0.0191  0.1672  0.0267
36076DPPC   C4B43578  13.095   3.516  18.472  0.1178 -0.1254 -0.0512
36077DPPC   NC343579  12.347   1.540  20.550  0.0629  0.1861 -0.0565
36077DPPC   PO443580  12.041   1.658  20.357  0.2279  0.0221  0.1313
36077DPPC   GL143581  12.087   1.941  20.068 -0.0551 -0.1379  0.0906
36077DPPC   GL243582  12.333   1.773  19.993  0.0705 -0.3200  0.0302
36077DPPC   C1A43583  11.971   2.220  19.794 -0.1336 -0.3117  0.1262
36077DPPC   C2A43584  12.059   2.283  19.429  0.1089  0.2720  0.0852
36077DPPC   C3A43585  12.098   2.260  18.994 -0.1995  0.0592 -0.1710
36077DPPC   C4A43586  12.103   2.260  18.516 -0.0837 -0.2245  0.1732
36077DPPC   C1B43587  12.280   1.861  19.639 -0.6136  0.1061  0.2408
36077DPPC   C2B43588  12.288   1.829  19.208  0.0218  0.1394 -0.2726
36077DPPC   C3B43589  12.316   1.815  18.667  0.0898 -0.3462 -0.1930
36077DPPC   C4B43590  12.263   1.774  18.199 -0.3940  0.0348 -0.4755
36078DPPC   NC343591   8.433   1.087  20.860 -0.1398  0.0713 -0.1679
36078DPPC   PO443592   8.131   1.216  20.685 -0.4080 -0.0949 -0.2056
36078DPPC   GL143593   7.964   1.415  20.394 -0.0578 -0.2862  0.3066
36078DPPC   GL243594   8.204   1.595  20.406 -0.2988  0.1644  0.2258
36078DPPC   C1A43595   7.921   1.350  20.007 -0.0750 -0.1744 -0.3158
36078DPPC   C2A43596   7.773   1.535  19.648 -0.2207  0.0795 -0.1708
36078DPPC   C3A43597   7.798   1.593  19.205 -0.0172 -0.1319 -0.0255
36078DPPC   C4A43598   7.861   1.539  18.724 -0.1684  0.4651  0.3032
36078DPPC   C1B43599   8.361   1.552  20.113 -0.2925 -0.0339  0.2023
36078DPPC   C2B43600   8.308   1.535  19.695  0.1488 -0.0311  0.0146
36078DPPC   C3B43601   8.304   1.419  19.219  0.1323  0.0499 -0.1796
36078DPPC   C4B43602   8.361   1.410  18.719  0.2502  0.1230  0.0220
36079DPPC   NC343603  13.154   4.730  20.718 -0.0728  0.1946 -0.1405
36079DPPC   PO443604  13.535   4.592  20.602  0.1731 -0.0185 -0.1054
36079DPPC   GL143605  13.645   4.532  20.154  0.3080 -0.2212  0.0648
36079DPPC   GL243606  13.469   4.748  20.093 -0.0939 -0.3664  0.1581
36079DPPC   C1A43607  13.629   4.458  19.777  0.1209 -0.0756 -0.1069
36079DPPC   C2A43608  13.564   4.623  19.422  0.2907  0.0137 -0.4315
36079DPPC   C3A43609  13.639   4.603  18.925 -0.3086  0.2419 -0.3306
36079DPPC   C4A43610  13.671   4.616  18.408  0.1792  0.0462 -0.0947
36079DPPC   C1B43611  13.418   5.037  19.853  0.0232  0.0846 -0.1277
36079DPPC   C2B43612  13.371   5.125  19.463  0.0040 -0.1419  0.2506
36079DPPC   C3B43613  13.422   5.186  18.994  0.0531  0.1477 -0.0142
36079DPPC   C4B43614  13.478   5.159  18.515 -0.0117 -0.1049 -0.1419
36080DPPC   NC343615   8.823   0.560  20.582  0.1325  0.1992 -0.2389
36080DPPC   PO443616   9.076   0.253  20.552  0.1580 -0.2984 -0.0722
36080DPPC   GL143617   9.299   0.497  20.316  0.1424  0.0334  0.1957
36080DPPC   GL243618   9.051   0.543  20.167  0.1329 -0.1175 -0.2273
36080DPPC   C1A43619   9.505   0.352  20.011 -0.0309 -0.0122  0.1331
36080DPPC   C2A43620   9.617   0.211  19.637 -0.0026  0.0235 -0.0753
36080DPPC   C3A43621   9.643   0.266  19.182 -0.1446 -0.1068 -0.0248
36080DPPC   C4A43622   9.763   0.298  18.740  0.2734  0.0412  0.0179
36080DPPC   C1B43623   9.132   0.412  19.828  0.4064  0.4969 -0.0320
36080DPPC   C2B43624   9.163   0.390  19.393  0.1455  0.1635  0.1493
36080DPPC   C3B43625   9.279   0.418  18.945  0.3497  0.1097 -0.3207
36080DPPC   C4B43626   9.302   0.457  18.433 -0.3141 -0.0069  0.2668
36081DPPC   NC343627   7.749   1.611  20.721 -0.1307 -0.0020  0.2431
36081DPPC   PO443628   7.814   1.939  20.527 -0.0622  0.0230 -0.3689
36081DPPC   GL143629   8.003   1.899  20.121  0.1733  0.1576 -0.0298
36081DPPC   GL243630   7.757   1.913  20.027 -0.0597 -0.0447  0.1796
36081DPPC   C1A43631   8.208   1.980  19.821  0.0406  0.3924 -0.2974
36081DPPC   C2A43632   8.153   1.968  19.413 -0.2561 -0.0759 -0.0187
36081DPPC   C3A43633   8.173   1.908  18.948  0.0519  0.0086 -0.0118
36081DPPC   C4A43634   8.171   1.892  18.490 -0.1703 -0.2302 -0.1436
36081DPPC   C1B43635   7.720   2.093  19.688 -0.1303  0.1878  0.1787
36081DPPC   C2B43636   7.671   2.073  19.242 -0.0730  0.3838 -0.0718
36081DPPC   C3B43637   7.634   2.009  18.791  0.1336 -0.0019  0.0868
36081DPPC   C4B43638   7.675   2.097  18.265  0.1569  0.0254 -0.1737
36082DPPC   NC343639  11.957   1.796  20.862 -0.0465  0.4170  0.1925
36082DPPC   PO443640  11.648   1.539  20.733 -0.0561  0.1844  0.1087
36082DPPC   GL143641  11.621   1.430  20.331 -0.2063  0.0090  0.0954
36082DPPC   GL243642  11.413   1.600  20.291  0.3243  0.2035  0.0375
36082DPPC   C1A43643  11.599   1.188  20.054  0.0161  0.1993  0.1915
36082DPPC   C2A43644  11.540   1.095  19.607  0.1793 -0.1837 -0.0742
36082DPPC   C3A43645  11.613   1.115  19.140  0.1545  0.1470 -0.0239
36082DPPC   C4A43646  11.568   1.097  18.629 -0.0913  0.0170  0.2634
36082DPPC   C1B43647  11.330   1.533  19.943  0.1864  0.1483 -0.1367
36082DPPC   C2B43648  11.417   1.563  19.507 -0.0345  0.0027 -0.2854
36082DPPC   C3B43649  11.397   1.559  19.029 -0.1527 -0.0519  0.1449
36082DPPC   C4B43650  11.451   1.563  18.569 -0.2438  0.1191 -0.2533
36083DPPC   NC343651   8.958   6.073  20.324 -0.0488  0.0757 -0.5100
36083DPPC   PO443652   9.058   6.357  20.567 -0.2967  0.0363  0.2618
36083DPPC   GL143653   9.433   6.596  20.308  0.2668 -0.0284  0.2433
36083DPPC   GL243654   9.184   6.664  20.114 -0.2718 -0.1843  0.0741
36083DPPC   C1A43655   9.631   6.521  19.984 -0.2963  0.4260 -0.1044
36083DPPC   C2A43656   9.812   6.362  19.667  0.1129 -0.0131  0.2154
36083DPPC   C3A43657   9.849   6.352  19.185  0.2741 -0.3412 -0.0819
36083DPPC   C4A43658   9.840   6.416  18.714 -0.0756 -0.0404 -0.3054
36083DPPC   C1B43659   9.230   6.565  19.791  0.1630 -0.2263 -0.1152
36083DPPC   C2B43660   9.315   6.489  19.448 -0.2094  0.1440 -0.2966
36083DPPC   C3B43661   9.364   6.480  18.976 -0.0298 -0.0988  0.0764
36083DPPC   C4B43662   9.400   6.564  18.490 -0.0344  0.2271 -0.0063
36084DPPC   NC343663  15.306   6.160  20.195 -0.1817 -0.0995 -0.2431
36084DPPC   PO443664  15.333   5.792  20.117 -0.0265  0.0947 -0.2141
36084DPPC   GL143665  15.006   5.609  19.979 -0.2889  0.1187 -0.1702
36084DPPC   GL243666  14.807   5.584  20.061  0.1096  0.1839  0.1079
36084DPPC   C1A43667  14.986   5.634  19.605  0.1060  0.3512  0.0073
36084DPPC   C2A43668  15.064   5.719  19.216  0.0093  0.1858 -0.2651
36084DPPC   C3A43669  15.107   5.631  18.772  0.3133 -0.2123  0.1909
36084DPPC   C4A43670  15.063   5.620  18.274 -0.0592  0.0720 -0.3489
36084DPPC   C1B43671  14.587   5.650  19.789  0.0282 -0.0969 -0.1575
36084DPPC   C2B43672  14.598   5.676  19.346  0.1239 -0.0258 -0.0676
36084DPPC   C3B43673  14.563   5.807  18.939  0.2331  0.2185  0.2368
36084DPPC   C4B43674  14.618   5.706  18.448 -0.1412  0.0727 -0.1566
36085DPPC   NC343675   9.820   6.359  20.439  0.0497  0.0548  0.0825
36085DPPC   PO443676  10.173   6.518  20.571 -0.1911  0.1292 -0.0559
36085DPPC   GL143677  10.350   6.529  20.178  0.0521  0.1050 -0.2547
36085DPPC   GL243678  10.486   6.261  20.176 -0.0675 -0.1606  0.1007
36085DPPC   C1A43679  10.484   6.706  19.886 -0.0149  0.3764  0.1443
36085DPPC   C2A43680  10.613   6.694  19.471 -0.4500  0.0909 -0.0183
36085DPPC   C3A43681  10.686   6.634  19.014 -0.0571  0.0098  0.0358
36085DPPC   C4A43682  10.701   6.628  18.474  0.1442  0.2114  0.3796
36085DPPC   C1B43683  10.737   6.279  19.941  0.0272 -0.2399  0.0104
36085DPPC   C2B43684  10.743   6.082  19.569 -0.0654 -0.0933 -0.0564
36085DPPC   C3B43685  10.825   6.131  19.127 -0.0979  0.0106  0.1311
36085DPPC   C4B43686  10.916   6.205  18.614  0.1177 -0.0764  0.0495
36086DPPC   NC343687  12.521   5.879  20.476 -0.0510  0.4294  0.2115
36086DPPC   PO443688  12.391   5.504  20.571  0.0048 -0.0859  0.0452
36086DPPC   GL143689  12.284   5.400  20.248  0.0791  0.0579 -0.3965
36086DPPC   GL243690  12.400   5.115  20.307  0.2423  0.3520 -0.2145
36086DPPC   C1A43691  12.399   5.439  19.903  0.0224  0.2360  0.0854
36086DPPC   C2A43692  12.417   5.354  19.498 -0.2883  0.0426 -0.1546
36086DPPC   C3A43693  12.481   5.337  19.047 -0.0194  0.0118 -0.1697
36086DPPC   C4A43694  12.453   5.296  18.542 -0.3927  0.3386 -0.0001
36086DPPC   C1B43695  12.449   4.953  19.988 -0.0526  0.0737 -0.0282
36086DPPC   C2B43696  12.507   4.864  19.516  0.0678  0.1991  0.0423
36086DPPC   C3B43697  12.611   4.799  19.018 -0.0063 -0.1367  0.0617
36086DPPC   C4B43698  12.592   4.793  18.559  0.0625 -0.5895 -0.0992
36087DPPC   NC343699   9.854   0.673  20.749 -0.2113 -0.0863  0.1512
36087DPPC   PO443700   9.806   1.032  20.601  0.0485  0.0601 -0.1318
36087DPPC   GL143701   9.639   1.025  20.250 -0.0217  0.2558  0.0818
36087DPPC   GL243702   9.798   1.243  20.095 -0.0611  0.1641 -0.0925
36087DPPC   C1A43703   9.457   0.780  20.045  0.0727 -0.2302  0.3612
36087DPPC   C2A43704   9.480   0.716  19.625  0.0454  0.2091 -0.0435
36087DPPC   C3A43705   9.532   0.791  19.211 -0.3161 -0.1577 -0.0738
36087DPPC   C4A43706   9.537   0.771  18.744 -0.1724  0.1576  0.2553
36087DPPC   C1B43707   9.824   1.105  19.735  0.0283 -0.1157  0.3424
36087DPPC   C2B43708   9.755   1.188  19.334  0.0810 -0.1531  0.1358
36087DPPC   C3B43709   9.849   1.146  18.894  0.2538  0.0822  0.1882
36087DPPC   C4B43710   9.872   1.142  18.418  0.2505 -0.1563 -0.0104
36088DPPC   NC343711   8.142   0.112  20.296 -0.0464  0.0885 -0.1907
36088DPPC   PO443712   7.882   0.418  20.333 -0.0427 -0.0718  0.0603
36088DPPC   GL143713   7.708   0.644  20.075  0.0825  0.2852  0.0604
36088DPPC   GL243714   7.500   0.399  19.936 -0.0285  0.2283  0.3141
36088DPPC   C1A43715   7.855   0.899  19.803  0.2833  0.0499 -0.2848
36088DPPC   C2A43716   7.952   1.125  19.483  0.0016  0.0844 -0.1411
36088DPPC   C3A43717   7.979   1.122  18.978 -0.1471 -0.0056 -0.1732
36088DPPC   C4A43718   8.045   1.114  18.484 -0.0144  0.0588 -0.1608
36088DPPC   C1B43719   7.770   0.220  19.649 -0.0143 -0.0032  0.3046
36088DPPC   C2B43720   7.828   0.164  19.201  0.2090 -0.0060 -0.2693
36088DPPC   C3B43721   7.939   0.264  18.751  0.1290  0.1214 -0.0020
36088DPPC   C4B43722   7.936   0.231  18.258 -0.1127  0.1013 -0.0881
36089DPPC   NC343723   9.592   4.276  20.791  0.0124  0.2290  0.1768
36089DPPC   PO443724   9.936   4.222  20.599  0.1964  0.2085 -0.0554
36089DPPC   GL143725   9.751   4.239  20.281  0.1006  0.0521  0.3843
36089DPPC   GL243726   9.992   4.387  20.194 -0.0187  0.2242  0.0488
36089DPPC   C1A43727   9.630   4.097  19.909 -0.0947  0.2871  0.2417
36089DPPC   C2A43728   9.675   4.180  19.494 -0.0412  0.0179 -0.2801
36089DPPC   C3A43729   9.665   4.245  19.053 -0.1066  0.0389 -0.1139
36089DPPC   C4A43730   9.660   4.252  18.602 -0.0951  0.0222  0.1183
36089DPPC   C1B43731   9.962   4.523  19.808  0.0929 -0.1692 -0.1498
36089DPPC   C2B43732  10.020   4.563  19.458 -0.1121 -0.0606  0.1486
36089DPPC   C3B43733   9.984   4.618  18.951  0.1282  0.0915 -0.0382
36089DPPC   C4B43734   9.961   4.618  18.406  0.1557 -0.1360 -0.0520
36090DPPC   NC343735   7.140   0.277  20.758 -0.0381 -0.0041 -0.3877
36090DPPC   PO443736   6.815   0.330  20.583  0.3142  0.0092 -0.0406
36090DPPC   GL143737   6.840   0.277  20.184 -0.3259  0.3251 -0.3526
36090DPPC   GL243738   7.060   0.416  20.076 -0.2491 -0.1823 -0.4991
36090DPPC   C1A43739   6.927  -0.014  19.970  0.0836 -0.4969  0.0566
36090DPPC   C2A43740   6.963  -0.018  19.570 -0.0901 -0.0058 -0.2287
36090DPPC   C3A43741   7.056   0.019  19.078 -0.1626 -0.0593 -0.2461
36090DPPC   C4A43742   7.158  -0.048  18.608  0.0615 -0.1223  0.0977
36090DPPC   C1B43743   7.125   0.423  19.714 -0.0901 -0.3653  0.3150
36090DPPC   C2B43744   7.313   0.361  19.323  0.0630 -0.1016 -0.3039
36090DPPC   C3B43745   7.375   0.365  18.859  0.2024  0.0875  0.0578
36090DPPC   C4B43746   7.429   0.285  18.379 -0.1271 -0.0802 -0.0914
36091DPPC   NC343747  10.177   1.384  20.814  0.1725  0.0550 -0.0404
36091DPPC   PO443748  10.405   1.648  20.595  0.2186  0.0468  0.1328
36091DPPC   GL143749  10.522   1.673  20.183  0.2633 -0.1346  0.4199
36091DPPC   GL243750  10.612   1.396  20.193  0.0497 -0.0022 -0.1771
36091DPPC   C1A43751  10.517   1.890  19.861  0.1729  0.0322  0.1332
36091DPPC   C2A43752  10.501   1.871  19.424 -0.1943 -0.1606  0.1662
36091DPPC   C3A43753  10.444   1.896  18.903  0.1224 -0.2609 -0.0451
36091DPPC   C4A43754  10.592   1.925  18.400  0.2365  0.0145 -0.0953
36091DPPC   C1B43755  10.565   1.304  19.832 -0.2355 -0.1479 -0.0466
36091DPPC   C2B43756  10.590   1.345  19.425  0.0249 -0.0433 -0.1325
36091DPPC   C3B43757  10.648   1.439  18.992  0.2284  0.1193 -0.0751
36091DPPC   C4B43758  10.597   1.422  18.477  0.2880  0.3597  0.2162
36092DPPC   NC343759  12.523   2.220  20.865 -0.1045 -0.0942 -0.2184
36092DPPC   PO443760  12.732   1.888  20.746  0.0604 -0.1050 -0.1976
36092DPPC   GL143761  12.725   1.764  20.369  0.1896 -0.3259  0.2260
36092DPPC   GL243762  12.665   1.580  20.195 -0.2922 -0.1976  0.1973
36092DPPC   C1A43763  12.639   2.044  20.086 -0.2428  0.0723 -0.2294
36092DPPC   C2A43764  12.558   2.215  19.749  0.2551 -0.1497 -0.0508
36092DPPC   C3A43765  12.617   2.244  19.238  0.2379  0.3144 -0.3488
36092DPPC   C4A43766  12.580   2.210  18.784 -0.1626  0.1728 -0.1073
36092DPPC   C1B43767  12.775   1.667  19.862 -0.2972  0.1765 -0.0103
36092DPPC   C2B43768  12.766   1.819  19.478  0.0915 -0.1591  0.1182
36092DPPC   C3B43769  12.749   1.808  18.986  0.0112 -0.3737 -0.1345
36092DPPC   C4B43770  12.830   1.764  18.511  0.1410  0.0246  0.1741
36093DPPC   NC343771   9.950   3.633  20.432 -0.0153 -0.1041 -0.0654
36093DPPC   PO443772  10.008   3.322  20.723  0.2350 -0.3809 -0.0581
36093DPPC   GL143773  10.107   3.102  20.377  0.0437 -0.1540  0.0057
36093DPPC   GL243774   9.833   3.184  20.314  0.0918  0.0412 -0.3446
36093DPPC   C1A43775  10.169   3.356  20.091 -0.2209 -0.4833 -0.2766
36093DPPC   C2A43776  10.236   3.585  19.813  0.0260 -0.0854 -0.0327
36093DPPC   C3A43777  10.382   3.694  19.386 -0.1214  0.1927  0.1160
36093DPPC   C4A43778  10.282   3.650  18.870 -0.1214  0.2302 -0.1570
36093DPPC   C1B43779   9.802   3.251  19.919 -0.1313 -0.3642 -0.2292
36093DPPC   C2B43780   9.954   3.238  19.528 -0.0516 -0.2181 -0.0568
36093DPPC   C3B43781   9.969   3.233  18.993  0.1737  0.0807 -0.1881
36093DPPC   C4B43782  10.028   3.338  18.498  0.2557 -0.2796 -0.1703
36094DPPC   NC343783  12.230   5.804  20.943  0.0804  0.1300 -0.0227
36094DPPC   PO443784  12.116   6.087  20.740 -0.0532 -0.1669  0.1589
36094DPPC   GL143785  12.085   6.153  20.289 -0.0183  0.2338  0.0919
36094DPPC   GL243786  12.052   6.343  20.184  0.5364  0.0925 -0.3681
36094DPPC   C1A43787  12.147   5.942  20.027 -0.3867 -0.4144  0.2996
36094DPPC   C2A43788  12.315   5.821  19.660 -0.2279 -0.0453  0.0988
36094DPPC   C3A43789  12.365   5.835  19.228  0.2921  0.1236  0.0559
36094DPPC   C4A43790  12.287   5.853  18.742 -0.0547 -0.1468 -0.0995
36094DPPC   C1B43791  12.002   6.356  19.797  0.2244  0.2538  0.2965
36094DPPC   C2B43792  12.166   6.292  19.434 -0.0202  0.0294 -0.2037
36094DPPC   C3B43793  12.167   6.328  18.980  0.2087  0.2569  0.3015
36094DPPC   C4B43794  12.175   6.320  18.481 -0.1840 -0.0785  0.2532
36095DPPC   NC343795  11.853   0.801  15.946  0.1125 -0.0165  0.1790
36095DPPC   PO443796  11.932   1.205  15.958 -0.1977  0.2051 -0.1749
36095DPPC   GL143797  11.952   1.213  16.407  0.1930  0.0350 -0.1094
36095DPPC   GL243798  12.107   0.973  16.359  0.3397  0.0608  0.1539
36095DPPC   C1A43799  11.870   1.184  16.773  0.0008 -0.1001 -0.1960
36095DPPC   C2A43800  11.649   1.120  17.143  0.0372  0.0997  0.0635
36095DPPC   C3A43801  11.681   1.084  17.652 -0.1683  0.1196 -0.4144
36095DPPC   C4A43802  11.601   1.032  18.114 -0.0006 -0.0881  0.0431
36095DPPC   C1B43803  12.300   1.010  16.650  0.2275 -0.1050  0.0928
36095DPPC   C2B43804  12.220   1.002  17.052 -0.0354  0.0493 -0.1041
36095DPPC   C3B43805  12.231   1.000  17.525 -0.1241  0.2106 -0.2896
36095DPPC   C4B43806  12.190   0.945  18.010 -0.1125 -0.0942  0.1993
36096DPPC   NC343807   7.391   5.679  15.275 -0.2454  0.0831 -0.1231
36096DPPC   PO443808   7.420   5.397  15.529 -0.0534 -0.0557  0.3428
36096DPPC   GL143809   7.438   5.440  15.938 -0.2892 -0.1725 -0.1422
36096DPPC   GL243810   7.137   5.335  15.944  0.3462 -0.2649  0.0821
36096DPPC   C1A43811   7.504   5.400  16.277  0.0468 -0.3149  0.1707
36096DPPC   C2A43812   7.585   5.296  16.643 -0.0957 -0.1004 -0.0573
36096DPPC   C3A43813   7.666   5.324  17.086 -0.0382  0.2906  0.0731
36096DPPC   C4A43814   7.667   5.278  17.602  0.0147  0.0723 -0.0078
36096DPPC   C1B43815   7.055   5.264  16.300  0.2483 -0.0244  0.1089
36096DPPC   C2B43816   7.083   5.299  16.705 -0.1357 -0.0250 -0.2990
36096DPPC   C3B43817   7.149   5.367  17.193 -0.0752  0.2232  0.4133
36096DPPC   C4B43818   7.187   5.397  17.725  0.0015 -0.1072 -0.0823
36097DPPC   NC343819   9.637   6.386  15.701  0.0385  0.0033 -0.2501
36097DPPC   PO443820   9.875   6.121  15.831  0.1829 -0.1137 -0.0125
36097DPPC   GL143821   9.887   5.986  16.265  0.3265 -0.0511  0.0965
36097DPPC   GL243822   9.624   6.010  16.287 -0.1790 -0.0105  0.2916
36097DPPC   C1A43823   9.992   5.964  16.610  0.0533 -0.2080 -0.0064
36097DPPC   C2A43824  10.068   5.922  17.001 -0.0416  0.0427 -0.1811
36097DPPC   C3A43825  10.035   5.893  17.530  0.1334 -0.2076  0.3525
36097DPPC   C4A43826  10.042   5.871  18.009  0.3112  0.1019 -0.3276
36097DPPC   C1B43827   9.534   5.976  16.605 -0.3755 -0.3165 -0.4052
36097DPPC   C2B43828   9.559   6.016  16.983 -0.1044 -0.0769 -0.1311
36097DPPC   C3B43829   9.572   6.033  17.423 -0.0468  0.3630  0.0160
36097DPPC   C4B43830   9.562   5.993  17.904  0.0734  0.1849  0.1499
36098DPPC   NC343831   8.726   4.166  16.194 -0.0231 -0.2627 -0.1551
36098DPPC   PO443832   9.071   4.323  16.080 -0.1295 -0.1347  0.0267
36098DPPC   GL143833   9.454   4.308  16.303  0.0284 -0.3933  0.3088
36098DPPC   GL243834   9.304   4.480  16.494 -0.0194 -0.1479  0.1239
36098DPPC   C1A43835   9.505   4.018  16.549  0.1624  0.2433 -0.3151
36098DPPC   C2A43836   9.440   3.907  16.950  0.1218  0.0596  0.2736
36098DPPC   C3A43837   9.385   3.887  17.433  0.1276 -0.2092 -0.3712
36098DPPC   C4A43838   9.368   3.900  17.873  0.2373 -0.0808 -0.0978
36098DPPC   C1B43839   9.312   4.484  16.890 -0.2598  0.4156  0.5608
36098DPPC   C2B43840   9.290   4.441  17.285 -0.2859  0.1603 -0.1696
36098DPPC   C3B43841   9.240   4.449  17.794  0.1262 -0.1012 -0.0448
36098DPPC   C4B43842   9.216   4.345  18.290 -0.1318  0.0891  0.3032
36099DPPC   NC343843   7.508   3.773  15.689 -0.1531 -0.1343  0.1656
36099DPPC   PO443844   7.872   3.736  15.876  0.1156 -0.1819  0.0503
36099DPPC   GL143845   7.967   4.063  16.203 -0.0865  0.0611  0.0617
36099DPPC   GL243846   7.702   3.884  16.309  0.0263 -0.0708  0.1904
36099DPPC   C1A43847   7.873   4.270  16.483 -0.2151 -0.0635 -0.2424
36099DPPC   C2A43848   7.987   4.213  16.918 -0.1438  0.2833 -0.1493
36099DPPC   C3A43849   7.958   4.265  17.399  0.2392 -0.5243  0.0831
36099DPPC   C4A43850   7.897   4.310  17.817 -0.0925 -0.2264  0.1403
36099DPPC   C1B43851   7.580   3.837  16.675  0.2409 -0.1217 -0.3208
36099DPPC   C2B43852   7.650   3.824  17.046  0.0169  0.2235 -0.2739
36099DPPC   C3B43853   7.570   3.801  17.545  0.1459 -0.1756  0.1352
36099DPPC   C4B43854   7.541   3.877  18.064 -0.0876  0.1366  0.2794
36100DPPC   NC343855  11.960   6.073  15.789  0.0904 -0.1295 -0.1112
36100DPPC   PO443856  11.902   6.257  16.078  0.1718  0.0034 -0.1008
36100DPPC   GL143857  11.836   6.315  16.482  0.3936  0.3548  0.1589
36100DPPC   GL243858  11.865   6.062  16.593  0.2132  0.1705  0.1329
36100DPPC   C1A43859  11.845   6.429  16.811 -0.0201 -0.0431  0.0311
36100DPPC   C2A43860  11.721   6.442  17.210 -0.0111  0.0982  0.0740
36100DPPC   C3A43861  11.759   6.430  17.650  0.0735 -0.0299  0.0608
36100DPPC   C4A43862  11.726   6.377  18.176 -0.1663 -0.0858 -0.0461
36100DPPC   C1B43863  11.954   5.986  16.941 -0.0376  0.3667  0.0810
36100DPPC   C2B43864  11.910   5.960  17.377 -0.0435  0.1927  0.0444
36100DPPC   C3B43865  11.989   5.974  17.885  0.2149  0.0843 -0.0905
36100DPPC   C4B43866  11.900   5.961  18.393 -0.1336 -0.0652 -0.1887
36101DPPC   NC343867  11.489   1.466  15.822  0.1311  0.0954 -0.2106
36101DPPC   PO443868  11.447   1.088  15.907  0.0790 -0.0130  0.1207
36101DPPC   GL143869  11.570   1.126  16.305  0.0122  0.1332 -0.1664
36101DPPC   GL243870  11.510   1.367  16.331  0.2905  0.2086 -0.0683
36101DPPC   C1A43871  11.405   1.058  16.635  0.0198  0.1962 -0.2612
36101DPPC   C2A43872  11.335   0.738  16.910 -0.2000 -0.1580  0.2194
36101DPPC   C3A43873  11.314   0.795  17.391 -0.0301 -0.3338  0.1204
36101DPPC   C4A43874  11.337   0.744  17.814 -0.0419  0.0277 -0.3202
36101DPPC   C1B43875  11.457   1.511  16.664  0.1630  0.3375  0.1021
36101DPPC   C2B43876  11.559   1.592  17.029  0.0254 -0.1018  0.1162
36101DPPC   C3B43877  11.532   1.589  17.519 -0.1322  0.4447  0.4017
36101DPPC   C4B43878  11.551   1.527  18.012 -0.0723  0.0796 -0.1635
36102DPPC   NC343879  11.168   2.210  15.679 -0.0656  0.0347 -0.1547
36102DPPC   PO443880  11.106   2.634  15.803  0.1791  0.1461  0.0260
36102DPPC   GL143881  11.025   2.654  16.233 -0.1594  0.0117  0.2894
36102DPPC   GL243882  10.938   2.908  16.268  0.1245 -0.0855  0.1829
36102DPPC   C1A43883  11.175   2.728  16.556  0.1335  0.0010  0.1157
36102DPPC   C2A43884  11.210   2.601  17.001 -0.1336  0.0127  0.2257
36102DPPC   C3A43885  11.177   2.598  17.504 -0.0145  0.0719  0.1377
36102DPPC   C4A43886  11.244   2.652  18.038 -0.2144  0.2387  0.2170
36102DPPC   C1B43887  10.806   2.966  16.634 -0.0523 -0.2157  0.2737
36102DPPC   C2B43888  10.702   2.856  17.023  0.1372  0.1905 -0.0148
36102DPPC   C3B43889  10.683   2.765  17.491  0.2341 -0.2779  0.1009
36102DPPC   C4B43890  10.646   2.698  17.979  0.1767 -0.2647  0.1669
36103DPPC   NC343891  11.376   0.130  15.787  0.2755 -0.1409  0.0960
36103DPPC   PO443892  11.478  -0.226  15.945  0.0952  0.1604  0.1563
36103DPPC   GL143893  11.108  -0.180  16.216  0.1909  0.3016 -0.1141
36103DPPC   GL243894  11.272  -0.383  16.320 -0.1446  0.3834 -0.1829
36103DPPC   C1A43895  11.044  -0.067  16.559 -0.0133 -0.3648 -0.0408
36103DPPC   C2A43896  10.757  -0.011  16.876 -0.2261 -0.0856 -0.0010
36103DPPC   C3A43897  10.757   0.020  17.371  0.0892  0.1349  0.2288
36103DPPC   C4A43898  10.778   0.033  17.893  0.2112  0.1083 -0.0205
36103DPPC   C1B43899  11.448  -0.449  16.657 -0.0973  0.2668 -0.2902
36103DPPC   C2B43900  11.435  -0.554  17.053 -0.0352 -0.1206 -0.0219
36103DPPC   C3B43901  11.403  -0.563  17.488  0.4804  0.1203  0.0035
36103DPPC   C4B43902  11.463  -0.600  17.950  0.1742  0.1802 -0.1586
36104DPPC   NC343903   9.543   3.257  15.518  0.2487  0.2571 -0.2171
36104DPPC   PO443904   9.649   3.453  15.856  0.3781 -0.0487  0.0236
36104DPPC   GL143905   9.535   3.319  16.250 -0.0379  0.0082  0.1545
36104DPPC   GL243906   9.528   3.567  16.340  0.0201  0.5495 -0.3232
36104DPPC   C1A43907   9.713   3.151  16.466 -0.0117  0.1442 -0.1503
36104DPPC   C2A43908   9.795   2.959  16.864 -0.0745 -0.0927 -0.0284
36104DPPC   C3A43909   9.734   2.954  17.292  0.0610  0.0929 -0.1096
36104DPPC   C4A43910   9.757   2.943  17.736 -0.2746 -0.0176  0.0227
36104DPPC   C1B43911   9.553   3.517  16.707 -0.2806  0.1052 -0.0081
36104DPPC   C2B43912   9.552   3.449  17.122  0.1311  0.0260  0.0588
36104DPPC   C3B43913   9.561   3.482  17.609 -0.1589  0.1425  0.0374
36104DPPC   C4B43914   9.492   3.402  18.072 -0.1296  0.0314 -0.0578
36105DPPC   NC343915   7.412   3.189  15.790 -0.0905  0.1561 -0.1213
36105DPPC   PO443916   7.815   3.125  15.744 -0.1684  0.0014 -0.0097
36105DPPC   GL143917   7.817   2.999  16.065 -0.1898 -0.0777  0.0101
36105DPPC   GL243918   7.745   3.327  16.153  0.3409  0.0451  0.0947
36105DPPC   C1A43919   7.886   2.920  16.433 -0.2293  0.1118  0.2823
36105DPPC   C2A43920   8.024   2.911  16.888  0.3457  0.3824 -0.1168
36105DPPC   C3A43921   7.980   2.893  17.352 -0.0013  0.0300 -0.1415
36105DPPC   C4A43922   7.918   2.890  17.832  0.2959  0.0860 -0.2500
36105DPPC   C1B43923   7.767   3.333  16.525 -0.0680 -0.1678 -0.0997
36105DPPC   C2B43924   7.821   3.388  16.887 -0.0388 -0.1223  0.0160
36105DPPC   C3B43925   7.803   3.339  17.369  0.1946 -0.1304  0.1401
36105DPPC   C4B43926   7.746   3.417  17.864  0.0987  0.1193  0.0838
36106DPPC   NC343927   8.497   5.840  15.972  0.0108 -0.2364  0.0023
36106DPPC   PO443928   8.751   5.524  15.950 -0.0813 -0.1206 -0.1580
36106DPPC   GL143929   8.587   5.272  16.182 -0.0190 -0.0791 -0.3144
36106DPPC   GL243930   8.466   5.517  16.309 -0.2392  0.2277  0.0742
36106DPPC   C1A43931   8.603   5.054  16.445 -0.2078 -0.0742  0.0629
36106DPPC   C2A43932   8.603   5.007  16.848  0.0451  0.5835  0.0749
36106DPPC   C3A43933   8.598   5.011  17.295  0.0168 -0.1786 -0.1252
36106DPPC   C4A43934   8.604   4.976  17.763  0.1691 -0.1690 -0.1266
36106DPPC   C1B43935   8.590   5.625  16.641  0.0843  0.1378 -0.2433
36106DPPC   C2B43936   8.493   5.497  17.023  0.2947  0.1205  0.1095
36106DPPC   C3B43937   8.489   5.458  17.493 -0.0298 -0.1185 -0.2145
36106DPPC   C4B43938   8.513   5.447  17.969 -0.0880 -0.2695  0.0163
36107DPPC   NC343939  10.167   2.018  15.372  0.0318  0.1927  0.1205
36107DPPC   PO443940  10.243   2.170  15.727  0.2361  0.0487  0.2906
36107DPPC   GL143941  10.293   2.203  16.171  0.1238 -0.1262  0.2838
36107DPPC   GL243942  10.019   2.120  16.269  0.5324 -0.2207 -0.1426
36107DPPC   C1A43943  10.461   2.062  16.493  0.0111  0.0871  0.2976
36107DPPC   C2A43944  10.548   1.965  16.914 -0.0932  0.0834 -0.1382
36107DPPC   C3A43945  10.617   1.867  17.387 -0.0233  0.0371 -0.2022
36107DPPC   C4A43946  10.598   1.911  17.882 -0.2667  0.0542  0.1333
36107DPPC   C1B43947  10.085   2.112  16.635  0.0944 -0.1800 -0.4772
36107DPPC   C2B43948  10.088   1.990  17.030  0.2158 -0.0340 -0.0588
36107DPPC   C3B43949  10.095   1.970  17.548 -0.1384  0.0552  0.1013
36107DPPC   C4B43950  10.011   1.958  18.005  0.0935  0.0815  0.2509
36108DPPC   NC343951  10.302   5.979  16.063 -0.2215 -0.1699 -0.1460
36108DPPC   PO443952  10.144   5.623  16.000  0.0326 -0.1488 -0.0600
36108DPPC   GL143953  10.035   5.599  16.410 -0.0104 -0.0537  0.3008
36108DPPC   GL243954   9.788   5.597  16.468  0.3251 -0.1536  0.0791
36108DPPC   C1A43955  10.201   5.536  16.735 -0.1408 -0.1063 -0.1170
36108DPPC   C2A43956  10.236   5.484  17.153 -0.0674 -0.0286 -0.1153
36108DPPC   C3A43957  10.249   5.385  17.672  0.2147  0.0031  0.0390
36108DPPC   C4A43958  10.277   5.475  18.201 -0.0341  0.0632 -0.2657
36108DPPC   C1B43959   9.789   5.637  16.826  0.0475 -0.2225 -0.2725
36108DPPC   C2B43960   9.769   5.582  17.239 -0.1703  0.1099  0.0173
36108DPPC   C3B43961   9.748   5.590  17.722 -0.4151  0.2224 -0.1176
36108DPPC   C4B43962   9.657   5.507  18.207  0.2744 -0.2763  0.2985
36109DPPC   NC343963  11.989   4.797  16.054 -0.0853 -0.3909  0.1006
36109DPPC   PO443964  11.590   4.795  15.949 -0.1097  0.1209  0.0287
36109DPPC   GL143965  11.424   4.550  16.194 -0.3575 -0.0595  0.3923
36109DPPC   GL243966  11.113   4.524  16.202  0.0414  0.0381  0.1539
36109DPPC   C1A43967  11.617   4.540  16.491 -0.2692 -0.2565 -0.2113
36109DPPC   C2A43968  11.743   4.637  16.858 -0.1993  0.0290 -0.3987
36109DPPC   C3A43969  11.892   4.625  17.324 -0.0991 -0.0998  0.1004
36109DPPC   C4A43970  11.928   4.587  17.819  0.1144  0.0768 -0.1681
36109DPPC   C1B43971  11.079   4.381  16.505  0.0927  0.2514  0.1153
36109DPPC   C2B43972  11.037   4.417  16.961  0.2457 -0.2211 -0.0177
36109DPPC   C3B43973  11.068   4.433  17.453 -0.0833  0.1451 -0.0984
36109DPPC   C4B43974  11.026   4.419  17.925 -0.0151  0.1778  0.0163
36110DPPC   NC343975   9.924   2.454  15.963 -0.0302  0.0793  0.0130
36110DPPC   PO443976   9.507   2.464  15.937 -0.0429  0.1874 -0.4847
36110DPPC   GL143977   9.547   2.602  16.323 -0.0699 -0.1083 -0.3416
36110DPPC   GL243978   9.627   2.307  16.389  0.1065 -0.3673 -0.1811
36110DPPC   C1A43979   9.481   2.684  16.674 -0.2218  0.1772 -0.3185
36110DPPC   C2A43980   9.461   2.621  17.091  0.1263  0.2736 -0.1603
36110DPPC   C3A43981   9.415   2.569  17.556 -0.2965  0.1087 -0.0594
36110DPPC   C4A43982   9.452   2.490  18.060  0.0259  0.2325  0.1368
36110DPPC   C1B43983   9.677   2.156  16.694  0.1492 -0.0276 -0.2124
36110DPPC   C2B43984   9.606   2.133  17.121  0.0350 -0.1515  0.2981
36110DPPC   C3B43985   9.582   2.070  17.612 -0.0874 -0.1818 -0.0647
36110DPPC   C4B43986   9.445   2.014  18.111 -0.2416 -0.1103 -0.2961
36111DPPC   NC343987  11.716   5.008  16.387 -0.3421  0.2407 -0.0200
36111DPPC   PO443988  11.945   5.304  16.284 -0.0128 -0.0650 -0.0407
36111DPPC   GL143989  12.270   5.295  16.568  0.0326 -0.0035 -0.0017
36111DPPC   GL243990  12.158   5.528  16.624  0.0198 -0.1312  0.4520
36111DPPC   C1A43991  12.502   5.015  16.743  0.2095  0.0367 -0.1401
36111DPPC   C2A43992  12.744   4.816  17.022  0.4446  0.0417 -0.4088
36111DPPC   C3A43993  12.739   4.853  17.482  0.0428  0.0989  0.1725
36111DPPC   C4A43994  12.659   4.884  17.951  0.0120  0.0381 -0.0481
36111DPPC   C1B43995  12.073   5.564  16.976  0.3014  0.1677  0.2852
36111DPPC   C2B43996  12.061   5.485  17.386  0.0382  0.1612 -0.1971
36111DPPC   C3B43997  12.061   5.462  17.841  0.1482  0.3234  0.2355
36111DPPC   C4B43998  11.984   5.489  18.304 -0.4239 -0.2606 -0.0343
36112DPPC   NC343999   8.815   3.876  15.418 -0.1511  0.2618 -0.0490
36112DPPC   PO444000   8.757   3.724  15.766  0.1014 -0.2057  0.2313
36112DPPC   GL144001   8.427   3.834  16.056  0.1417  0.1083 -0.2153
36112DPPC   GL244002   8.653   3.744  16.266  0.0891 -0.3374  0.2654
36112DPPC   C1A44003   8.234   3.742  16.364 -0.3299 -0.1288 -0.0472
36112DPPC   C2A44004   8.139   3.804  16.750  0.0145  0.3000  0.0320
36112DPPC   C3A44005   8.132   3.781  17.239 -0.0022 -0.1549  0.1535
36112DPPC   C4A44006   8.051   3.806  17.756 -0.4339  0.4514  0.0249
36112DPPC   C1B44007   8.734   3.807  16.596  0.0074  0.1905  0.1732
36112DPPC   C2B44008   8.609   3.670  16.976  0.1716  0.1018 -0.3018
36112DPPC   C3B44009   8.561   3.644  17.449  0.1641  0.1074 -0.2811
36112DPPC   C4B44010   8.491   3.646  17.934  0.0666  0.3144  0.2089
36113DPPC   NC344011   9.231   0.966  16.059  0.1817 -0.0724 -0.3039
36113DPPC   PO444012   9.414   0.658  16.163  0.1700 -0.0613 -0.1856
36113DPPC   GL144013   9.762   0.572  16.458  0.0554 -0.2374 -0.4721
36113DPPC   GL244014   9.819   0.302  16.523  0.1969 -0.2192 -0.1492
36113DPPC   C1A44015   9.711   0.762  16.813  0.1469  0.0544  0.0536
36113DPPC   C2A44016   9.664   0.832  17.234 -0.1282  0.0141  0.0653
36113DPPC   C3A44017   9.681   0.783  17.676 -0.0385 -0.0756  0.0138
36113DPPC   C4A44018   9.599   0.808  18.183 -0.0615 -0.0997 -0.1233
36113DPPC   C1B44019   9.860   0.274  16.886 -0.0055 -0.1463  0.1352
36113DPPC   C2B44020   9.701   0.330  17.245 -0.1073 -0.0422 -0.0072
36113DPPC   C3B44021   9.784   0.295  17.757  0.2533 -0.2461  0.2669
36113DPPC   C4B44022   9.717   0.276  18.223 -0.3994  0.0361  0.0551
36114DPPC   NC344023   8.807   0.252  15.608 -0.0034 -0.1368  0.0897
36114DPPC   PO444024   9.084   0.276  15.891  0.1572 -0.3414  0.1479
36114DPPC   GL144025   9.091   0.261  16.256  0.1383 -0.0514 -0.0891
36114DPPC   GL244026   8.839   0.168  16.373 -0.3710 -0.0112 -0.3755
36114DPPC   C1A44027   9.347   0.268  16.553  0.1098 -0.0073 -0.0082
36114DPPC   C2A44028   9.341   0.471  16.926  0.0444 -0.1188 -0.0433
36114DPPC   C3A44029   9.309   0.499  17.443  0.1201  0.0526  0.1524
36114DPPC   C4A44030   9.306   0.466  17.929 -0.2773  0.0769  0.2747
36114DPPC   C1B44031   8.894   0.085  16.759  0.2991  0.1307 -0.0573
36114DPPC   C2B44032   9.029   0.133  17.151  0.0069 -0.0924 -0.1268
36114DPPC   C3B44033   8.975   0.105  17.660 -0.1101  0.2220  0.0061
36114DPPC   C4B44034   8.966   0.115  18.169  0.0972 -0.5176 -0.1089
36115DPPC   NC344035   9.644   5.609  15.999  0.2009  0.0116  0.0754
36115DPPC   PO444036   9.254   5.545  15.810 -0.2684  0.0279  0.2092
36115DPPC   GL144037   9.170   5.503  16.133 -0.1522  0.1008 -0.1318
36115DPPC   GL244038   9.369   5.600  16.356 -0.0739 -0.1264 -0.0604
36115DPPC   C1A44039   8.976   5.366  16.403  0.1025  0.1929  0.0182
36115DPPC   C2A44040   8.981   5.303  16.810  0.0114 -0.1933 -0.2062
36115DPPC   C3A44041   8.961   5.344  17.322  0.0289 -0.1917 -0.0511
36115DPPC   C4A44042   8.941   5.325  17.795 -0.0638 -0.1097  0.0102
36115DPPC   C1B44043   9.346   5.639  16.719  0.5179  0.1185  0.2125
36115DPPC   C2B44044   9.290   5.622  17.140 -0.1065  0.3308 -0.0453
36115DPPC   C3B44045   9.223   5.695  17.585  0.2076  0.0351  0.1240
36115DPPC   C4B44046   9.160   5.721  18.085 -0.1926 -0.0210 -0.1749
36116DPPC   NC344047  13.534   1.013  16.170 -0.3814  0.2140 -0.2395
36116DPPC   PO444048  13.824   1.188  16.323 -0.1566  0.2445 -0.1164
36116DPPC   GL144049  13.852   0.923  16.666 -0.0290 -0.0830 -0.1077
36116DPPC   GL244050  13.944   1.124  16.805 -0.1106 -0.3256 -0.2411
36116DPPC   C1A44051  13.774   0.749  16.984 -0.0575 -0.1540 -0.4718
36116DPPC   C2A44052  13.698   0.740  17.368  0.0507 -0.2398  0.2395
36116DPPC   C3A44053  13.688   0.733  17.835 -0.1977  0.0007 -0.1761
36116DPPC   C4A44054  13.690   0.621  18.346  0.1650  0.0897 -0.2768
36116DPPC   C1B44055  14.075   1.154  17.147  0.0421 -0.0326 -0.5757
36116DPPC   C2B44056  14.015   1.136  17.544 -0.1491  0.0397  0.1221
36116DPPC   C3B44057  14.026   1.190  18.014  0.2829 -0.1193  0.0210
36116DPPC   C4B44058  13.956   1.035  18.422 -0.1004  0.2353  0.4337
36117DPPC   NC344059  10.825   4.614  15.820  0.3388  0.1629 -0.1433
36117DPPC   PO444060  10.423   4.601  15.801  0.0520 -0.0471  0.0867
36117DPPC   GL144061  10.349   4.534  16.240 -0.1458 -0.6175 -0.2161
36117DPPC   GL244062  10.645   4.430  16.280  0.1027  0.2972  0.6134
36117DPPC   C1A44063  10.190   4.549  16.609  0.0395 -0.0379 -0.1944
36117DPPC   C2A44064  10.005   4.629  16.979 -0.0111  0.0721  0.0095
36117DPPC   C3A44065  10.074   4.592  17.401  0.1264  0.0368 -0.0293
36117DPPC   C4A44066  10.028   4.610  17.858 -0.2629  0.0493 -0.0689
36117DPPC   C1B44067  10.624   4.533  16.623 -0.3039 -0.2909 -0.3512
36117DPPC   C2B44068  10.595   4.557  17.015  0.2484  0.1041 -0.1532
36117DPPC   C3B44069  10.530   4.510  17.469 -0.0159  0.0142 -0.0387
36117DPPC   C4B44070  10.529   4.489  17.949  0.0273  0.1273  0.2190
36118DPPC   NC344071   9.745   0.873  15.596 -0.1856 -0.3362  0.0329
36118DPPC   PO444072   9.720   1.083  15.898 -0.1231  0.0373 -0.2168
36118DPPC   GL144073   9.648   1.143  16.316  0.0319 -0.1492  0.1032
36118DPPC   GL244074   9.419   1.346  16.289 -0.0885  0.0397 -0.0078
36118DPPC   C1A44075   9.683   1.211  16.673 -0.2764 -0.0389  0.1670
36118DPPC   C2A44076   9.509   1.274  17.078 -0.1043 -0.0215  0.1297
36118DPPC   C3A44077   9.429   1.270  17.537 -0.0936 -0.0766  0.3692
36118DPPC   C4A44078   9.455   1.226  18.018  0.0381  0.2169 -0.1716
36118DPPC   C1B44079   9.389   1.628  16.526 -0.0726  0.0296 -0.2105
36118DPPC   C2B44080   9.327   1.781  16.931 -0.0280  0.7335 -0.0808
36118DPPC   C3B44081   9.278   1.739  17.408 -0.2383 -0.1104 -0.1024
36118DPPC   C4B44082   9.205   1.638  17.904 -0.2945 -0.0042  0.1470
36119DPPC   NC344083  13.776   1.412  15.821 -0.0657 -0.2345  0.5151
36119DPPC   PO444084  13.386   1.404  15.911 -0.1850  0.1635 -0.1784
36119DPPC   GL144085  13.210   1.295  16.258  0.0781  0.2047 -0.1694
36119DPPC   GL244086  13.415   1.438  16.439  0.0579  0.1111 -0.0703
36119DPPC   C1A44087  13.161   0.971  16.471 -0.0021  0.2672 -0.2577
36119DPPC   C2A44088  13.267   0.900  16.863 -0.1831 -0.0595  0.1901
36119DPPC   C3A44089  13.200   0.836  17.314 -0.0610  0.1864  0.0921
36119DPPC   C4A44090  13.147   0.856  17.830  0.1590 -0.0372  0.0459
36119DPPC   C1B44091  13.448   1.283  16.765 -0.1353  0.1352  0.0994
36119DPPC   C2B44092  13.569   1.216  17.172 -0.0475  0.0337  0.1720
36119DPPC   C3B44093  13.493   1.193  17.614  0.0223  0.0821 -0.0411
36119DPPC   C4B44094  13.504   1.117  18.113  0.2466 -0.0563 -0.0799
36120DPPC   NC344095  14.241   0.342  15.687  0.2201  0.1243  0.2278
36120DPPC   PO444096  13.928   0.370  15.889 -0.1249  0.2364  0.1529
36120DPPC   GL144097  13.998   0.436  16.293  0.0636 -0.0930  0.1407
36120DPPC   GL244098  13.743   0.650  16.262 -0.1826  0.4496  0.0918
36120DPPC   C1A44099  14.032   0.411  16.645 -0.2929 -0.4583 -0.0702
36120DPPC   C2A44100  13.898   0.284  16.982  0.1128  0.4134  0.0371
36120DPPC   C3A44101  13.950   0.319  17.506 -0.1506  0.2933  0.2082
36120DPPC   C4A44102  13.937   0.239  17.939  0.2381 -0.0616  0.2082
36120DPPC   C1B44103  13.523   0.604  16.564 -0.1070  0.1457 -0.1646
36120DPPC   C2B44104  13.425   0.463  16.930  0.4080 -0.4080  0.1988
36120DPPC   C3B44105  13.399   0.329  17.364  0.1249  0.1789 -0.3535
36120DPPC   C4B44106  13.375   0.350  17.809  0.1387 -0.0046 -0.1112
36121DPPC   NC344107  11.434   0.702  15.551  0.3661 -0.3096  0.1506
36121DPPC   PO444108  11.285   0.609  15.943 -0.1973 -0.3681 -0.2157
36121DPPC   GL144109  11.480   0.694  16.252  0.1881 -0.0895 -0.1436
36121DPPC   GL244110  11.207   0.663  16.468  0.4243 -0.0629 -0.1856
36121DPPC   C1A44111  11.723   0.791  16.528 -0.2300  0.1622  0.0863
36121DPPC   C2A44112  11.888   0.674  16.883  0.0210 -0.0981 -0.1719
36121DPPC   C3A44113  11.868   0.628  17.392 -0.1114 -0.2606  0.0378
36121DPPC   C4A44114  11.845   0.623  17.905 -0.0615  0.0673 -0.3045
36121DPPC   C1B44115  11.126   0.393  16.682 -0.3182  0.5137  0.0327
36121DPPC   C2B44116  11.048   0.372  17.109  0.3591  0.4390  0.0016
36121DPPC   C3B44117  10.986   0.376  17.602  0.2159 -0.0540  0.2517
36121DPPC   C4B44118  11.069   0.342  18.115  0.0331  0.1105  0.0818
36122DPPC   NC344119  13.294   4.959  15.779 -0.0929 -0.0870  0.1046
36122DPPC   PO444120  13.147   4.682  15.948 -0.0378 -0.2317 -0.0775
36122DPPC   GL144121  13.432   4.597  16.275 -0.1724  0.1005 -0.3148
36122DPPC   GL244122  13.174   4.622  16.454 -0.0602  0.1281 -0.1581
36122DPPC   C1A44123  13.663   4.678  16.528  0.0823  0.0647 -0.1132
36122DPPC   C2A44124  13.653   4.659  16.950  0.0348  0.0521  0.2197
36122DPPC   C3A44125  13.642   4.655  17.410 -0.0357 -0.2758  0.5709
36122DPPC   C4A44126  13.622   4.661  17.927  0.3040 -0.1630  0.3791
36122DPPC   C1B44127  13.176   4.713  16.812 -0.0346  0.0094 -0.2483
36122DPPC   C2B44128  13.194   4.842  17.227 -0.0358  0.1470  0.1264
36122DPPC   C3B44129  13.210   4.805  17.721 -0.0995 -0.0678  0.1884
36122DPPC   C4B44130  13.220   4.775  18.200 -0.2865 -0.2768 -0.2485
36123DPPC   NC344131   9.319   6.067  15.958  0.0191 -0.2979  0.2211
36123DPPC   PO444132   9.334   6.413  16.135 -0.3009  0.0975  0.1135
36123DPPC   GL144133   9.021   6.403  16.367  0.3516  0.0728 -0.1631
36123DPPC   GL244134   9.190   6.180  16.414  0.2335 -0.0700  0.1388
36123DPPC   C1A44135   8.764   6.275  16.538  0.0402 -0.0866  0.2923
36123DPPC   C2A44136   8.683   6.335  16.871  0.3212 -0.0346 -0.2424
36123DPPC   C3A44137   8.613   6.369  17.330 -0.1260 -0.0971  0.1373
36123DPPC   C4A44138   8.673   6.377  17.869  0.2301  0.3169 -0.3571
36123DPPC   C1B44139   9.161   6.190  16.776  0.2002 -0.1912 -0.1753
36123DPPC   C2B44140   9.131   6.223  17.190  0.2057 -0.0514 -0.0105
36123DPPC   C3B44141   9.114   6.262  17.671  0.0662  0.0403  0.1798
36123DPPC   C4B44142   9.067   6.255  18.157  0.1818 -0.0916  0.0995
36124DPPC   NC344143  11.613   2.167  15.344 -0.2534 -0.1127 -0.2540
36124DPPC   PO444144  11.582   1.945  15.674  0.3147  0.1210 -0.2041
36124DPPC   GL144145  11.786   1.991  15.995 -0.0324 -0.1572 -0.1924
36124DPPC   GL244146  11.761   1.674  16.127  0.2220 -0.7520 -0.1241
36124DPPC   C1A44147  11.834   2.135  16.323 -0.0628 -0.0752  0.2079
36124DPPC   C2A44148  11.826   2.067  16.715  0.0079  0.0436  0.1697
36124DPPC   C3A44149  11.834   1.949  17.169  0.3085 -0.4123 -0.0322
36124DPPC   C4A44150  11.828   2.000  17.659 -0.1874  0.0453 -0.3033
36124DPPC   C1B44151  11.838   1.678  16.503  0.3555 -0.0632 -0.0544
36124DPPC   C2B44152  12.135   1.588  16.849 -0.2561  0.1270 -0.2714
36124DPPC   C3B44153  11.993   1.473  17.293  0.0226 -0.0775  0.1923
36124DPPC   C4B44154  11.993   1.425  17.822  0.1143 -0.0557 -0.1198
36125DPPC   NC344155  10.581   1.054  16.093  0.2125 -0.0093 -0.2131
36125DPPC   PO444156  10.741   0.681  16.022  0.1295  0.1800 -0.3017
36125DPPC   GL144157  10.755   0.744  16.398  0.2975  0.0363  0.0817
36125DPPC   GL244158  10.610   0.507  16.498  0.0510 -0.3241 -0.1744
36125DPPC   C1A44159  10.908   0.795  16.726  0.2051 -0.1919 -0.2795
36125DPPC   C2A44160  10.917   0.852  17.113 -0.3163  0.2405  0.1033
36125DPPC   C3A44161  10.855   0.881  17.559 -0.0966 -0.0716  0.3044
36125DPPC   C4A44162  10.831   0.845  18.042 -0.5021 -0.0536 -0.2237
36125DPPC   C1B44163  10.617   0.470  16.870 -0.1345 -0.0533 -0.0271
36125DPPC   C2B44164  10.573   0.517  17.307 -0.2671  0.1973 -0.0260
36125DPPC   C3B44165  10.545   0.505  17.838 -0.0758  0.0152  0.0857
36125DPPC   C4B44166  10.572   0.432  18.300  0.3551  0.3051  0.3812
36126DPPC   NC344167  12.665   5.219  16.343 -0.1633 -0.0500 -0.2950
36126DPPC   PO444168  12.359   5.069  16.187  0.1153 -0.1278  0.1956
36126DPPC   GL144169  12.131   4.857  16.527  0.2139  0.2982  0.1179
36126DPPC   GL244170  12.408   4.654  16.462  0.0054 -0.2137 -0.2194
36126DPPC   C1A44171  12.149   4.882  16.868 -0.1423 -0.0610 -0.2920
36126DPPC   C2A44172  12.278   4.931  17.269 -0.1548 -0.0764 -0.0842
36126DPPC   C3A44173  12.250   4.935  17.730 -0.0305  0.0298 -0.1098
36126DPPC   C4A44174  12.252   4.892  18.240 -0.4731 -0.4147 -0.2709
36126DPPC   C1B44175  12.455   4.518  16.852  0.1267 -0.1953 -0.1371
36126DPPC   C2B44176  12.416   4.487  17.313  0.1227  0.2190 -0.0560
36126DPPC   C3B44177  12.393   4.481  17.796 -0.4014 -0.1485 -0.0045
36126DPPC   C4B44178  12.367   4.382  18.249  0.2748  0.0601 -0.0111
36127DPPC   NC344179  12.188   0.375  15.853 -0.1743  0.0038  0.3955
36127DPPC   PO444180  11.832   0.327  15.923  0.0424  0.1202 -0.0336
36127DPPC   GL144181  11.608   0.087  16.242 -0.1123  0.3187 -0.0405
36127DPPC   GL244182  11.593   0.322  16.398  0.2139  0.1391  0.1397
36127DPPC   C1A44183  11.462  -0.032  16.582 -0.4476 -0.0384  0.0977
36127DPPC   C2A44184  11.288  -0.102  16.943 -0.1665  0.2545  0.2089
36127DPPC   C3A44185  11.229  -0.068  17.427 -0.0896  0.1439  0.2390
36127DPPC   C4A44186  11.290  -0.134  17.873  0.1188 -0.0486  0.1059
36127DPPC   C1B44187  11.561   0.356  16.763  0.0702 -0.0037  0.2501
36127DPPC   C2B44188  11.533   0.313  17.152  0.0043 -0.1941 -0.0835
36127DPPC   C3B44189  11.539   0.304  17.625 -0.0321  0.0034 -0.0684
36127DPPC   C4B44190  11.553   0.234  18.145  0.0556  0.1463  0.0536
36128DPPC   NC344191   9.953   4.700  15.852  0.1619  0.2155  0.1169
36128DPPC   PO444192   9.758   4.350  15.894 -0.0371 -0.0957 -0.1652
36128DPPC   GL144193   9.955   4.074  16.235  0.3517  0.4806  0.0708
36128DPPC   GL244194   9.929   4.301  16.383 -0.0349  0.1604 -0.0589
36128DPPC   C1A44195   9.963   3.868  16.515  0.3248  0.1437 -0.4040
36128DPPC   C2A44196   9.926   3.824  16.933 -0.2191  0.0377  0.1660
36128DPPC   C3A44197   9.895   3.787  17.360  0.1087 -0.0657 -0.0045
36128DPPC   C4A44198   9.915   3.830  17.841  0.0552  0.0157  0.0879
36128DPPC   C1B44199   9.837   4.259  16.714 -0.2615  0.0673 -0.0571
36128DPPC   C2B44200   9.753   4.265  17.142 -0.1748  0.0110  0.0677
36128DPPC   C3B44201   9.737   4.191  17.587 -0.3931 -0.2225  0.1837
36128DPPC   C4B44202   9.664   4.243  18.044 -0.1189 -0.0503  0.0877
36129DPPC   NC344203  13.176   4.189  15.881 -0.0634  0.1544  0.1183
36129DPPC   PO444204  13.211   3.821  16.009 -0.2677  0.2227 -0.1231
36129DPPC   GL144205  13.261   3.611  16.384 -0.2731 -0.5512  0.0528
36129DPPC   GL244206  13.459   3.759  16.418 -0.0867 -0.2075 -0.0225
36129DPPC   C1A44207  13.119   3.569  16.642 -0.1026  0.3625 -0.3709
36129DPPC   C2A44208  13.146   3.487  17.041  0.2212  0.4313 -0.2051
36129DPPC   C3A44209  13.164   3.411  17.522  0.3023  0.2731 -0.2070
36129DPPC   C4A44210  13.110   3.384  17.996  0.0860 -0.0209 -0.2946
36129DPPC   C1B44211  13.525   3.812  16.776 -0.0139  0.1230 -0.0507
36129DPPC   C2B44212  13.507   3.796  17.182 -0.1231 -0.0600 -0.0424
36129DPPC   C3B44213  13.509   3.779  17.652 -0.0272  0.0055 -0.0154
36129DPPC   C4B44214  13.500   3.748  18.128  0.2530  0.2835  0.1365
36130DPPC   NC344215   7.883   4.295  15.742  0.0692 -0.0067  0.1596
36130DPPC   PO444216   8.212   4.346  15.922 -0.1304 -0.0939  0.0851
36130DPPC   GL144217   8.346   4.412  16.374  0.2722  0.1028 -0.2349
36130DPPC   GL244218   8.345   4.203  16.389  0.2376 -0.4302  0.2421
36130DPPC   C1A44219   8.280   4.519  16.730  0.1745  0.3978  0.1889
36130DPPC   C2A44220   8.292   4.667  17.118  0.1242 -0.3501  0.2639
36130DPPC   C3A44221   8.268   4.660  17.574 -0.2152  0.0648 -0.0448
36130DPPC   C4A44222   8.230   4.614  18.093  0.1480  0.2307  0.0539
36130DPPC   C1B44223   8.484   4.166  16.717  0.1570 -0.1139 -0.5041
36130DPPC   C2B44224   8.455   4.179  17.121  0.0758 -0.0370  0.1672
36130DPPC   C3B44225   8.455   4.063  17.641 -0.0946  0.2070  0.1151
36130DPPC   C4B44226   8.359   4.148  18.150 -0.1773 -0.0281  0.2483
36131DPPC   NC344227   8.599   5.567  15.456  0.0406  0.1956 -0.0971
36131DPPC   PO444228   8.235   5.643  15.627 -0.0796 -0.3336 -0.2921
36131DPPC   GL144229   8.104   5.594  15.994  0.3826 -0.2607  0.1452
36131DPPC   GL244230   7.950   5.825  16.152 -0.1835 -0.0328  0.1071
36131DPPC   C1A44231   8.045   5.311  16.258 -0.1847  0.2990 -0.1767
36131DPPC   C2A44232   8.166   5.209  16.592 -0.2459  0.2268  0.2162
36131DPPC   C3A44233   8.148   5.181  17.086 -0.1456  0.0490  0.0584
36131DPPC   C4A44234   8.113   5.134  17.569  0.2406 -0.0340 -0.1957
36131DPPC   C1B44235   7.900   5.748  16.500 -0.1085  0.1641  0.4377
36131DPPC   C2B44236   7.932   5.686  16.932 -0.0474  0.2597  0.3737
36131DPPC   C3B44237   7.960   5.606  17.365 -0.1767 -0.0540  0.0587
36131DPPC   C4B44238   8.101   5.629  17.839  0.2275  0.1392 -0.0830
36132DPPC   NC344239   7.742   5.733  15.726 -0.0348 -0.2225 -0.0147
36132DPPC   PO444240   7.550   6.085  15.694  0.0437 -0.1400  0.2919
36132DPPC   GL144241   7.376   6.055  16.063  0.2141 -0.4686 -0.3991
36132DPPC   GL244242   7.507   5.811  16.151  0.2181 -0.2045 -0.0984
36132DPPC   C1A44243   7.335   6.205  16.387 -0.1747  0.1782  0.4228
36132DPPC   C2A44244   7.285   6.241  16.795  0.0884  0.1694  0.1241
36132DPPC   C3A44245   7.267   6.182  17.219 -0.1632 -0.1558  0.0125
36132DPPC   C4A44246   7.313   6.238  17.732  0.0501  0.0369 -0.0833
36132DPPC   C1B44247   7.394   5.707  16.504 -0.1519  0.2160 -0.2855
36132DPPC   C2B44248   7.431   5.768  16.907 -0.2944  0.1087 -0.3306
36132DPPC   C3B44249   7.477   5.691  17.403 -0.1900 -0.0001  0.0236
36132DPPC   C4B44250   7.630   5.663  17.888 -0.3226  0.3334  0.2752
36133DPPC   NC344251   8.665   1.449  15.687 -0.0434 -0.1138  0.0523
36133DPPC   PO444252   8.819   1.824  15.801 -0.1280 -0.2676  0.1765
36133DPPC   GL144253   9.001   1.815  16.253 -0.0320 -0.4442  0.0959
36133DPPC   GL244254   9.233   1.909  16.188  0.4758 -0.0222  0.0204
36133DPPC   C1A44255   8.957   1.827  16.671  0.0552 -0.6355 -0.1651
36133DPPC   C2A44256   8.848   1.898  17.056 -0.0203 -0.0859  0.0917
36133DPPC   C3A44257   8.806   1.881  17.508 -0.0486  0.1739  0.6263
36133DPPC   C4A44258   8.779   1.838  18.063 -0.3885 -0.2296  0.0575
36133DPPC   C1B44259   9.262   2.130  16.457  0.1385  0.2836  0.2239
36133DPPC   C2B44260   9.224   2.294  16.858  0.0897  0.1204  0.1578
36133DPPC   C3B44261   9.113   2.235  17.333  0.0566 -0.2872 -0.1560
36133DPPC   C4B44262   9.094   2.234  17.825 -0.1267  0.0139  0.1475
36134DPPC   NC344263   9.591   0.220  16.110  0.2124 -0.1113  0.3019
36134DPPC   PO444264   9.938   0.040  16.006 -0.0533 -0.1800 -0.1864
36134DPPC   GL144265   9.797  -0.173  16.350  0.2145 -0.3932 -0.0454
36134DPPC   GL244266  10.067  -0.162  16.418 -0.3313  0.0618 -0.1256
36134DPPC   C1A44267   9.575  -0.161  16.613  0.1342 -0.2166  0.4102
36134DPPC   C2A44268   9.489  -0.053  16.978  0.0717 -0.0878  0.0862
36134DPPC   C3A44269   9.460  -0.024  17.451 -0.0981  0.0059 -0.0674
36134DPPC   C4A44270   9.472  -0.059  17.936 -0.0696 -0.0473  0.3300
36134DPPC   C1B44271  10.019  -0.206  16.816 -0.2428 -0.2070 -0.0731
36134DPPC   C2B44272   9.967  -0.191  17.246 -0.1159  0.1377 -0.1039
36134DPPC   C3B44273   9.953  -0.231  17.695 -0.1193  0.1114  0.1389
36134DPPC   C4B44274   9.890  -0.160  18.220 -0.1395 -0.1560 -0.1246
36135DPPC   NC344275   8.068   0.370  15.911 -0.1319  0.2293  0.0632
36135DPPC   PO444276   8.466   0.348  15.960  0.2385  0.1948  0.0243
36135DPPC   GL144277   8.521   0.739  16.233 -0.0889 -0.0016 -0.0714
36135DPPC   GL244278   8.800   0.683  16.220  0.0242  0.2790 -0.1828
36135DPPC   C1A44279   8.464   0.639  16.533  0.1086 -0.0143 -0.0121
36135DPPC   C2A44280   8.335   0.643  16.935  0.1535  0.2420 -0.0568
36135DPPC   C3A44281   8.302   0.651  17.408 -0.1957 -0.1804  0.1216
36135DPPC   C4A44282   8.220   0.726  17.879  0.0372  0.1708 -0.0043
36135DPPC   C1B44283   8.861   0.535  16.592 -0.1332 -0.2551 -0.1468
36135DPPC   C2B44284   8.857   0.570  16.974  0.2047 -0.2743  0.1652
36135DPPC   C3B44285   8.782   0.537  17.439  0.0137 -0.2031 -0.1146
36135DPPC   C4B44286   8.831   0.615  17.867  0.0001  0.0412  0.1240
36136DPPC   NC344287  12.669   0.978  15.611  0.0683  0.1180  0.0257
36136DPPC   PO444288  12.618   0.573  15.645 -0.1643  0.2140 -0.0349
36136DPPC   GL144289  12.800   0.556  16.104  0.3379 -0.2456 -0.0410
36136DPPC   GL244290  12.655   0.282  16.079  0.0375 -0.0430  0.0101
36136DPPC   C1A44291  12.801   0.754  16.410 -0.3887  0.4010 -0.1981
36136DPPC   C2A44292  12.739   0.900  16.782  0.0945 -0.1519 -0.1711
36136DPPC   C3A44293  12.687   0.971  17.307 -0.3272  0.0325  0.3646
36136DPPC   C4A44294  12.680   0.915  17.842 -0.2441 -0.1321  0.0768
36136DPPC   C1B44295  12.566   0.296  16.440  0.0096  0.4909 -0.0605
36136DPPC   C2B44296  12.585   0.113  16.806  0.2285  0.0037  0.1888
36136DPPC   C3B44297  12.579   0.067  17.232 -0.0131 -0.0174  0.1775
36136DPPC   C4B44298  12.577   0.033  17.732  0.0138 -0.0610 -0.0490
36137DPPC   NC344299   7.889   1.676  15.935  0.1800 -0.1375 -0.2648
36137DPPC   PO444300   8.277   1.807  15.885 -0.0307 -0.1439 -0.1660
36137DPPC   GL144301   8.376   2.065  16.218  0.1263  0.1546  0.2934
36137DPPC   GL244302   8.635   2.096  16.121 -0.2817 -0.1419  0.1894
36137DPPC   C1A44303   8.435   1.947  16.574  0.0398 -0.3095  0.1877
36137DPPC   C2A44304   8.360   1.996  16.990 -0.2959  0.3855  0.0141
36137DPPC   C3A44305   8.291   1.988  17.489  0.0976 -0.0748 -0.2024
36137DPPC   C4A44306   8.322   1.942  18.013 -0.0064 -0.2116  0.2382
36137DPPC   C1B44307   8.806   2.136  16.433  0.2727 -0.4239  0.1367
36137DPPC   C2B44308   8.690   2.327  16.754 -0.2002  0.1513 -0.3260
36137DPPC   C3B44309   8.653   2.348  17.267 -0.0013  0.1245  0.2411
36137DPPC   C4B44310   8.618   2.275  17.792 -0.5140  0.1643 -0.0032
36138DPPC   NC344311  13.132   0.629  15.614  0.0476  0.0327  0.1517
36138DPPC   PO444312  13.401   0.583  15.911  0.0342 -0.0647  0.3063
36138DPPC   GL144313  13.171   0.504  16.299 -0.0898  0.3612 -0.0188
36138DPPC   GL244314  13.361   0.240  16.356  0.1381 -0.0244 -0.0921
36138DPPC   C1A44315  13.045   0.529  16.685 -0.0117 -0.0595 -0.2692
36138DPPC   C2A44316  12.948   0.470  17.053  0.0413  0.1962  0.0680
36138DPPC   C3A44317  12.922   0.452  17.521  0.0170  0.0289 -0.0292
36138DPPC   C4A44318  12.932   0.458  18.035  0.0628  0.1713 -0.0784
36138DPPC   C1B44319  13.510   0.089  16.666 -0.2510  0.1348 -0.0994
36138DPPC   C2B44320  13.515  -0.069  17.036 -0.1079  0.0275 -0.0657
36138DPPC   C3B44321  13.599  -0.082  17.548  0.1195  0.0342  0.2062
36138DPPC   C4B44322  13.546  -0.099  18.057 -0.0517  0.0322  0.1001
36139DPPC   NC344323   7.802   1.785  15.451 -0.1338 -0.1820 -0.2261
36139DPPC   PO444324   7.902   2.114  15.671 -0.0272  0.2593  0.0649
36139DPPC   GL144325   7.949   2.131  16.020 -0.0880  0.3559 -0.1230
36139DPPC   GL244326   7.685   2.335  16.041 -0.0683  0.2512  0.1002
36139DPPC   C1A44327   7.957   1.951  16.349 -0.0481 -0.1830  0.1467
36139DPPC   C2A44328   7.812   2.007  16.731  0.0073 -0.0434 -0.0783
36139DPPC   C3A44329   7.835   2.076  17.232 -0.0575  0.0319 -0.1870
36139DPPC   C4A44330   7.741   2.054  17.680  0.1175 -0.0166 -0.2001
36139DPPC   C1B44331   7.712   2.459  16.366 -0.0957 -0.0772  0.2910
36139DPPC   C2B44332   7.689   2.532  16.758  0.3342  0.0729  0.0616
36139DPPC   C3B44333   7.647   2.543  17.236 -0.0401  0.0362 -0.1300
36139DPPC   C4B44334   7.642   2.534  17.684 -0.1627  0.3265  0.2071
36140DPPC   NC344335  12.229   4.149  15.809  0.1112 -0.0247  0.1731
36140DPPC   PO444336  12.326   4.466  15.949  0.0484 -0.1459 -0.1636
36140DPPC   GL144337  12.054   4.485  16.334 -0.2802  0.0609 -0.0473
36140DPPC   GL244338  11.885   4.268  16.217 -0.1683 -0.0450 -0.1716
36140DPPC   C1A44339  12.101   4.375  16.667  0.0332 -0.0587 -0.0578
36140DPPC   C2A44340  12.048   4.217  17.081 -0.2155 -0.0347 -0.0019
36140DPPC   C3A44341  12.071   4.088  17.519 -0.2918 -0.1501  0.0799
36140DPPC   C4A44342  12.105   4.090  17.979  0.1856 -0.0924 -0.1060
36140DPPC   C1B44343  11.808   4.046  16.528 -0.0059 -0.3321  0.0732
36140DPPC   C2B44344  11.772   3.861  16.840  0.3678 -0.0940 -0.2301
36140DPPC   C3B44345  11.687   3.799  17.316 -0.0101  0.2771  0.0571
36140DPPC   C4B44346  11.696   3.765  17.803  0.1583 -0.0893  0.1153
36141DPPC   NC344347  13.815   3.837  16.136  0.0091 -0.2931  0.0623
36141DPPC   PO444348  13.784   4.153  15.907  0.2031  0.3593 -0.2043
36141DPPC   GL144349  13.775   4.289  16.277 -0.0724 -0.2106  0.2282
36141DPPC   GL244350  13.444   4.195  16.284  0.0045  0.2337  0.3010
36141DPPC   C1A44351  13.794   4.078  16.561 -0.0162 -0.0056 -0.0734
36141DPPC   C2A44352  13.857   4.093  16.922 -0.2933 -0.1496 -0.0334
36141DPPC   C3A44353  13.796   4.128  17.420 -0.0446  0.0468 -0.1377
36141DPPC   C4A44354  13.778   4.127  17.887  0.0642 -0.0627  0.1359
36141DPPC   C1B44355  13.382   4.264  16.658  0.0513  0.0190 -0.2745
36141DPPC   C2B44356  13.359   4.274  17.089 -0.0027  0.1170 -0.1988
36141DPPC   C3B44357  13.355   4.248  17.577 -0.0421 -0.3815 -0.1332
36141DPPC   C4B44358  13.312   4.229  18.097  0.2451  0.0029 -0.2632
36142DPPC   NC344359  10.157   1.334  15.942 -0.3016  0.0201  0.0892
36142DPPC   PO444360   9.852   1.471  16.124  0.1894 -0.1524 -0.3109
36142DPPC   GL144361   9.808   1.785  16.458 -0.1189  0.0438  0.1076
36142DPPC   GL244362  10.135   1.701  16.457 -0.0377 -0.1887  0.2479
36142DPPC   C1A44363   9.793   1.699  16.821  0.0425  0.1077  0.0923
36142DPPC   C2A44364   9.748   1.643  17.240 -0.0218 -0.3260  0.0018
36142DPPC   C3A44365   9.780   1.613  17.732 -0.2807  0.2873 -0.1753
36142DPPC   C4A44366   9.740   1.552  18.232  0.0667 -0.2891 -0.0949
36142DPPC   C1B44367  10.221   1.592  16.789  0.3130 -0.0719  0.0221
36142DPPC   C2B44368  10.265   1.565  17.221 -0.1630 -0.2120  0.2683
36142DPPC   C3B44369  10.321   1.556  17.742  0.2209  0.0407 -0.0913
36142DPPC   C4B44370  10.227   1.541  18.204  0.1202 -0.5029 -0.1140
36143DPPC   NC344371  10.728   2.282  15.951 -0.0180  0.0027 -0.1886
36143DPPC   PO444372  10.857   1.945  16.083 -0.1424  0.0369  0.1423
36143DPPC   GL144373  10.957   2.054  16.422  0.0761 -0.3223 -0.1243
36143DPPC   GL244374  10.895   2.309  16.422  0.1851 -0.1901 -0.1624
36143DPPC   C1A44375  10.974   1.836  16.774 -0.1113 -0.1762 -0.1252
36143DPPC   C2A44376  11.032   1.777  17.212 -0.2416  0.1221 -0.1282
36143DPPC   C3A44377  11.071   1.775  17.696  0.0238  0.0144  0.0756
36143DPPC   C4A44378  11.066   1.794  18.164  0.3231  0.1781 -0.1592
36143DPPC   C1B44379  10.925   2.325  16.809  0.2434 -0.2629  0.2504
36143DPPC   C2B44380  10.847   2.306  17.237  0.1634 -0.2152  0.0933
36143DPPC   C3B44381  10.911   2.246  17.723 -0.1557 -0.2530 -0.1151
36143DPPC   C4B44382  10.916   2.265  18.232 -0.3109 -0.3803 -0.0729
36144DPPC   NC344383   9.653   2.982  16.003  0.0645  0.2340 -0.4091
36144DPPC   PO444384  10.016   2.997  15.830  0.0006 -0.4159 -0.1741
36144DPPC   GL144385  10.068   3.059  16.323 -0.2750 -0.0099  0.0533
36144DPPC   GL244386  10.056   2.796  16.322  0.0517  0.0620 -0.1277
36144DPPC   C1A44387  10.077   3.250  16.664 -0.1524 -0.2621 -0.1398
36144DPPC   C2A44388  10.071   3.325  17.070 -0.2088 -0.0276 -0.2301
36144DPPC   C3A44389  10.006   3.338  17.528 -0.0382 -0.3619  0.0351
36144DPPC   C4A44390  10.033   3.372  17.996 -0.3211 -0.1645 -0.0321
36144DPPC   C1B44391  10.005   2.554  16.571  0.0640 -0.4088  0.2784
36144DPPC   C2B44392   9.932   2.496  16.976 -0.1886  0.1181  0.0399
36144DPPC   C3B44393   9.901   2.413  17.452  0.0238  0.0243  0.0777
36144DPPC   C4B44394   9.923   2.424  17.964 -0.2472 -0.0365  0.0936
36145DPPC   NC344395   8.205   2.487  15.388 -0.0075 -0.2645 -0.1157
36145DPPC   PO444396   8.242   2.847  15.587  0.0658  0.1193  0.1327
36145DPPC   GL144397   8.210   2.756  16.005 -0.5218 -0.1324  0.2804
36145DPPC   GL244398   8.333   2.985  16.157  0.1340 -0.2228  0.0289
36145DPPC   C1A44399   8.132   2.473  16.231  0.2095  0.1021  0.0801
36145DPPC   C2A44400   8.145   2.366  16.625 -0.2819  0.4808  0.2838
36145DPPC   C3A44401   8.140   2.482  17.107 -0.0916  0.1961 -0.3221
36145DPPC   C4A44402   8.132   2.478  17.608  0.0549 -0.1159  0.1239
36145DPPC   C1B44403   8.319   2.880  16.474 -0.1182  0.2524 -0.3807
36145DPPC   C2B44404   8.497   2.757  16.850  0.1029  0.0368 -0.0892
36145DPPC   C3B44405   8.535   2.790  17.358  0.0331 -0.0629 -0.1267
36145DPPC   C4B44406   8.395   2.788  17.827 -0.0277 -0.3703  0.0377
36146DPPC   NC344407  11.335   1.835  16.221 -0.0943 -0.2286 -0.0370
36146DPPC   PO444408  11.058   1.539  16.234  0.0061 -0.0580 -0.0947
36146DPPC   GL144409  10.988   1.372  16.624  0.3092  0.2152  0.0759
36146DPPC   GL244410  10.794   1.166  16.545  0.1241  0.3094 -0.0359
36146DPPC   C1A44411  11.161   1.295  16.935 -0.1903  0.2035  0.0299
36146DPPC   C2A44412  11.135   1.275  17.346 -0.1255 -0.3778  0.1543
36146DPPC   C3A44413  11.167   1.229  17.823  0.0617  0.3501  0.0027
36146DPPC   C4A44414  11.148   1.237  18.261 -0.0323  0.0428 -0.2382
36146DPPC   C1B44415  10.526   1.033  16.829  0.1433  0.1542 -0.2729
36146DPPC   C2B44416  10.434   1.036  17.205  0.1955 -0.5347  0.0988
36146DPPC   C3B44417  10.399   1.026  17.734 -0.2628  0.1677 -0.1256
36146DPPC   C4B44418  10.399   1.031  18.206  0.1713 -0.1016  0.0128
36147DPPC   NC344419  14.007   5.283  15.309  0.2186 -0.3341  0.2476
36147DPPC   PO444420  14.227   5.475  15.574  0.2706 -0.0599 -0.1907
36147DPPC   GL144421  14.142   5.368  16.028  0.0913 -0.1505 -0.0927
36147DPPC   GL244422  14.080   5.640  16.039 -0.0250 -0.3406 -0.6242
36147DPPC   C1A44423  13.994   5.327  16.364  0.1788  0.1284  0.1705
36147DPPC   C2A44424  13.996   5.179  16.760  0.3942  0.2401  0.2104
36147DPPC   C3A44425  13.947   5.052  17.244 -0.2403  0.0550 -0.0599
36147DPPC   C4A44426  13.957   5.055  17.708  0.2565 -0.0164  0.2744
36147DPPC   C1B44427  14.197   5.695  16.354 -0.2773  0.1652 -0.3397
36147DPPC   C2B44428  14.241   5.900  16.741 -0.0426  0.3037  0.1551
36147DPPC   C3B44429  14.200   5.946  17.239 -0.1822 -0.1641 -0.0957
36147DPPC   C4B44430  14.270   5.912  17.715 -0.0987  0.2152 -0.1889
36148DPPC   NC344431  11.926   1.627  15.671 -0.0916 -0.1048 -0.0484
36148DPPC   PO444432  12.160   1.949  15.727  0.2036  0.1473 -0.0289
36148DPPC   GL144433  12.295   1.787  16.056 -0.0906  0.0967  0.3138
36148DPPC   GL244434  12.203   1.518  16.147  0.1457  0.0416 -0.0524
36148DPPC   C1A44435  12.230   1.901  16.411 -0.1886  0.5759 -0.1699
36148DPPC   C2A44436  12.401   1.993  16.756 -0.0615  0.1434 -0.1797
36148DPPC   C3A44437  12.295   1.874  17.215 -0.0288  0.0316  0.0497
36148DPPC   C4A44438  12.306   1.887  17.719 -0.1244  0.1076  0.1451
36148DPPC   C1B44439  12.389   1.463  16.419  0.0317  0.2733  0.2885
36148DPPC   C2B44440  12.596   1.490  16.757  0.1944  0.1432 -0.2675
36148DPPC   C3B44441  12.522   1.434  17.294 -0.1709 -0.3915  0.1357
36148DPPC   C4B44442  12.502   1.385  17.767  0.2911 -0.0245  0.1458
36149DPPC   NC344443   7.192   2.793  15.425 -0.0124  0.0312  0.2199
36149DPPC   PO444444   6.983   2.876  15.706 -0.0054 -0.2975  0.1320
36149DPPC   GL144445   6.904   2.665  15.954 -0.0169  0.3105  0.0774
36149DPPC   GL244446   6.804   2.380  15.950  0.2352 -0.1781 -0.3741
36149DPPC   C1A44447   6.994   2.919  16.278  0.0420 -0.2316 -0.5819
36149DPPC   C2A44448   7.011   3.061  16.641 -0.0547  0.1705  0.1799
36149DPPC   C3A44449   7.008   3.074  17.088  0.1142  0.1122  0.0185
36149DPPC   C4A44450   6.943   3.072  17.568  0.0673 -0.3087  0.0327
36149DPPC   C1B44451   6.909   2.159  16.230 -0.0403  0.1822 -0.0153
36149DPPC   C2B44452   6.868   2.258  16.642 -0.1393 -0.1360 -0.0151
36149DPPC   C3B44453   6.841   2.254  17.101 -0.0591 -0.0417  0.1361
36149DPPC   C4B44454   6.813   2.286  17.613  0.0042 -0.1211 -0.1885
36150DPPC   NC344455  13.105   0.162  15.952 -0.1183  0.0582 -0.0347
36150DPPC   PO444456  13.152  -0.178  16.087 -0.0214  0.0445 -0.2974
36150DPPC   GL144457  13.294  -0.456  16.497 -0.0787 -0.1603  0.0067
36150DPPC   GL244458  13.510  -0.285  16.309  0.1705 -0.1574 -0.0340
36150DPPC   C1A44459  13.275  -0.584  16.902  0.0198 -0.3611 -0.0725
36150DPPC   C2A44460  13.279  -0.475  17.295  0.1064  0.0101  0.2910
36150DPPC   C3A44461  13.279  -0.454  17.774 -0.2949 -0.0024  0.0545
36150DPPC   C4A44462  13.256  -0.507  18.214  0.0318  0.1276 -0.0085
36150DPPC   C1B44463  13.709  -0.340  16.657  0.0718 -0.2601  0.2037
36150DPPC   C2B44464  13.784  -0.552  17.010  0.2122  0.0873 -0.1325
36150DPPC   C3B44465  13.705  -0.573  17.508  0.0778  0.0322 -0.0204
36150DPPC   C4B44466  13.771  -0.601  17.996 -0.0818 -0.0082  0.2847
36151DPPC   NC344467  12.859   3.472  16.181 -0.1235 -0.0138  0.1938
36151DPPC   PO444468  12.493   3.348  16.115 -0.0747  0.0586 -0.0617
36151DPPC   GL144469  12.399   3.445  16.472  0.0626 -0.2432  0.0058
36151DPPC   GL244470  12.222   3.274  16.625 -0.0534  0.1403  0.4511
36151DPPC   C1A44471  12.609   3.634  16.733 -0.2526 -0.0085  0.1508
36151DPPC   C2A44472  12.719   3.510  17.167 -0.1833 -0.1691  0.1878
36151DPPC   C3A44473  12.692   3.537  17.664  0.0733  0.1185  0.3925
36151DPPC   C4A44474  12.685   3.509  18.170 -0.0217  0.0718  0.1862
36151DPPC   C1B44475  12.319   3.224  16.961  0.1083  0.2579 -0.2168
36151DPPC   C2B44476  12.369   3.192  17.350 -0.0190 -0.0306  0.4072
36151DPPC   C3B44477  12.340   3.185  17.847  0.0074  0.0287 -0.0001
36151DPPC   C4B44478  12.296   3.108  18.311  0.0628  0.5645  0.0104
36152DPPC   NC344479   7.266   1.221  15.349  0.0847 -0.0733 -0.1282
36152DPPC   PO444480   7.329   1.605  15.403 -0.1018 -0.0189  0.0164
36152DPPC   GL144481   7.452   1.666  15.779  0.0494  0.2826 -0.2287
36152DPPC   GL244482   7.442   1.954  15.746  0.3733 -0.1371  0.2924
36152DPPC   C1A44483   7.502   1.575  16.151 -0.0845  0.0639  0.1405
36152DPPC   C2A44484   7.515   1.625  16.521  0.0379  0.0411 -0.1211
36152DPPC   C3A44485   7.541   1.608  16.984  0.2185  0.0826  0.0114
36152DPPC   C4A44486   7.482   1.661  17.484  0.2648  0.1715 -0.3064
36152DPPC   C1B44487   7.274   1.983  16.055  0.1038 -0.1932  0.1628
36152DPPC   C2B44488   7.351   2.100  16.436  0.1998  0.0652 -0.0565
36152DPPC   C3B44489   7.356   2.081  16.956  0.4218 -0.0789 -0.0032
36152DPPC   C4B44490   7.268   2.152  17.468  0.0145  0.4067  0.3598
36153DPPC   NC344491   7.840   2.637  15.731  0.1024  0.1555 -0.2087
36153DPPC   PO444492   7.493   2.676  15.717 -0.1226 -0.0280 -0.0732
36153DPPC   GL144493   7.303   2.775  16.023 -0.1005 -0.2683 -0.1875
36153DPPC   GL244494   7.217   2.471  16.126  0.0265  0.5972  0.6360
36153DPPC   C1A44495   7.401   3.016  16.252  0.2031  0.0079  0.1756
36153DPPC   C2A44496   7.494   3.000  16.634  0.4146  0.1893 -0.2059
36153DPPC   C3A44497   7.519   2.976  17.109  0.1215  0.3829 -0.0345
36153DPPC   C4A44498   7.450   3.018  17.588  0.4965  0.0381 -0.0209
36153DPPC   C1B44499   7.290   2.585  16.475 -0.2346 -0.0682  0.4100
36153DPPC   C2B44500   7.229   2.588  16.890 -0.2765 -0.0775  0.0556
36153DPPC   C3B44501   7.160   2.617  17.303 -0.2181  0.0725 -0.0395
36153DPPC   C4B44502   7.160   2.692  17.792 -0.1485 -0.3302  0.0467
36154DPPC   NC344503  11.549   3.016  15.607  0.1869  0.1538  0.3578
36154DPPC   PO444504  11.597   3.365  15.803  0.0216  0.2408  0.0983
36154DPPC   GL144505  11.568   3.394  16.231 -0.0215 -0.1421  0.2391
36154DPPC   GL244506  11.360   3.222  16.214 -0.0963  0.3042 -0.2223
36154DPPC   C1A44507  11.768   3.458  16.538 -0.2455 -0.0304 -0.3540
36154DPPC   C2A44508  11.884   3.360  16.902 -0.0076 -0.1926  0.1122
36154DPPC   C3A44509  11.889   3.310  17.394  0.0313  0.1532 -0.1990
36154DPPC   C4A44510  11.871   3.309  17.917  0.0052 -0.0069  0.1747
36154DPPC   C1B44511  11.093   3.220  16.502 -0.0694  0.3222  0.2336
36154DPPC   C2B44512  11.066   3.180  16.901 -0.1167 -0.5166 -0.1753
36154DPPC   C3B44513  11.023   3.182  17.405  0.3727  0.2297  0.0739
36154DPPC   C4B44514  10.967   3.076  17.897 -0.2437 -0.0034 -0.1406
36155DPPC   NC344515   7.858   6.457  15.399 -0.0440  0.0791 -0.1819
36155DPPC   PO444516   7.833   6.552  15.809 -0.1441 -0.0323 -0.0524
36155DPPC   GL144517   7.724   6.475  16.164  0.0403 -0.1733 -0.0523
36155DPPC   GL244518   7.655   6.712  16.354 -0.1294 -0.0916  0.3503
36155DPPC   C1A44519   7.806   6.184  16.364  0.4617  0.0155  0.0435
36155DPPC   C2A44520   7.797   6.125  16.765 -0.2146 -0.0605  0.0661
36155DPPC   C3A44521   7.765   6.076  17.291 -0.2149 -0.1045 -0.0659
36155DPPC   C4A44522   7.812   6.088  17.714 -0.2822 -0.1748  0.2098
36155DPPC   C1B44523   7.656   6.597  16.682 -0.4664  0.3362  0.1510
36155DPPC   C2B44524   7.663   6.548  17.078  0.0923 -0.1569  0.2433
36155DPPC   C3B44525   7.652   6.534  17.536 -0.0675  0.1157  0.0462
36155DPPC   C4B44526   7.660   6.477  17.992 -0.3437 -0.1587 -0.1348
36156DPPC   NC344527   9.495   3.929  16.052  0.2342  0.0588  0.2833
36156DPPC   PO444528   9.122   3.811  16.112 -0.1284 -0.0552 -0.1623
36156DPPC   GL144529   9.150   3.782  16.445 -0.4133 -0.2755 -0.4617
36156DPPC   GL244530   9.121   3.521  16.524 -0.3992  0.0145 -0.1907
36156DPPC   C1A44531   9.044   4.071  16.640 -0.1657 -0.3643 -0.2655
36156DPPC   C2A44532   8.957   4.028  17.066  0.1343  0.3185  0.1536
36156DPPC   C3A44533   8.954   4.020  17.551 -0.1970 -0.2942 -0.1907
36156DPPC   C4A44534   8.890   4.017  18.043 -0.1303 -0.1880  0.1707
36156DPPC   C1B44535   9.073   3.481  16.878  0.1367 -0.2272 -0.3681
36156DPPC   C2B44536   9.097   3.542  17.273 -0.1434  0.3912 -0.1181
36156DPPC   C3B44537   9.060   3.504  17.742  0.0480 -0.2849  0.1534
36156DPPC   C4B44538   9.031   3.525  18.169  0.3369 -0.2027 -0.0813
36157DPPC   NC344539   8.305   4.860  16.190  0.3470  0.0041 -0.0733
36157DPPC   PO444540   8.634   4.702  16.047  0.2379  0.2365  0.4346
36157DPPC   GL144541   8.922   4.703  16.408 -0.3012 -0.0683  0.1130
36157DPPC   GL244542   8.756   4.535  16.551 -0.0312  0.0687  0.0436
36157DPPC   C1A44543   9.062   4.845  16.720 -0.0803  0.2621 -0.0144
36157DPPC   C2A44544   9.080   4.885  17.135 -0.1203 -0.3380  0.1598
36157DPPC   C3A44545   9.051   4.878  17.575 -0.4352  0.0540  0.2301
36157DPPC   C4A44546   9.026   4.837  18.061  0.1042  0.1068 -0.3102
36157DPPC   C1B44547   8.746   4.583  16.915  0.0808  0.0727 -0.1084
36157DPPC   C2B44548   8.804   4.524  17.334  0.1420  0.2028  0.0763
36157DPPC   C3B44549   8.686   4.432  17.807 -0.1911 -0.1160  0.1418
36157DPPC   C4B44550   8.747   4.457  18.245 -0.0704 -0.1664  0.0830
36158DPPC   NC344551   9.166   5.013  16.064 -0.3661  0.0073  0.0753
36158DPPC   PO444552   9.452   4.732  16.040  0.1496  0.1811  0.0260
36158DPPC   GL144553   9.732   4.683  16.439  0.0780 -0.0383  0.0188
36158DPPC   GL244554   9.913   4.720  16.269  0.1193 -0.1380  0.2775
36158DPPC   C1A44555   9.651   4.829  16.772  0.1610 -0.2286  0.3328
36158DPPC   C2A44556   9.559   4.791  17.155  0.0630 -0.2534 -0.1509
36158DPPC   C3A44557   9.624   4.705  17.554  0.0914 -0.0956  0.0837
36158DPPC   C4A44558   9.552   4.714  18.051  0.1093 -0.1564 -0.1805
36158DPPC   C1B44559  10.150   4.942  16.391 -0.3018 -0.2677  0.1386
36158DPPC   C2B44560  10.351   4.970  16.777  0.1639 -0.2539 -0.0200
36158DPPC   C3B44561  10.356   4.961  17.186 -0.1956 -0.1559 -0.1512
36158DPPC   C4B44562  10.400   4.913  17.724 -0.1717 -0.1861 -0.0082
36159DPPC   NC344563  12.532   1.181  16.126  0.1602 -0.2034  0.1379
36159DPPC   PO444564  12.371   0.808  16.024 -0.0290  0.1444  0.1831
36159DPPC   GL144565  12.190   0.557  16.315  0.0595  0.0119 -0.2191
36159DPPC   GL244566  11.944   0.478  16.313 -0.5815 -0.1314  0.2586
36159DPPC   C1A44567  12.217   0.517  16.674  0.1527 -0.0500  0.3851
36159DPPC   C2A44568  12.361   0.515  17.063  0.1011  0.2214 -0.0327
36159DPPC   C3A44569  12.435   0.558  17.555 -0.1376  0.1850 -0.2198
36159DPPC   C4A44570  12.377   0.464  17.998 -0.3918 -0.1183  0.0204
36159DPPC   C1B44571  11.907   0.243  16.585 -0.2054  0.0227 -0.1181
36159DPPC   C2B44572  12.009   0.207  16.956 -0.1189  0.0682  0.0830
36159DPPC   C3B44573  12.122   0.157  17.457  0.1482 -0.1158  0.1013
36159DPPC   C4B44574  11.998   0.156  17.913  0.2591 -0.0414 -0.0195
36160DPPC   NC344575   7.459   4.990  15.865  0.0887 -0.0198  0.1852
36160DPPC   PO444576   7.500   4.584  15.817  0.1612  0.0096  0.2299
36160DPPC   GL144577   7.852   4.534  16.147  0.3106  0.3096 -0.0883
36160DPPC   GL244578   7.575   4.452  16.245  0.3577 -0.2650  0.1151
36160DPPC   C1A44579   7.958   4.695  16.457 -0.4106  0.0831 -0.1028
36160DPPC   C2A44580   7.856   4.796  16.842 -0.0640 -0.1640  0.2986
36160DPPC   C3A44581   7.807   4.740  17.325 -0.1865  0.0384 -0.1779
36160DPPC   C4A44582   7.778   4.851  17.776 -0.0950  0.0872 -0.2554
36160DPPC   C1B44583   7.483   4.335  16.595 -0.0520  0.0460  0.1800
36160DPPC   C2B44584   7.532   4.322  17.004 -0.1403  0.1261 -0.1701
36160DPPC   C3B44585   7.458   4.400  17.531 -0.1203  0.1928 -0.0301
36160DPPC   C4B44586   7.337   4.335  17.983 -0.0962 -0.0367  0.1496
36161DPPC   NC344587   9.413   5.164  15.522  0.2648 -0.0609  0.2921
36161DPPC   PO444588   9.669   5.128  15.814  0.0160 -0.1012  0.0698
36161DPPC   GL144589   9.569   5.184  16.188 -0.3456 -0.0757 -0.3612
36161DPPC   GL244590   9.846   5.141  16.236  0.1382  0.1369 -0.5597
36161DPPC   C1A44591   9.385   5.158  16.536  0.0764 -0.4367  0.0368
36161DPPC   C2A44592   9.521   5.229  16.916  0.0379  0.1631 -0.2505
36161DPPC   C3A44593   9.448   5.223  17.389  0.0876 -0.2717 -0.2343
36161DPPC   C4A44594   9.396   5.311  17.822 -0.0435  0.0865  0.0169
36161DPPC   C1B44595   9.853   5.196  16.595 -0.2495  0.2694 -0.3129
36161DPPC   C2B44596   9.962   5.143  16.984  0.1257  0.1407 -0.0592
36161DPPC   C3B44597   9.936   5.095  17.454  0.2161  0.0407 -0.0615
36161DPPC   C4B44598   9.898   5.108  17.941 -0.0820  0.1395 -0.1506
36162DPPC   NC344599  12.659   2.762  16.226 -0.5108  0.3466 -0.0399
36162DPPC   PO444600  12.976   2.977  16.090  0.1502 -0.0816 -0.1341
36162DPPC   GL144601  13.038   3.147  16.448  0.2815  0.2369 -0.0955
36162DPPC   GL244602  12.726   3.106  16.544  0.4538 -0.1438 -0.2866
36162DPPC   C1A44603  13.276   3.160  16.698 -0.2680  0.2332  0.0673
36162DPPC   C2A44604  13.300   2.914  17.040 -0.0973 -0.0277 -0.1854
36162DPPC   C3A44605  13.314   2.933  17.492  0.1550  0.2287 -0.2642
36162DPPC   C4A44606  13.328   2.915  17.965  0.0061  0.1381  0.0530
36162DPPC   C1B44607  12.847   3.105  16.890  0.1637  0.0953 -0.1633
36162DPPC   C2B44608  12.872   3.059  17.283  0.2803  0.0879  0.0656
36162DPPC   C3B44609  12.892   3.041  17.776  0.2181 -0.3608 -0.1530
36162DPPC   C4B44610  12.859   3.053  18.266  0.1774  0.1134 -0.0394
36163DPPC   NC344611  10.787   3.537  15.959  0.0720  0.1604 -0.0192
36163DPPC   PO444612  11.158   3.631  16.002  0.0622 -0.1771 -0.1570
36163DPPC   GL144613  11.190   3.620  16.422 -0.0040 -0.2223  0.1081
36163DPPC   GL244614  10.871   3.655  16.445 -0.0970  0.2214 -0.1544
36163DPPC   C1A44615  11.327   3.521  16.731 -0.0096  0.2199 -0.0377
36163DPPC   C2A44616  11.449   3.430  17.118 -0.1609  0.0628 -0.2073
36163DPPC   C3A44617  11.425   3.462  17.604  0.2661  0.3828 -0.2309
36163DPPC   C4A44618  11.256   3.412  18.068 -0.1462  0.0028  0.1484
36163DPPC   C1B44619  10.870   3.636  16.800 -0.0923 -0.0856  0.1889
36163DPPC   C2B44620  10.866   3.562  17.165  0.0489  0.2485  0.1120
36163DPPC   C3B44621  10.843   3.566  17.649 -0.3808 -0.2167 -0.0782
36163DPPC   C4B44622  10.837   3.601  18.148 -0.0314  0.1328 -0.0837
36164DPPC   NC344623   8.765   6.514  16.005 -0.1946 -0.0986 -0.3110
36164DPPC   PO444624   8.422   6.446  15.930 -0.0425  0.0001 -0.0296
36164DPPC   GL144625   8.157   6.632  16.242  0.1653 -0.0723 -0.0084
36164DPPC   GL244626   8.393   6.778  16.393 -0.1323  0.1299 -0.1475
36164DPPC   C1A44627   8.065   6.404  16.521  0.1126  0.3430 -0.2020
36164DPPC   C2A44628   8.123   6.467  16.940  0.1696  0.2551  0.0759
36164DPPC   C3A44629   8.119   6.376  17.408 -0.2209  0.1132  0.2000
36164DPPC   C4A44630   8.115   6.448  17.886 -0.1201  0.1121 -0.2252
36164DPPC   C1B44631   8.484   6.827  16.782 -0.0592 -0.0011 -0.2137
36164DPPC   C2B44632   8.478   6.853  17.180  0.1480 -0.0215  0.1577
36164DPPC   C3B44633   8.435   6.727  17.622 -0.1097 -0.2994 -0.2212
36164DPPC   C4B44634   8.443   6.863  18.103  0.1021 -0.2487 -0.0793
36165DPPC   NC344635   8.567   2.507  16.281  0.2732  0.1069  0.2327
36165DPPC   PO444636   8.699   2.754  15.985 -0.2602  0.2337 -0.0840
36165DPPC   GL144637   8.734   3.003  16.415 -0.3928  0.3074 -0.2578
36165DPPC   GL244638   8.788   3.232  16.239  0.1097  0.1208  0.1009
36165DPPC   C1A44639   8.784   3.104  16.774  0.2980 -0.0581 -0.5297
36165DPPC   C2A44640   8.759   3.189  17.160 -0.1132 -0.1404  0.1481
36165DPPC   C3A44641   8.720   3.188  17.596 -0.2170  0.1236 -0.0957
36165DPPC   C4A44642   8.717   3.107  18.084 -0.0168 -0.0711 -0.0643
36165DPPC   C1B44643   8.466   3.345  16.336 -0.2136  0.0812 -0.2426
36165DPPC   C2B44644   8.305   3.284  16.740 -0.1960 -0.2352 -0.3546
36165DPPC   C3B44645   8.285   3.228  17.161 -0.4444 -0.0613  0.0368
36165DPPC   C4B44646   8.236   3.239  17.672  0.1347 -0.1614 -0.0857
36166DPPC   NC344647  10.408   4.138  15.998 -0.1054  0.2495  0.0811
36166DPPC   PO444648  10.773   3.981  16.071  0.0364 -0.1884  0.1758
36166DPPC   GL144649  10.741   4.074  16.437 -0.1441 -0.1344  0.3640
36166DPPC   GL244650  10.432   4.126  16.438  0.0582 -0.2906 -0.3436
36166DPPC   C1A44651  10.760   4.044  16.811  0.0832  0.0831  0.1328
36166DPPC   C2A44652  10.761   4.088  17.201 -0.0771 -0.1655 -0.3695
36166DPPC   C3A44653  10.750   4.106  17.675  0.0413  0.1265 -0.3834
36166DPPC   C4A44654  10.735   4.110  18.194 -0.3848 -0.3319  0.2337
36166DPPC   C1B44655  10.332   4.117  16.804 -0.0137 -0.2857 -0.0267
36166DPPC   C2B44656  10.253   4.179  17.190  0.0144 -0.1182  0.0519
36166DPPC   C3B44657  10.256   4.180  17.710 -0.2056  0.1693 -0.2610
36166DPPC   C4B44658  10.142   4.203  18.207  0.1673  0.1743 -0.1615
36167DPPC   NC344659  14.425   2.894  15.822  0.0444 -0.0793  0.1760
36167DPPC   PO444660  14.082   2.817  15.935 -0.0467  0.0349 -0.2346
36167DPPC   GL144661  14.019   2.941  16.325 -0.1628  0.1197 -0.2982
36167DPPC   GL244662  14.294   2.820  16.345  0.1064  0.2955 -0.2157
36167DPPC   C1A44663  13.858   2.888  16.644  0.2204  0.0754 -0.0799
36167DPPC   C2A44664  13.824   2.793  17.054  0.0828 -0.0347 -0.1420
36167DPPC   C3A44665  13.792   2.851  17.532  0.1284  0.0867 -0.1475
36167DPPC   C4A44666  13.801   2.796  18.041  0.0539  0.3347 -0.0463
36167DPPC   C1B44667  14.296   2.814  16.720 -0.0908 -0.2436  0.2138
36167DPPC   C2B44668  14.310   2.778  17.167 -0.1189 -0.0776 -0.2285
36167DPPC   C3B44669  14.299   2.806  17.642 -0.3710  0.1539 -0.0850
36167DPPC   C4B44670  14.405   2.687  18.107  0.1298  0.0973 -0.2348
36168DPPC   NC344671  13.158   5.295  15.352 -0.0736  0.2180  0.0127
36168DPPC   PO444672  13.277   5.459  15.714 -0.0565 -0.1281  0.2144
36168DPPC   GL144673  13.190   5.407  16.134 -0.0900  0.0058 -0.1851
36168DPPC   GL244674  13.188   5.134  16.170 -0.0685 -0.2653  0.2781
36168DPPC   C1A44675  13.338   5.609  16.380 -0.0633 -0.0064 -0.6076
36168DPPC   C2A44676  13.385   5.578  16.777  0.2020  0.0633 -0.2243
36168DPPC   C3A44677  13.416   5.682  17.237  0.0675  0.0163  0.2303
36168DPPC   C4A44678  13.473   5.662  17.717  0.0353 -0.0596 -0.0194
36168DPPC   C1B44679  13.121   5.040  16.517  0.1253  0.0799 -0.2084
36168DPPC   C2B44680  13.020   5.188  16.881  0.1641 -0.2206  0.1383
36168DPPC   C3B44681  13.071   5.316  17.354 -0.0353 -0.0589 -0.1006
36168DPPC   C4B44682  12.985   5.262  17.841  0.1194 -0.2648 -0.2483
36169DPPC   NC344683   9.186   2.532  15.560 -0.1010 -0.0970 -0.2052
36169DPPC   PO444684   9.202   2.900  15.791  0.0837 -0.2442  0.0710
36169DPPC   GL144685   9.127   2.919  16.143 -0.1810 -0.1144 -0.0815
36169DPPC   GL244686   9.078   2.717  16.288  0.0455 -0.0036  0.3161
36169DPPC   C1A44687   9.223   3.058  16.520 -0.0839 -0.0496  0.0630
36169DPPC   C2A44688   9.284   3.117  16.881  0.3628 -0.3014  0.1946
36169DPPC   C3A44689   9.245   3.075  17.313  0.1390  0.0002 -0.1492
36169DPPC   C4A44690   9.244   3.034  17.786  0.1444 -0.2705  0.2447
36169DPPC   C1B44691   8.970   2.705  16.627  0.0355 -0.0402  0.2527
36169DPPC   C2B44692   8.968   2.693  17.080  0.1956  0.0318  0.0479
36169DPPC   C3B44693   8.926   2.683  17.571  0.0982  0.3970  0.0118
36169DPPC   C4B44694   8.974   2.614  18.087 -0.1380  0.1290 -0.1032
36170DPPC   NC344695  11.953   2.450  15.868  0.0512  0.0628  0.1765
36170DPPC   PO444696  11.581   2.487  15.742  0.1172 -0.0586  0.0773
36170DPPC   GL144697  11.502   2.427  16.058 -0.2284  0.1917  0.2216
36170DPPC   GL244698  11.258   2.301  16.150  0.2284  0.0140 -0.1699
36170DPPC   C1A44699  11.622   2.573  16.384  0.2367  0.1190  0.3363
36170DPPC   C2A44700  11.678   2.566  16.760  0.1007 -0.0132  0.1748
36170DPPC   C3A44701  11.684   2.523  17.255 -0.1824  0.0558 -0.0704
36170DPPC   C4A44702  11.690   2.513  17.747  0.0062 -0.0155 -0.0128
36170DPPC   C1B44703  11.301   2.250  16.514 -0.0982  0.2251  0.1475
36170DPPC   C2B44704  11.363   2.143  16.917 -0.1006 -0.0072  0.1029
36170DPPC   C3B44705  11.416   2.086  17.398  0.0231  0.0963  0.0526
36170DPPC   C4B44706  11.375   2.126  17.927  0.2412 -0.1729 -0.1201
36171DPPC   NC344707  15.487   1.971  16.061 -0.2206 -0.0981 -0.4121
36171DPPC   PO444708  15.396   1.614  15.929  0.0887  0.0133 -0.0946
36171DPPC   GL144709  15.468   1.345  16.298 -0.0704  0.1055 -0.3341
36171DPPC   GL244710  15.521   1.133  16.167  0.0296  0.1803 -0.0188
36171DPPC   C1A44711  15.303   1.351  16.649 -0.0399 -0.0615 -0.0511
36171DPPC   C2A44712  15.377   1.284  17.066  0.0957  0.0046  0.2141
36171DPPC   C3A44713  15.372   1.331  17.543 -0.0644  0.1999 -0.0612
36171DPPC   C4A44714  15.297   1.225  18.051  0.1255  0.0238 -0.2730
36171DPPC   C1B44715  15.287   0.953  16.396 -0.0934 -0.0743 -0.0936
36171DPPC   C2B44716  15.106   0.943  16.754 -0.0063  0.0761  0.0000
36171DPPC   C3B44717  15.057   0.865  17.255  0.0238  0.0539 -0.0239
36171DPPC   C4B44718  15.035   0.826  17.775  0.0713  0.2572 -0.2039
36172DPPC   NC344719  11.936   5.562  15.874  0.1292 -0.0368 -0.3036
36172DPPC   PO444720  12.076   5.762  16.201  0.2182  0.0072  0.2051
36172DPPC   GL144721  12.294   5.969  16.485 -0.0961  0.1893  0.2035
36172DPPC   GL244722  12.272   6.246  16.351  0.2389 -0.2656 -0.2502
36172DPPC   C1A44723  12.369   5.940  16.857 -0.2607  0.1582  0.0596
36172DPPC   C2A44724  12.367   5.866  17.252  0.1618  0.2568  0.1822
36172DPPC   C3A44725  12.461   5.801  17.744 -0.0814 -0.0863 -0.0323
36172DPPC   C4A44726  12.377   5.862  18.265 -0.0499 -0.0108  0.2256
36172DPPC   C1B44727  12.222   6.491  16.640  0.2114 -0.0168 -0.0549
36172DPPC   C2B44728  12.270   6.355  17.029  0.1111 -0.0425  0.1422
36172DPPC   C3B44729  12.250   6.298  17.485 -0.1080 -0.1231  0.0851
36172DPPC   C4B44730  12.384   6.283  17.961 -0.4432 -0.0050 -0.1439
36173DPPC   NC344731  10.555   0.526  15.522 -0.1291  0.0599  0.0792
36173DPPC   PO444732  10.371   0.329  15.844  0.1010 -0.0378  0.1499
36173DPPC   GL144733  10.334   0.549  16.226  0.1200  0.1311  0.0466
36173DPPC   GL244734  10.186   0.293  16.277  0.5580  0.2185  0.0164
36173DPPC   C1A44735  10.213   0.578  16.653 -0.0019  0.0243  0.0079
36173DPPC   C2A44736  10.149   0.628  17.095  0.1736  0.1394 -0.2637
36173DPPC   C3A44737  10.160   0.661  17.539 -0.1571 -0.0071 -0.2724
36173DPPC   C4A44738  10.112   0.614  18.024  0.4237  0.1530  0.1027
36173DPPC   C1B44739  10.288   0.124  16.641 -0.0269  0.0169  0.1996
36173DPPC   C2B44740  10.279   0.138  17.058  0.1320  0.1130  0.1126
36173DPPC   C3B44741  10.282   0.131  17.513  0.1775 -0.0328 -0.1046
36173DPPC   C4B44742  10.232   0.120  18.009 -0.1399  0.3038 -0.0524
36174DPPC   NC344743   9.391   1.555  15.894 -0.1924  0.0613 -0.2245
36174DPPC   PO444744   9.057   1.410  16.047 -0.0485 -0.0608 -0.2517
36174DPPC   GL144745   8.955   1.388  16.441 -0.0188  0.2485  0.2728
36174DPPC   GL244746   8.988   1.064  16.489  0.1177  0.0630 -0.2426
36174DPPC   C1A44747   9.078   1.449  16.791 -0.0424 -0.4225 -0.0819
36174DPPC   C2A44748   8.980   1.385  17.166  0.1730  0.1664  0.0532
36174DPPC   C3A44749   8.949   1.349  17.618 -0.0493 -0.3664  0.1188
36174DPPC   C4A44750   8.876   1.365  18.059  0.3042 -0.1069  0.3742
36174DPPC   C1B44751   9.128   0.951  16.808 -0.1937  0.0822 -0.2293
36174DPPC   C2B44752   9.185   0.933  17.233 -0.1381  0.0359 -0.1158
36174DPPC   C3B44753   9.182   0.909  17.731 -0.0669 -0.0191 -0.2107
36174DPPC   C4B44754   8.984   0.937  18.223  0.2639  0.1581 -0.2086
36175DPPC   NC344755  12.742   1.773  15.786  0.0307  0.2194 -0.0552
36175DPPC   PO444756  12.861   1.384  15.878 -0.1231 -0.3304 -0.0332
36175DPPC   GL144757  12.822   1.505  16.255 -0.0698 -0.1622 -0.2805
36175DPPC   GL244758  12.682   1.736  16.277  0.1340 -0.0349  0.0591
36175DPPC   C1A44759  12.999   1.409  16.594 -0.3688 -0.0042 -0.1833
36175DPPC   C2A44760  12.995   1.308  17.031  0.0757  0.1480  0.2781
36175DPPC   C3A44761  12.949   1.276  17.551  0.3192 -0.1361 -0.0191
36175DPPC   C4A44762  12.908   1.247  18.084 -0.2282 -0.2324 -0.1159
36175DPPC   C1B44763  12.847   1.852  16.614  0.4214 -0.0844 -0.3306
36175DPPC   C2B44764  12.855   1.791  17.038 -0.1274  0.0576 -0.0586
36175DPPC   C3B44765  12.826   1.763  17.498  0.2334 -0.1137  0.2436
36175DPPC   C4B44766  12.743   1.771  18.036 -0.2859 -0.0225 -0.0234
36176DPPC   NC344767  10.641   0.136  16.242 -0.0736 -0.1446  0.1704
36176DPPC   PO444768  10.448  -0.172  16.147  0.0587  0.0590 -0.0842
36176DPPC   GL144769  10.549  -0.339  16.452  0.0152  0.1872  0.1668
36176DPPC   GL244770  10.740  -0.462  16.360 -0.1141 -0.1624  0.2477
36176DPPC   C1A44771  10.392  -0.356  16.802 -0.2768  0.3519  0.0703
36176DPPC   C2A44772  10.415  -0.380  17.212  0.1152 -0.1930  0.0884
36176DPPC   C3A44773  10.455  -0.299  17.680  0.0282  0.1244 -0.2735
36176DPPC   C4A44774  10.345  -0.382  18.154  0.1335 -0.0876 -0.1753
36176DPPC   C1B44775  10.842  -0.544  16.731 -0.1321  0.2305  0.1458
36176DPPC   C2B44776  10.938  -0.468  17.163 -0.0543 -0.0183  0.1218
36176DPPC   C3B44777  10.921  -0.419  17.663 -0.0272  0.2469  0.0792
36176DPPC   C4B44778  10.946  -0.371  18.144 -0.0429  0.1510  0.1033
36177DPPC   NC344779  10.904   5.379  16.113 -0.1364 -0.2719  0.1809
36177DPPC   PO444780  11.088   5.045  16.043 -0.2112  0.1550 -0.0091
36177DPPC   GL144781  11.230   4.925  16.450 -0.2772 -0.1851 -0.1285
36177DPPC   GL244782  10.939   4.993  16.511 -0.0977 -0.0948 -0.2566
36177DPPC   C1A44783  11.310   4.929  16.824 -0.2942 -0.0062  0.1976
36177DPPC   C2A44784  11.397   4.781  17.219  0.4865  0.0144  0.0621
36177DPPC   C3A44785  11.360   4.749  17.689  0.0437  0.1326 -0.0389
36177DPPC   C4A44786  11.431   4.759  18.178 -0.1157  0.2590  0.0685
36177DPPC   C1B44787  10.830   4.930  16.868 -0.0729  0.2336  0.1934
36177DPPC   C2B44788  10.836   4.926  17.273 -0.0410 -0.0533 -0.0349
36177DPPC   C3B44789  10.886   4.869  17.732  0.3124  0.0288 -0.4903
36177DPPC   C4B44790  10.835   4.818  18.201  0.1639  0.1743  0.0912
36178DPPC   NC344791   8.610   1.606  16.195  0.0840  0.1502  0.0683
36178DPPC   PO444792   8.612   1.193  16.177  0.1565  0.0559  0.1164
36178DPPC   GL144793   8.509   1.131  16.515  0.1135 -0.0770  0.0380
36178DPPC   GL244794   8.405   1.363  16.595 -0.2801  0.2433 -0.1992
36178DPPC   C1A44795   8.657   1.073  16.849  0.2368 -0.2958 -0.0755
36178DPPC   C2A44796   8.654   1.035  17.261  0.0553 -0.0677 -0.2446
36178DPPC   C3A44797   8.571   1.060  17.735  0.1570  0.2577  0.0501
36178DPPC   C4A44798   8.475   1.015  18.203 -0.1187 -0.0552  0.0845
36178DPPC   C1B44799   8.516   1.608  16.826  0.1910  0.1964 -0.0292
36178DPPC   C2B44800   8.509   1.535  17.269 -0.2175 -0.2257 -0.0009
36178DPPC   C3B44801   8.471   1.526  17.764 -0.2267  0.1826 -0.1622
36178DPPC   C4B44802   8.432   1.524  18.269  0.1304 -0.2548  0.0821
36179DPPC   NC344803  10.039   3.477  16.211 -0.0963 -0.2745  0.1968
36179DPPC   PO444804  10.367   3.703  16.239  0.0406  0.1089  0.0213
36179DPPC   GL144805  10.494   3.703  16.679  0.2251 -0.1839 -0.0151
36179DPPC   GL244806  10.537   3.388  16.640  0.1480 -0.2953 -0.2552
36179DPPC   C1A44807  10.432   3.764  17.040  0.1282  0.1248  0.1144
36179DPPC   C2A44808  10.407   3.748  17.471  0.0691 -0.1010  0.2765
36179DPPC   C3A44809  10.426   3.707  17.933  0.0846  0.0344  0.2139
36179DPPC   C4A44810  10.425   3.736  18.407 -0.0783 -0.0609  0.1744
36179DPPC   C1B44811  10.520   3.360  16.977  0.3185  0.1810 -0.2556
36179DPPC   C2B44812  10.477   3.230  17.335 -0.2799  0.0362 -0.0932
36179DPPC   C3B44813  10.507   3.237  17.759 -0.2053 -0.1390 -0.1031
36179DPPC   C4B44814  10.481   3.144  18.216 -0.0207  0.3683 -0.1648
36180DPPC   NC344815  10.672   2.891  15.880  0.0912 -0.0621 -0.2539
36180DPPC   PO444816  10.378   2.645  16.012 -0.0996  0.0078  0.2515
36180DPPC   GL144817  10.470   2.675  16.463  0.3590  0.1302 -0.3937
36180DPPC   GL244818  10.414   2.465  16.534 -0.5284  0.5839  0.1230
36180DPPC   C1A44819  10.316   2.861  16.749  0.0812  0.2168 -0.0441
36180DPPC   C2A44820  10.253   2.828  17.150  0.2165 -0.1457  0.0244
36180DPPC   C3A44821  10.234   2.787  17.597  0.1893 -0.0789 -0.1291
36180DPPC   C4A44822  10.164   2.837  18.076  0.0665 -0.2239 -0.2137
36180DPPC   C1B44823  10.430   2.411  16.919 -0.2216 -0.4317 -0.0851
36180DPPC   C2B44824  10.343   2.335  17.284  0.2844 -0.1018 -0.1009
36180DPPC   C3B44825  10.373   2.331  17.756  0.1741  0.0187  0.2776
36180DPPC   C4B44826  10.292   2.305  18.266 -0.1148 -0.1194 -0.1813
36181DPPC   NC344827   9.053   5.963  15.297 -0.2617  0.2435  0.1630
36181DPPC   PO444828   8.882   5.895  15.683 -0.0564  0.0572  0.0010
36181DPPC   GL144829   8.965   5.853  16.173  0.1797 -0.1536  0.3658
36181DPPC   GL244830   8.832   6.097  16.166  0.1108  0.1874 -0.2031
36181DPPC   C1A44831   8.990   5.775  16.528  0.3964  0.0612  0.0858
36181DPPC   C2A44832   8.870   5.805  16.930  0.1646  0.0122  0.0203
36181DPPC   C3A44833   8.801   5.891  17.344 -0.0646 -0.1374 -0.0881
36181DPPC   C4A44834   8.787   5.863  17.855  0.0362 -0.1073 -0.2946
36181DPPC   C1B44835   8.515   5.992  16.366  0.0772 -0.2290  0.0343
36181DPPC   C2B44836   8.267   6.003  16.681  0.0726 -0.3080 -0.0102
36181DPPC   C3B44837   8.303   5.969  17.146  0.1609  0.1729 -0.0516
36181DPPC   C4B44838   8.366   6.010  17.614  0.0535 -0.2341  0.0483
36182DPPC   NC344839  12.321   6.397  15.838  0.0626 -0.1885 -0.2524
36182DPPC   PO444840  12.654   6.433  16.017  0.0338 -0.0192 -0.1120
36182DPPC   GL144841  12.596   6.520  16.351  0.0314 -0.1745 -0.2265
36182DPPC   GL244842  12.948   6.706  16.399 -0.0900  0.2042 -0.2622
36182DPPC   C1A44843  12.614   6.264  16.612 -0.2864  0.2138 -0.0537
36182DPPC   C2A44844  12.763   6.228  16.964 -0.0680 -0.0668 -0.0442
36182DPPC   C3A44845  12.824   6.262  17.456 -0.0156 -0.0731 -0.3149
36182DPPC   C4A44846  12.827   6.103  17.898 -0.0681 -0.1642  0.4762
36182DPPC   C1B44847  13.020   6.631  16.735  0.1484  0.1911  0.0681
36182DPPC   C2B44848  13.039   6.629  17.187  0.1128 -0.0142  0.1514
36182DPPC   C3B44849  13.051   6.594  17.678 -0.0515  0.0631 -0.1889
36182DPPC   C4B44850  13.066   6.540  18.145  0.1468  0.1305 -0.2338
36183DPPC   NC344851  11.517   3.832  15.711  0.0604 -0.0684 -0.0408
36183DPPC   PO444852  11.651   3.840  16.086  0.1144  0.1275 -0.0062
36183DPPC   GL144853  11.461   4.180  16.359  0.0121  0.0977  0.0180
36183DPPC   GL244854  11.239   4.038  16.231 -0.0186  0.1977 -0.3571
36183DPPC   C1A44855  11.442   4.184  16.744 -0.2279  0.0365 -0.1862
36183DPPC   C2A44856  11.484   4.275  17.139  0.0524 -0.2951  0.5191
36183DPPC   C3A44857  11.582   4.298  17.592 -0.0593 -0.2460 -0.2222
36183DPPC   C4A44858  11.588   4.260  18.070  0.4634 -0.1416  0.1042
36183DPPC   C1B44859  11.156   3.945  16.625 -0.2875 -0.1925 -0.0861
36183DPPC   C2B44860  11.256   3.889  17.015  0.2037  0.2227 -0.3064
36183DPPC   C3B44861  11.221   3.883  17.506 -0.2314  0.5012 -0.3094
36183DPPC   C4B44862  11.196   3.945  17.973  0.1530  0.0778 -0.2364
36184DPPC   NC344863  11.991   3.404  16.134  0.1152 -0.2367 -0.2847
36184DPPC   PO444864  12.140   3.786  16.109  0.0653 -0.3039 -0.2179
36184DPPC   GL144865  12.215   3.860  16.483  0.0700  0.0914  0.5440
36184DPPC   GL244866  12.323   4.108  16.339 -0.0634  0.0119  0.1756
36184DPPC   C1A44867  12.227   3.748  16.854 -0.2344  0.1283 -0.0862
36184DPPC   C2A44868  12.197   3.682  17.287 -0.0572  0.0559  0.2348
36184DPPC   C3A44869  12.247   3.633  17.736 -0.1809 -0.0418 -0.0342
36184DPPC   C4A44870  12.161   3.630  18.171  0.1119 -0.0281 -0.0330
36184DPPC   C1B44871  12.481   4.104  16.681 -0.4238  0.1699  0.2212
36184DPPC   C2B44872  12.527   3.994  17.061 -0.1876 -0.0104 -0.1084
36184DPPC   C3B44873  12.620   4.000  17.552  0.1791 -0.0995 -0.1925
36184DPPC   C4B44874  12.576   4.000  18.003 -0.2453  0.1026  0.0035
36185DPPC   NC344875  12.574   3.040  15.756 -0.0793 -0.2049 -0.1677
36185DPPC   PO444876  12.295   2.762  15.870 -0.2720 -0.3442 -0.3479
36185DPPC   GL144877  12.189   2.711  16.241  0.3980 -0.0360  0.0511
36185DPPC   GL244878  12.248   2.974  16.326  0.2919  0.0646 -0.0398
36185DPPC   C1A44879  12.106   2.452  16.511 -0.4027  0.0018 -0.1415
36185DPPC   C2A44880  12.119   2.454  16.931  0.1518  0.3094 -0.0364
36185DPPC   C3A44881  12.209   2.394  17.455 -0.2520 -0.0063 -0.1135
36185DPPC   C4A44882  12.102   2.301  17.949  0.1299 -0.1094 -0.2160
36185DPPC   C1B44883  12.365   2.856  16.677  0.1024  0.1486  0.0740
36185DPPC   C2B44884  12.520   2.761  17.091 -0.2660 -0.0805  0.0343
36185DPPC   C3B44885  12.505   2.776  17.545 -0.0508  0.0916 -0.2112
36185DPPC   C4B44886  12.419   2.673  17.979 -0.4655 -0.1067  0.3978
36186DPPC   NC344887  12.930   6.108  15.807  0.1022  0.3124 -0.1810
36186DPPC   PO444888  12.866   5.727  15.951 -0.0488 -0.1476  0.3821
36186DPPC   GL144889  12.866   5.612  16.322  0.0007 -0.2236 -0.2202
36186DPPC   GL244890  12.570   5.681  16.352  0.0865 -0.1615 -0.4130
36186DPPC   C1A44891  12.970   5.747  16.668 -0.0926 -0.1904  0.1242
36186DPPC   C2A44892  12.941   5.717  17.083 -0.0102 -0.1804 -0.1365
36186DPPC   C3A44893  12.990   5.735  17.607 -0.0915 -0.0582  0.0709
36186DPPC   C4A44894  12.898   5.670  18.108  0.1388 -0.3084  0.1473
36186DPPC   C1B44895  12.611   5.589  16.710  0.2619 -0.0285 -0.0237
36186DPPC   C2B44896  12.519   5.442  17.090  0.0156 -0.1299 -0.0257
36186DPPC   C3B44897  12.529   5.358  17.557 -0.2813 -0.1195  0.0522
36186DPPC   C4B44898  12.470   5.369  18.019  0.0537 -0.0626 -0.2032
36187DPPC   NC344899  10.986   1.233  15.870  0.1611 -0.4235  0.1384
36187DPPC   PO444900  10.668   1.499  15.871 -0.1145 -0.1306 -0.1654
36187DPPC   GL144901  10.598   1.546  16.321  0.2155 -0.5020 -0.1343
36187DPPC   GL244902  10.400   1.396  16.350 -0.0697  0.3568 -0.3992
36187DPPC   C1A44903  10.639   1.596  16.651 -0.0349 -0.1673  0.1352
36187DPPC   C2A44904  10.687   1.455  17.016 -0.0784  0.0690 -0.0548
36187DPPC   C3A44905  10.701   1.377  17.501  0.0995 -0.1664 -0.0112
36187DPPC   C4A44906  10.704   1.381  17.987  0.1025 -0.0863 -0.0611
36187DPPC   C1B44907  10.241   1.197  16.595 -0.1075  0.1844 -0.0019
36187DPPC   C2B44908  10.045   1.178  16.979  0.0924 -0.1934  0.1579
36187DPPC   C3B44909   9.996   1.196  17.428  0.2028 -0.2531 -0.2902
36187DPPC   C4B44910   9.963   1.133  17.919  0.3220 -0.1620  0.1428
36188DPPC   NC344911  11.461   2.837  16.047 -0.3272 -0.0634 -0.0618
36188DPPC   PO444912  11.828   2.951  16.047 -0.2086 -0.0893  0.1254
36188DPPC   GL144913  11.837   3.035  16.462 -0.2127  0.0435 -0.0444
36188DPPC   GL244914  11.547   3.025  16.538 -0.1250  0.1187  0.1210
36188DPPC   C1A44915  11.958   2.927  16.788  0.1611 -0.0217  0.0590
36188DPPC   C2A44916  12.025   2.859  17.195  0.2036  0.0965 -0.4441
36188DPPC   C3A44917  12.009   2.898  17.619 -0.3292 -0.2718  0.0688
36188DPPC   C4A44918  11.928   2.830  18.100  0.4499  0.1960  0.0744
36188DPPC   C1B44919  11.506   3.009  16.931  0.0183  0.2689 -0.3108
36188DPPC   C2B44920  11.455   2.962  17.339 -0.0237 -0.0874 -0.2323
36188DPPC   C3B44921  11.528   2.983  17.827  0.1734  0.0628 -0.0977
36188DPPC   C4B44922  11.502   2.980  18.290  0.0808  0.0409 -0.2258
36189DPPC   NC344923  11.628   5.909  16.254  0.1626  0.2545  0.1242
36189DPPC   PO444924  11.226   5.798  16.184  0.1705 -0.3106 -0.1308
36189DPPC   GL144925  10.892   5.686  16.513  0.0966  0.2938 -0.4459
36189DPPC   GL244926  11.226   5.838  16.601 -0.0587  0.2470  0.3012
36189DPPC   C1A44927  10.936   5.687  16.876  0.1245  0.1220 -0.2741
36189DPPC   C2A44928  11.052   5.692  17.274  0.3082  0.0735 -0.0509
36189DPPC   C3A44929  11.078   5.695  17.751  0.1749 -0.2132 -0.0844
36189DPPC   C4A44930  11.058   5.600  18.235 -0.1580  0.1033  0.1490
36189DPPC   C1B44931  11.426   5.661  16.841 -0.2556  0.1005  0.2078
36189DPPC   C2B44932  11.566   5.542  17.197 -0.2743 -0.2379 -0.1189
36189DPPC   C3B44933  11.568   5.601  17.699  0.2102 -0.1956 -0.3955
36189DPPC   C4B44934  11.509   5.475  18.203 -0.1100  0.1049 -0.0686
36190DPPC   NC344935  11.383   5.164  15.684 -0.2391  0.2010  0.2054
36190DPPC   PO444936  11.444   5.418  15.967 -0.3001 -0.3130 -0.0919
36190DPPC   GL144937  11.517   5.488  16.409 -0.2750 -0.0332  0.0275
36190DPPC   GL244938  11.216   5.362  16.411  0.1461  0.1095  0.1818
36190DPPC   C1A44939  11.597   5.290  16.696 -0.2294 -0.2319  0.3144
36190DPPC   C2A44940  11.745   5.109  17.032 -0.0049 -0.0322 -0.1895
36190DPPC   C3A44941  11.736   5.058  17.485  0.3820  0.2068 -0.0379
36190DPPC   C4A44942  11.809   5.025  17.990  0.1941  0.0833 -0.3120
36190DPPC   C1B44943  11.053   5.291  16.740 -0.3050 -0.2039 -0.0277
36190DPPC   C2B44944  11.170   5.241  17.103  0.0075  0.1400  0.2828
36190DPPC   C3B44945  11.212   5.211  17.501 -0.0809 -0.0749  0.1816
36190DPPC   C4B44946  11.219   5.208  17.969 -0.0932  0.1626  0.0260
36191DPPC   NC344947  14.135   6.520  15.958  0.1979 -0.0526 -0.2462
36191DPPC   PO444948  14.388   6.753  16.084  0.2450 -0.1543 -0.0836
36191DPPC   GL144949  14.516   6.801  16.463  0.1199 -0.0657 -0.2191
36191DPPC   GL244950  14.445   7.181  16.489 -0.0254 -0.3506  0.1325
36191DPPC   C1A44951  14.409   6.843  16.794 -0.3768 -0.0494 -0.0824
36191DPPC   C2A44952  14.354   6.818  17.188  0.0573  0.0505 -0.0208
36191DPPC   C3A44953  14.345   6.728  17.658  0.2044  0.0242 -0.2167
36191DPPC   C4A44954  14.375   6.710  18.113  0.1880  0.1173 -0.2726
36191DPPC   C1B44955  14.339   7.237  16.871  0.2538 -0.3591 -0.0383
36191DPPC   C2B44956  14.178   7.326  17.241  0.1684  0.2082  0.2405
36191DPPC   C3B44957  14.251   7.283  17.732 -0.0006 -0.0092  0.1119
36191DPPC   C4B44958  14.230   7.250  18.231  0.1897  0.1722 -0.1004
36192DPPC   NC344959  12.728   4.741  16.144 -0.1684 -0.1930 -0.1559
36192DPPC   PO444960  12.761   4.355  16.239 -0.4021 -0.1958 -0.0628
36192DPPC   GL144961  12.904   4.239  16.551 -0.1724 -0.1126  0.0978
36192DPPC   GL244962  13.102   3.978  16.561 -0.1761 -0.2243  0.0769
36192DPPC   C1A44963  12.887   4.388  16.932  0.1171 -0.0180 -0.1323
36192DPPC   C2A44964  12.867   4.396  17.351 -0.2453 -0.3140  0.1116
36192DPPC   C3A44965  12.858   4.432  17.814  0.4541 -0.0097  0.0156
36192DPPC   C4A44966  12.890   4.474  18.282 -0.4158  0.1170  0.1606
36192DPPC   C1B44967  13.009   3.954  16.879  0.2899 -0.2567 -0.2431
36192DPPC   C2B44968  13.014   3.922  17.321 -0.0365 -0.5782  0.0037
36192DPPC   C3B44969  13.079   3.910  17.809  0.1795 -0.0251  0.1854
36192DPPC   C4B44970  12.968   3.951  18.272 -0.1593  0.0725 -0.1502
36193DPPC   NC344971  13.151   1.787  16.089 -0.0112 -0.2740  0.1577
36193DPPC   PO444972  12.917   2.097  16.124  0.1470  0.0049 -0.3402
36193DPPC   GL144973  12.912   2.314  16.453  0.1819  0.0646 -0.1144
36193DPPC   GL244974  12.630   2.422  16.482 -0.0239 -0.2645  0.1818
36193DPPC   C1A44975  13.057   2.175  16.775  0.3395 -0.3526  0.3407
36193DPPC   C2A44976  13.173   2.131  17.148  0.1307 -0.1797 -0.0547
36193DPPC   C3A44977  13.150   2.131  17.639  0.1219  0.0964  0.0101
36193DPPC   C4A44978  13.127   2.037  18.179  0.2389 -0.2246  0.2065
36193DPPC   C1B44979  12.656   2.371  16.833  0.3542 -0.1099 -0.1022
36193DPPC   C2B44980  12.649   2.257  17.196  0.0062 -0.2280 -0.1689
36193DPPC   C3B44981  12.663   2.252  17.716  0.1432 -0.2339  0.1315
36193DPPC   C4B44982  12.635   2.274  18.198 -0.0798  0.1452 -0.2304
36194DPPC   NC344983  10.322   5.426  15.471 -0.0935  0.0788 -0.1221
36194DPPC   PO444984  10.589   5.591  15.730  0.2507 -0.3720  0.1765
36194DPPC   GL144985  10.552   5.605  16.229  0.3258 -0.4645  0.0812
36194DPPC   GL244986  10.471   5.336  16.271 -0.0048 -0.1446 -0.2720
36194DPPC   C1A44987  10.456   5.808  16.502  0.0557  0.3329  0.1043
36194DPPC   C2A44988  10.524   5.825  16.948 -0.0237  0.0050  0.0275
36194DPPC   C3A44989  10.597   5.822  17.441  0.1110  0.0756  0.0923
36194DPPC   C4A44990  10.588   5.863  17.873  0.0551  0.0448  0.2551
36194DPPC   C1B44991  10.627   5.283  16.604  0.3796 -0.0307 -0.1829
36194DPPC   C2B44992  10.659   5.324  16.988 -0.2228  0.2340 -0.2226
36194DPPC   C3B44993  10.693   5.340  17.466  0.1803  0.1198 -0.2602
36194DPPC   C4B44994  10.665   5.244  18.003 -0.1256 -0.2560 -0.1678
36195W        W44995  22.675   1.924  31.149  0.2978 -0.0462 -0.0188
36196W        W44996  13.456   2.566  30.173 -0.0615 -0.0097 -0.1327
36197W        W44997  11.965   3.296  33.857  0.0771 -0.1525 -0.3916
36198W        W44998   7.920   0.349   6.589 -0.1303  0.1319 -0.1472
36199W        W44999   1.366   2.969  10.903 -0.1570 -0.3274 -0.1282
36200W        W45000  12.820   6.239  31.437  0.0287 -0.0244  0.0565
36201W        W45001   5.792   4.352  26.318  0.0026 -0.1026 -0.3137
36202W        W45002  25.220   4.099  11.838  0.1582 -0.1370 -0.1196
36203W        W45003   9.174   0.539   6.476 -0.0277 -0.2698  0.3086
36204W        W45004   1.706   0.565  32.574  0.5251  0.0292 -0.0377
36205W        W45005   6.084   4.786  20.789 -0.2574  0.0487  0.0828
36206W        W45006  15.595   0.101  23.507  0.0086 -0.0015 -0.2647
36207W        W45007  17.470   4.924  14.652 -0.0138  0.0508  0.2966
36208W        W45008   7.082   6.527  34.332  0.2398  0.0506  0.2928
36209W        W45009  21.881   0.155  33.829  0.1507  0.1030 -0.3673
36210W        W45010  10.013   2.128   4.999 -0.0007  0.0052 -0.0299
36211W        W45011   0.942   4.349  14.309 -0.1577  0.3704 -0.2958
36212W        W45012  16.859   3.970  35.913  0.0699 -0.1070 -0.3817
36213W        W45013   6.411   4.143  14.218  0.4728 -0.0257 -0.3057
36214W        W45014   1.511   5.261  32.258  0.0441 -0.0762  0.0018
36215W        W45015   2.090   0.102  22.618  0.3113 -0.0675  0.0443
36216W        W45016  13.114   1.521   7.784  0.1231 -0.0564  0.1478
36217W        W45017   8.857   5.421   0.786 -0.3072 -0.1427  0.2118
36218W        W45018  18.253   3.999   9.442 -0.1687  0.3699 -0.0382
36219W        W45019  18.903   2.467  12.778 -0.0382  0.0776 -0.0755
36220W        W45020  13.725   4.593   5.021 -0.1772  0.0762  0.0670
36221W        W45021   6.505   5.581  22.296 -0.1025  0.1221 -0.2026
36222W        W45022  19.632   3.606   1.917  0.0889 -0.0637  0.0372
36223W        W45023  21.961   0.803  20.901  0.0687  0.3438  0.0069
36224W        W45024   5.406   3.890  28.269  0.0952  0.4377  0.0697
36225W        W45025  15.793   4.510   1.548  0.0153 -0.0178 -0.1772
36226W        W45026  18.878   5.417   4.539 -0.0309 -0.1818 -0.0495
36227W        W45027  12.046   6.436  25.311 -0.0125 -0.1266 -0.0409
36228W        W45028   8.553   5.316   0.413  0.0099  0.1252  0.2594
36229W        W45029   7.874   2.794  13.375 -0.2362  0.2372  0.0175
36230W        W45030   8.214   4.786  32.390  0.2640  0.1108  0.0663
36231W        W45031   2.163   6.212  36.173 -0.1919  0.2328  0.0147
36232W        W45032  18.291   0.279  24.777  0.0316 -0.0185 -0.0305
36233W        W45033  15.431   3.006  21.020  0.2937  0.1501  0.1225
36234W        W45034  14.152   5.544   4.877 -0.1464 -0.0340 -0.0533
36235W        W45035  25.902   5.308   9.481 -0.0981 -0.2400  0.2225
36236W        W45036  20.767   0.142  25.659  0.0263 -0.1366  0.3821
36237W        W45037  25.780   1.346  11.977  0.0262 -0.2962  0.1140
36238W        W45038  11.004   3.460  31.498  0.0247 -0.0011  0.1049
36239W        W45039   5.969   3.326  23.779  0.0666  0.1241 -0.1326
36240W        W45040   1.841   2.967  21.898  0.0089 -0.1940  0.0151
36241W        W45041  19.227   6.104  31.811 -0.1180 -0.3501  0.2481
36242W        W45042   2.992   4.464  23.130 -0.1003  0.1847  0.0581
36243W        W45043  17.851   4.151   1.902 -0.2473  0.0334 -0.1438
36244W        W45044  19.220   3.320  11.840 -0.1395 -0.2664 -0.1412
36245W        W45045  19.637   6.271   0.895 -0.0019  0.0788 -0.0712
36246W        W45046  24.486   0.013  32.556  0.2898  0.0492  0.0996
36247W        W45047  14.431   6.159  35.140  0.0440 -0.0809  0.0552
36248W        W45048  23.413   3.338  22.961 -0.1176 -0.0979 -0.1311
36249W        W45049   8.138   4.169  29.155 -0.1075 -0.0313  0.0462
36250W        W45050  19.469   2.843  13.913 -0.3117  0.0474  0.0596
36251W        W45051  11.349   5.369   7.696  0.0459 -0.1705 -0.1141
36252W        W45052  23.612   1.730   5.802  0.0196 -0.0994  0.1391
36253W        W45053  21.331   0.203  27.545 -0.1504 -0.0990 -0.0626
36254W        W45054  25.496   1.940  34.543  0.0586  0.3532 -0.0558
36255W        W45055   3.099   3.076  31.148 -0.1305  0.1736  0.0050
36256W        W45056  10.019   5.658  35.647 -0.0581  0.0592 -0.2478
36257W        W45057   0.280   6.256  11.088  0.5098  0.0093  0.1180
36258W        W45058  17.710   1.541   0.087  0.3341  0.0332  0.1443
36259W        W45059  25.737   3.874  12.684  0.0594  0.0772 -0.0988
36260W        W45060  24.332   3.219  36.056 -0.0171  0.0949  0.0640
36261W        W45061   4.967   2.199  28.058 -0.0843 -0.1402 -0.0606
36262W        W45062  13.777   5.806  21.917 -0.1438  0.2217 -0.2515
36263W        W45063   3.770   6.022  30.186 -0.1698  0.2045  0.0562
36264W        W45064   8.188   5.836  26.012  0.1114  0.1422  0.0759
36265W        W45065   6.961   3.514   1.867  0.1723 -0.1759 -0.4219
36266W        W45066  18.717   4.211  33.735  0.1342 -0.0561  0.1116
36267W        W45067   4.069   4.851  33.305  0.3999 -0.0218 -0.1955
36268W        W45068   0.669   4.340  32.827  0.0281  0.1141  0.3020
36269W        W45069  21.551   2.473  25.204  0.0046 -0.2259  0.1851
36270W        W45070  10.628   1.808   0.459 -0.0328 -0.1209  0.1860
36271W        W45071   3.778   1.485  29.794 -0.1627 -0.2232  0.2905
36272W        W45072  12.103   5.629  12.964 -0.1475 -0.0065  0.0913
36273W        W45073   8.621   2.144  13.248 -0.2520  0.0416 -0.0961
36274W        W45074  23.496   6.517  12.423  0.2145 -0.0157 -0.2200
36275W        W45075   2.909   0.034  35.743 -0.0439  0.0938 -0.1431
36276W        W45076  26.066   4.340  21.660  0.0720 -0.3175 -0.2576
36277W        W45077   2.189   2.773  35.006 -0.1282  0.5550  0.0980
36278W        W45078  24.298   3.093   5.208 -0.1104 -0.1261  0.0329
36279W        W45079   9.375   2.556  13.028  0.1515 -0.1570  0.1059
36280W        W45080  26.365   4.397   9.782 -0.0858 -0.1317 -0.3568
36281W        W45081  16.646   1.228   7.281 -0.1708 -0.0264 -0.1513
36282W        W45082  24.466   2.416  34.427  0.0022  0.2371 -0.3634
36283W        W45083  16.025   5.589  21.292 -0.0812 -0.2136  0.0816
36284W        W45084  11.092   2.769  22.558 -0.2306 -0.2710 -0.2058
36285W        W45085   0.067   3.942   9.883 -0.0947  0.0227  0.1908
36286W        W45086   9.825   2.912  10.005 -0.0411 -0.2639  0.0615
36287W        W45087  15.823   6.456  27.041 -0.1579  0.1774  0.0294
36288W        W45088   3.156   3.230  28.905  0.0060 -0.0961  0.1476
36289W        W45089   0.365   0.487  12.274  0.2446 -0.0301 -0.2821
36290W        W45090  14.837   2.764   5.366  0.1782  0.0276  0.0319
36291W        W45091  15.665   0.776  11.095 -0.1003 -0.1270 -0.0787
36292W        W45092  13.952   5.059   9.702  0.0475 -0.0495 -0.0312
36293W        W45093  26.367   2.132  29.217 -0.1047  0.0721  0.1043
36294W        W45094  24.030   3.074   1.834  0.3065 -0.0606 -0.1099
36295W        W45095  25.707   0.833  33.402 -0.1602  0.2715  0.0164
36296W        W45096  13.734   6.475  10.804 -0.2473 -0.4332 -0.1179
36297W        W45097  10.743   4.788  21.573 -0.0384  0.0219 -0.2206
36298W        W45098   8.311   3.264   9.337 -0.1659  0.0759  0.0424
36299W        W45099  12.822   3.236  12.857 -0.1668 -0.0711 -0.1011
36300W        W45100  12.511   1.270  24.246 -0.1443 -0.1223 -0.1905
36301W        W45101  19.495   0.438  31.823 -0.0851  0.1007  0.0873
36302W        W45102   1.074   5.320  30.705 -0.1117  0.0228 -0.1288
36303W        W45103  12.136   2.204  27.418 -0.0696  0.0873 -0.1598
36304W        W45104   5.850   1.563   7.328  0.2346 -0.1190  0.0267
36305W        W45105   6.353   0.418   8.974 -0.1794 -0.1474 -0.0228
36306W        W45106  25.865   2.293  27.874  0.3430  0.2881  0.0056
36307W        W45107  18.491   2.530   3.838 -0.0278  0.2566 -0.0233
36308W        W45108   2.670   1.574  23.077 -0.0943  0.1944  0.0635
36309W        W45109  11.192   4.877  21.348 -0.1920  0.0011  0.4912
36310W        W45110   3.903   4.960  12.035  0.0370 -0.1522 -0.0910
36311W        W45111  18.298   2.349  14.134 -0.0345  0.2059  0.0339
36312W        W45112  25.340   2.633  30.274  0.1918  0.0765  0.1428
36313W        W45113   7.841   5.504  15.285  0.1548 -0.3244  0.2403
36314W        W45114  12.525   3.705  31.021 -0.2572  0.0538 -0.0498
36315W        W45115  16.580   2.918  29.636 -0.0612 -0.1276  0.2591
36316W        W45116   5.041   3.813  14.469  0.0306  0.2387 -0.0019
36317W        W45117  18.109   4.343   4.269 -0.0730 -0.0122  0.2830
36318W        W45118  11.781   1.489  32.094 -0.0736  0.1020 -0.2141
36319W        W45119  19.419   0.831  25.928  0.2235 -0.1459  0.0147
36320W        W45120  10.668   0.258   5.461  0.1797  0.1568 -0.2226
36321W        W45121  23.125   2.119  27.841 -0.2058 -0.1010 -0.0491
36322W        W45122  10.379   1.348   3.311  0.1166  0.2076 -0.0346
36323W        W45123  10.065   0.179  27.972  0.1100 -0.1823 -0.1645
36324W        W45124  25.396   3.680   9.220 -0.2235 -0.1512  0.0171
36325W        W45125   5.151   4.805   7.287  0.1519  0.0872  0.0347
36326W        W45126  21.229   6.382  23.971  0.2248 -0.0724  0.3745
36327W        W45127  18.669   3.389  26.549  0.0162 -0.4133  0.1756
36328W        W45128  17.084   6.425   2.657  0.1390 -0.0684  0.0043
36329W        W45129   1.947   2.938  33.596 -0.1986  0.0415 -0.0198
36330W        W45130   3.006   2.797  28.667 -0.1297  0.2128  0.0720
36331W        W45131  14.132   3.412   3.573 -0.1386 -0.0324  0.3019
36332W        W45132  10.910   5.718  22.858  0.3430  0.0741 -0.4583
36333W        W45133   6.307   5.468  35.852  0.0273  0.2295  0.2693
36334W        W45134   2.803   3.657   3.823  0.1591  0.0072  0.0433
36335W        W45135  22.045   4.834  27.788 -0.2424  0.0598 -0.2385
36336W        W45136  20.751   2.974   4.143  0.3324  0.1621 -0.0556
36337W        W45137  18.686   4.470   6.731  0.0682 -0.1342 -0.0005
36338W        W45138   1.443   0.898   3.574  0.0780 -0.0069 -0.3321
36339W        W45139   3.494   2.785  33.080  0.0950 -0.0516  0.1738
36340W        W45140  17.458   3.973   8.327 -0.1644 -0.1868 -0.1421
36341W        W45141   9.471   4.227  30.984  0.1203 -0.2352  0.5214
36342W        W45142  11.260   4.700  15.610  0.3418 -0.0425 -0.1370
36343W        W45143  17.908   3.543  34.797 -0.0528 -0.0427 -0.0408
36344W        W45144  24.647   3.844   0.447 -0.0459 -0.0671 -0.1418
36345W        W45145   7.077   3.339  32.875  0.2302  0.0364 -0.0353
36346W        W45146   9.673   5.489   5.252  0.0417  0.2482 -0.0729
36347W        W45147  26.298   5.172  31.098 -0.1789 -0.1211 -0.0430
36348W        W45148   4.168   5.301  27.021 -0.5075  0.0220 -0.3251
36349W        W45149   8.939   4.126   1.714 -0.1331 -0.1372 -0.1557
36350W        W45150  25.133   1.119  30.949  0.2557 -0.0172  0.1805
36351W        W45151  12.331   0.554   3.561 -0.2158 -0.0626  0.0520
36352W        W45152  22.845   5.842  28.292 -0.2051 -0.0764 -0.0078
36353W        W45153   8.553   2.936   2.336  0.2409 -0.0615  0.0069
36354W        W45154  18.758   6.181  24.106  0.1380 -0.0318  0.2193
36355W        W45155   2.520   1.051  27.493 -0.0124  0.0012  0.1330
36356W        W45156  11.223   4.160   1.849  0.0372  0.2691  0.1290
36357W        W45157  25.279   0.154  31.952 -0.2199 -0.1719  0.0905
36358W        W45158   8.992   1.131   9.060  0.0223  0.1618 -0.2094
36359W        W45159  15.289   1.640  26.306  0.0404  0.0620  0.0399
36360W        W45160   8.920   0.408  11.043  0.0345 -0.1350 -0.3428
36361W        W45161   1.516   6.482  20.518 -0.1154  0.2111  0.3065
36362W        W45162  16.125   0.948   7.519 -0.3022  0.0485 -0.2828
36363W        W45163  15.702   2.816  34.410 -0.1661 -0.0696  0.2131
36364W        W45164  13.739   0.006  35.798  0.0774  0.0222  0.4634
36365W        W45165   6.252   4.747   4.575  0.1647 -0.0444 -0.0730
36366W        W45166   0.034   5.142  25.959  0.1842  0.3444  0.0705
36367W        W45167   0.118   1.234   0.466 -0.0207  0.2817  0.2932
36368W        W45168  18.686   5.386   2.900  0.0865 -0.2603 -0.2649
36369W        W45169  13.387   5.642  34.074 -0.2573  0.0082 -0.2087
36370W        W45170  26.184   3.573  33.461  0.0086 -0.1281 -0.0450
36371W        W45171   1.701   1.492   7.380  0.0487 -0.0864 -0.0444
36372W        W45172   8.841   6.444   8.745 -0.0728 -0.0886 -0.2524
36373W        W45173  17.530   2.849  33.308  0.1059 -0.0990  0.1500
36374W        W45174   1.031   0.592  23.828 -0.1345  0.3841  0.0583
36375W        W45175  11.210   5.997  23.248  0.0025 -0.1302  0.0567
36376W        W45176  12.566   5.149  13.946 -0.2938  0.2556  0.1388
36377W        W45177  18.837   1.554  24.361  0.1133  0.2089 -0.1660
36378W        W45178   0.268   6.493   0.071  0.3158 -0.2065  0.0143
36379W        W45179  12.565   2.027  14.424  0.1600 -0.1687 -0.0913
36380W        W45180  25.069   6.578   7.625  0.0294 -0.0305  0.2008
36381W        W45181   2.576   2.242  20.815  0.0672  0.2664 -0.1182
36382W        W45182  15.927   3.183   9.105 -0.0392 -0.1487 -0.0844
36383W        W45183   7.487   6.533  33.594  0.3963  0.1879  0.1348
36384W        W45184   3.340   5.038  24.398 -0.0085  0.1336  0.2925
36385W        W45185  18.022   4.553  11.100 -0.0495 -0.0628  0.2723
36386W        W45186   7.690   2.602  28.119 -0.2173  0.0688 -0.1462
36387W        W45187  19.936   6.504  14.617 -0.3271  0.1444  0.0956
36388W        W45188   6.270   4.207  13.584 -0.1865 -0.1993 -0.0190
36389W        W45189   8.115   0.652  30.751 -0.0906 -0.0175 -0.0547
36390W        W45190   0.713   2.877   4.864 -0.2917  0.0157  0.0741
36391W        W45191   0.424   5.334  20.530 -0.1008  0.0424 -0.0870
36392W        W45192   2.357   4.857   0.086  0.3521  0.1904  0.0426
36393W        W45193  13.056   1.681  34.945 -0.1285 -0.0730  0.0238
36394W        W45194   8.360   3.635  30.840  0.1121  0.0431 -0.2582
36395W        W45195   0.465   3.783   2.965  0.2406  0.1092  0.0496
36396W        W45196  14.619   1.511  14.896 -0.0736 -0.1760  0.1710
36397W        W45197   4.145   2.720   2.814 -0.0536 -0.0549 -0.0893
36398W        W45198  23.364   3.547  25.524 -0.1450 -0.0085 -0.1805
36399W        W45199  10.199   2.865   3.190  0.1573  0.0692  0.0239
36400W        W45200   9.891   3.367  34.332  0.2736  0.2628 -0.0810
36401W        W45201  17.755   1.244  10.809  0.0874  0.1413  0.0118
36402W        W45202  23.889   3.477  35.489 -0.1348  0.1492  0.0090
36403W        W45203  11.221   1.704  12.692 -0.0020  0.0854 -0.1550
36404W        W45204   9.075   5.956   7.140  0.2362  0.2394  0.1797
36405W        W45205  16.585   3.165  13.973  0.0387  0.0859  0.1693
36406W        W45206   0.084   1.351  32.523 -0.0372  0.1922  0.0763
36407W        W45207  15.527   0.674  30.481  0.0091  0.2387  0.0176
36408W        W45208  21.865   3.834   1.271 -0.1336 -0.1618  0.1374
36409W        W45209  24.833   2.923  31.375 -0.0157  0.1804 -0.2698
36410W        W45210  17.947   5.285   7.408 -0.0162  0.0912  0.1025
36411W        W45211  22.720   5.543  11.082  0.0653 -0.0259 -0.0575
36412W        W45212  12.559   4.030  22.295 -0.3366 -0.1611 -0.0740
36413W        W45213   9.951   5.154   0.787  0.1284 -0.1503  0.1661
36414W        W45214   7.167   0.856  32.120  0.0248  0.0892 -0.0421
36415W        W45215  24.583   0.541  24.757  0.0587 -0.0382  0.1101
36416W        W45216   8.019   2.479  23.383  0.2545  0.0520 -0.0279
36417W        W45217  18.600   0.978  28.119 -0.2047  0.0093 -0.1291
36418W        W45218   7.059   5.568  22.190  0.2353  0.0633 -0.0894
36419W        W45219   0.822   0.056  13.634 -0.3052  0.0486 -0.1269
36420W        W45220  12.427   4.526  11.517  0.1021 -0.0444 -0.2993
36421W        W45221  15.042   4.393   8.675  0.1838  0.1577  0.1746
36422W        W45222  24.736   2.652   1.241 -0.2856 -0.2520  0.1315
36423W        W45223   3.497   5.636  32.108 -0.3604 -0.1007  0.3795
36424W        W45224   6.815   3.691  30.388  0.0507  0.3715  0.3405
36425W        W45225   6.799   5.395  10.124  0.2510  0.0845  0.0963
36426W        W45226   9.096   5.381   7.874  0.1420 -0.1745 -0.0356
36427W        W45227  16.216   3.423  32.281 -0.0294  0.2355 -0.0018
36428W        W45228   3.268   3.579   8.844 -0.2826  0.1445  0.1870
36429W        W45229  13.768   6.295   9.992 -0.0509 -0.0208  0.1573
36430W        W45230  23.360   0.754   1.317 -0.0263 -0.3437 -0.2403
36431W        W45231  22.497   5.492  10.135 -0.2087 -0.2459  0.1178
36432W        W45232  20.949   5.851  26.899  0.0352 -0.0577 -0.2253
36433W        W45233  14.323   2.754   2.173 -0.2500 -0.0943  0.2464
36434W        W45234  13.466   5.441  21.614  0.0347 -0.1401 -0.1282
36435W        W45235  10.259   5.953   9.824 -0.0694 -0.2203  0.2192
36436W        W45236   1.880   2.811   4.265 -0.0193  0.0523 -0.1106
36437W        W45237  14.266   4.346   4.301 -0.1554 -0.0644  0.0062
36438W        W45238  24.474   6.103   8.745  0.4162 -0.0554 -0.2886
36439W        W45239  25.215   3.598  30.861  0.3954 -0.1553  0.2309
36440W        W45240   5.840   6.452  10.106 -0.1476  0.2560 -0.0559
36441W        W45241   1.534   0.490  24.050  0.1373 -0.1410 -0.0680
36442W        W45242  13.850   1.566   3.768  0.1597 -0.0341 -0.3724
36443W        W45243  24.974   3.615   4.417 -0.0634 -0.0383  0.0041
36444W        W45244  20.217   3.710  14.910 -0.0410  0.0269  0.0889
36445W        W45245  19.369   0.814  28.681 -0.0162  0.1979  0.2043
36446W        W45246  22.374   1.685  27.693  0.3400 -0.0064 -0.0810
36447W        W45247   3.349   4.531  22.275  0.0227  0.0454 -0.0226
36448W        W45248   0.565   1.100  26.794 -0.2806 -0.2883  0.1049
36449W        W45249  14.066   4.674  21.173 -0.0435 -0.1471 -0.1827
36450W        W45250   9.362   4.684  22.084  0.0774 -0.0840 -0.2189
36451W        W45251   1.683   6.022  20.630  0.1871  0.0514 -0.0031
36452W        W45252  17.742   1.393  30.048  0.0877 -0.1407  0.2344
36453W        W45253  14.509   3.466   5.876 -0.1765  0.2219  0.3263
36454W        W45254  12.975   2.188  11.476 -0.1608  0.1911 -0.2009
36455W        W45255  18.754   4.653   1.844  0.1322 -0.0176  0.1886
36456W        W45256  22.594   2.828  26.638  0.0682  0.3582 -0.1366
36457W        W45257   9.683   4.592  23.591  0.0152  0.1530 -0.0376
36458W        W45258  19.601   3.576  32.596  0.0791  0.0223 -0.0731
36459W        W45259   9.381   3.002   1.132 -0.0447 -0.1439  0.1202
36460W        W45260  20.455   2.599   9.460 -0.6373 -0.0010 -0.2911
36461W        W45261  19.130   2.802   2.404  0.0823 -0.0795 -0.1860
36462W        W45262   3.107   6.434  11.979 -0.0539  0.1062 -0.0416
36463W        W45263  25.066   3.022  25.970  0.1603  0.2562 -0.1482
36464W        W45264  23.339   4.114  12.935 -0.0168 -0.1106 -0.4045
36465W        W45265  10.740   6.536   9.095 -0.0673 -0.1538  0.2447
36466W        W45266  14.634   1.865  33.662 -0.0706  0.0377  0.5375
36467W        W45267  14.521   3.780   0.537 -0.1057 -0.1416  0.1450
36468W        W45268  12.422   1.739  21.090  0.0003 -0.0683 -0.1837
36469W        W45269  16.255   2.291  13.889  0.2472  0.0106  0.1204
36470W        W45270  19.971   6.204   0.426 -0.3892 -0.0243  0.0707
36471W        W45271  20.193   3.248  33.109  0.1383 -0.0155  0.0346
36472W        W45272  19.880   6.170  36.048 -0.0019 -0.1837  0.1397
36473W        W45273   7.854   4.019  10.207 -0.0251 -0.2416  0.0492
36474W        W45274  19.189   3.348  14.601  0.0260 -0.0185  0.5031
36475W        W45275  21.968   5.653  10.226 -0.0648 -0.1019 -0.0061
36476W        W45276  16.472   4.591  15.386  0.1159 -0.0088  0.0345
36477W        W45277  10.885   1.535   8.857  0.0222  0.0929 -0.0482
36478W        W45278  20.646   4.388  27.045  0.1744 -0.0612  0.0080
36479W        W45279  17.726   5.686  21.363  0.3093 -0.1347  0.2885
36480W        W45280   1.719   4.359  14.675  0.3327 -0.4159 -0.0241
36481W        W45281  10.183   3.648   0.319  0.0032  0.2265 -0.2588
36482W        W45282   8.531   3.854   7.004 -0.2171  0.3528 -0.3875
36483W        W45283  21.174   5.067  31.135  0.0582 -0.4980  0.0834
36484W        W45284  11.369   3.762   1.156  0.0614 -0.1074  0.2259
36485W        W45285  17.774   1.949  21.314 -0.3039 -0.3398 -0.1297
36486W        W45286   9.861   0.290   8.031 -0.0380  0.0601 -0.0369
36487W        W45287  16.796   0.288  23.802  0.0182  0.2460 -0.2036
36488W        W45288  20.264   5.402   2.755 -0.0634  0.0090  0.1437
36489W        W45289   6.491   0.291   7.288  0.0139 -0.0908 -0.0902
36490W        W45290  18.103   2.621  26.503 -0.2412  0.1143  0.0974
36491W        W45291   3.623   2.480  12.047  0.2063 -0.0975  0.1841
36492W        W45292  14.193   0.628   3.768  0.2394 -0.0693 -0.0659
36493W        W45293  23.026   3.152  14.786  0.0168 -0.1993 -0.2478
36494W        W45294   5.186   3.508   6.247  0.0730 -0.3449 -0.4159
36495W        W45295   7.119   5.383  35.188  0.1514  0.3134  0.1679
36496W        W45296  15.115   5.513   0.780  0.0372  0.0773 -0.1309
36497W        W45297  19.542   5.543  34.680  0.3351 -0.0883  0.0153
36498W        W45298  22.791   3.006  11.726  0.1401  0.4233 -0.0915
36499W        W45299  10.556   1.236  21.787  0.1800 -0.3995 -0.2431
36500W        W45300   4.272   5.052  13.806 -0.0120  0.1398 -0.2333
36501W        W45301   6.883   1.030  29.487  0.0975  0.0686  0.2841
36502W        W45302   2.082   0.895  26.135 -0.0320 -0.1015 -0.1322
36503W        W45303  10.489   1.127   5.866 -0.1247 -0.0343  0.0513
36504W        W45304  22.741   1.749  10.129  0.1852 -0.0102 -0.2121
36505W        W45305   0.245   1.929  30.341 -0.0997  0.1952  0.0903
36506W        W45306  21.382   2.150  28.785  0.0958  0.2169  0.2904
36507W        W45307  15.548   6.464  32.661  0.2189 -0.0300 -0.1356
36508W        W45308   7.737   0.416   8.892  0.1377 -0.2364  0.3065
36509W        W45309  16.284   0.768  29.775 -0.2171  0.0033  0.0477
36510W        W45310   6.757   1.298  26.963 -0.2164 -0.1191  0.2488
36511W        W45311  12.707   1.099  31.482 -0.0333  0.0817 -0.0931
36512W        W45312   8.107   2.869   3.781 -0.3736  0.1726 -0.1476
36513W        W45313   7.843   6.498  32.637 -0.0384  0.1694 -0.2797
36514W        W45314  15.254   0.394   3.006 -0.0358 -0.1350 -0.1344
36515W        W45315   3.119   1.398  27.311  0.0298 -0.1031  0.2300
36516W        W45316  17.289   3.920  26.305 -0.3828 -0.1313  0.3065
36517W        W45317  26.219   0.166   4.278 -0.0178  0.2695 -0.0827
36518W        W45318  10.044   2.163  11.733  0.1267  0.1451  0.2046
36519W        W45319  11.179   4.928   3.914  0.0866 -0.1969  0.2394
36520W        W45320   0.710   0.181  34.343 -0.0115  0.1945 -0.1095
36521W        W45321  13.075   5.618  33.248 -0.0172  0.0932  0.0479
36522W        W45322  20.829   5.707   9.470  0.1892 -0.0039  0.1033
36523W        W45323  14.037   6.391  15.057 -0.1520 -0.0569  0.2226
36524W        W45324  17.161   2.964   2.579 -0.0691 -0.1620 -0.0292
36525W        W45325   9.852   2.082  24.296 -0.0357  0.0680  0.1672
36526W        W45326   4.929   6.057  35.958 -0.1159  0.0841 -0.0943
36527W        W45327  16.350   2.885  24.624  0.0244  0.1084 -0.1227
36528W        W45328  21.405   3.815  11.512 -0.2054 -0.0632 -0.0724
36529W        W45329  15.099   1.563   8.134  0.0551 -0.0644  0.0065
36530W        W45330  11.932   2.367  32.645  0.4761  0.0889  0.1544
36531W        W45331  12.159   6.215  33.443 -0.0769  0.2548 -0.1419
36532W        W45332   3.106   5.305  12.161  0.1786 -0.0612 -0.2169
36533W        W45333  24.369   3.971  33.279 -0.1807 -0.0494 -0.2312
36534W        W45334  21.278   5.245   5.462  0.0292  0.1973  0.0455
36535W        W45335  11.212   6.406   3.003  0.2854  0.0866  0.2594
36536W        W45336   2.066   6.252   8.773  0.0630  0.1098  0.0766
36537W        W45337  10.691   2.386  29.577  0.1460  0.1285  0.0713
36538W        W45338  10.305   6.337   0.135  0.0880  0.0029  0.0034
36539W        W45339  22.779   2.208  15.884  0.1032 -0.0506  0.1594
36540W        W45340   6.530   4.153   3.754 -0.1487  0.1622 -0.1230
36541W        W45341  10.594   0.933   1.435 -0.1599 -0.1350  0.1591
36542W        W45342  10.801   4.583  15.311  0.1435  0.0078 -0.0968
36543W        W45343  23.180   3.083   2.365 -0.1132  0.0103 -0.0104
36544W        W45344  18.182   4.056  27.741 -0.2333 -0.0415 -0.1037
36545W        W45345   2.824   3.229  30.441  0.1299 -0.1223 -0.0112
36546W        W45346  10.483   3.308  23.955 -0.1665  0.0941 -0.0858
36547W        W45347  11.475   0.754  29.167 -0.0340 -0.2886  0.0500
36548W        W45348  16.607   2.980   8.299  0.3893 -0.0296  0.1225
36549W        W45349  12.496   0.555   6.952 -0.0769 -0.0019 -0.1286
36550W        W45350  13.391   1.364   3.656  0.1806 -0.0439 -0.4303
36551W        W45351   2.949   3.061   2.101  0.0682 -0.1983  0.1480
36552W        W45352  15.330   1.127  28.412 -0.1213 -0.0504 -0.0678
36553W        W45353   3.392   6.547  24.021 -0.0553 -0.2290 -0.3031
36554W        W45354   3.758   3.297   9.569 -0.0841  0.2212 -0.0902
36555W        W45355  26.431   0.651  12.643  0.1932 -0.1067 -0.3249
36556W        W45356  21.875   3.618   7.565 -0.0929  0.2037  0.1605
36557W        W45357  22.504   0.833  33.545  0.2413  0.1027 -0.0267
36558W        W45358  19.571   5.941  21.995 -0.1987 -0.1365 -0.2842
36559W        W45359  11.168   4.124  13.892  0.3571  0.1241  0.0569
36560W        W45360  23.189   1.993  15.016 -0.1318  0.0011 -0.1533
36561W        W45361   7.623   1.932  33.516  0.0464 -0.1894  0.0468
36562W        W45362  11.384   4.857  12.755 -0.2114 -0.0769 -0.0608
36563W        W45363  14.355   5.021  29.174 -0.1771 -0.1546  0.0080
36564W        W45364  10.621   2.572  22.259 -0.0538 -0.3515  0.1717
36565W        W45365  17.494   3.092   7.994 -0.4694  0.1482 -0.2101
36566W        W45366  14.069   2.938   6.202 -0.0509  0.0217  0.3859
36567W        W45367   9.483   6.048   3.343  0.3471  0.1074  0.0888
36568W        W45368  24.127   6.104  32.011  0.2957  0.2459 -0.1300
36569W        W45369  15.311   6.215  34.049  0.1950  0.2945  0.0178
36570W        W45370  10.598   3.942  12.029  0.1966 -0.1820 -0.2720
36571W        W45371  18.967   5.956  25.038 -0.1068  0.0786 -0.0764
36572W        W45372  10.874   0.611  36.023  0.0342 -0.2012  0.2863
36573W        W45373  11.830   3.825   0.319  0.1070  0.1304 -0.0882
36574W        W45374  23.250   4.742  28.330  0.1874 -0.2429  0.2515
36575W        W45375  20.558   5.344  34.588 -0.1594 -0.1933  0.2076
36576W        W45376   0.424   3.355  22.070 -0.1520 -0.0888  0.0809
36577W        W45377  24.437   6.440  19.821  0.0440  0.1338 -0.1101
36578W        W45378  14.874   4.562   9.518  0.0975  0.0906 -0.0310
36579W        W45379   8.574   5.427  35.742 -0.1218  0.0521 -0.1637
36580W        W45380  17.957   3.352  29.266  0.0463  0.0502 -0.0805
36581W        W45381  15.314   4.784  11.711  0.2714  0.0390  0.2556
36582W        W45382  21.586   4.813   9.986 -0.2884  0.0089  0.1881
36583W        W45383   3.465   3.502  29.511 -0.2973 -0.0756  0.0710
36584W        W45384  10.978   1.992  24.598  0.3363 -0.1657 -0.0491
36585W        W45385  11.120   3.410  21.588 -0.3162 -0.1504  0.1324
36586W        W45386   0.508   4.686   2.110 -0.3680 -0.1360  0.0057
36587W        W45387  24.906   6.318  28.151 -0.0233 -0.1232 -0.0001
36588W        W45388   1.931   4.030   6.186 -0.0065  0.1731  0.1429
36589W        W45389   4.039   6.242  32.655 -0.5209 -0.1963  0.1512
36590W        W45390   7.693   2.090  24.685  0.3668 -0.2172 -0.1052
36591W        W45391  22.353   0.570  23.625  0.4389  0.0259  0.1731
36592W        W45392  11.817   6.536   5.988 -0.0352 -0.1527 -0.1355
36593W        W45393  24.465   4.229  11.533  0.0781 -0.1465  0.0458
36594W        W45394  18.201   5.174  22.746 -0.1798  0.2202 -0.1614
36595W        W45395   3.897   3.606  28.757 -0.1249  0.0336 -0.0698
36596W        W45396   7.556   4.652  33.131  0.0827 -0.2580  0.1653
36597W        W45397   4.390   2.571  34.756 -0.0451  0.1540  0.0020
36598W        W45398   7.315   2.025  20.672  0.0786  0.2164 -0.4005
36599W        W45399  21.534   2.255  30.266 -0.1948  0.0850 -0.4401
36600W        W45400   3.045   3.998  10.452  0.3191 -0.0243  0.0072
36601W        W45401  17.754   6.455  21.585 -0.1577 -0.0075  0.2342
36602W        W45402  13.095   5.458  22.788 -0.1562 -0.3711  0.0609
36603W        W45403   1.755   3.420  13.857 -0.2507  0.3388  0.2516
36604W        W45404  12.308   0.599   2.560  0.0438 -0.2111  0.0358
36605W        W45405  16.673   1.640  21.661 -0.0050  0.0741 -0.0674
36606W        W45406  20.257   0.280  28.195  0.0181 -0.0381  0.2007
36607W        W45407  26.288   0.995  13.516 -0.2160  0.0971 -0.0246
36608W        W45408  22.916   5.347  31.808  0.1311 -0.1640  0.1633
36609W        W45409  26.074   5.945   0.284 -0.0919  0.1553 -0.0965
36610W        W45410   5.492   6.562  23.609  0.0865 -0.0263  0.0475
36611W        W45411  20.803   0.567  26.407  0.3286 -0.0763 -0.1071
36612W        W45412   5.837   1.323  28.054 -0.4025 -0.1907  0.1888
36613W        W45413  15.064   5.338   4.947  0.0472  0.0841 -0.2574
36614W        W45414  10.011   2.941  25.689  0.0400  0.2932 -0.0672
36615W        W45415  11.635   6.520   1.928 -0.1043 -0.0240 -0.0899
36616W        W45416  18.444   2.821  12.095 -0.0789 -0.4275 -0.0772
36617W        W45417   3.075   4.005   8.621 -0.0345 -0.1935 -0.1642
36618W        W45418   9.277   5.940  10.024  0.1474  0.1288  0.1505
36619W        W45419  14.931   4.265   2.938  0.4787 -0.2216 -0.2245
36620W        W45420   4.246   4.671   7.627 -0.2965  0.1470 -0.2963
36621W        W45421  22.927   2.425   5.920 -0.3728 -0.0132 -0.0371
36622W        W45422  24.394   1.580  14.579  0.0361  0.1878 -0.0322
36623W        W45423   9.714   1.965   5.417 -0.0763  0.2859 -0.1736
36624W        W45424  18.015   4.567  14.317 -0.3760 -0.1199  0.1836
36625W        W45425  24.405   4.920   1.799  0.2196 -0.0858  0.0097
36626W        W45426  18.147   3.369  25.447 -0.1440 -0.1872 -0.4574
36627W        W45427   6.656   2.919   8.006  0.1532 -0.1966  0.0361
36628W        W45428  18.192   2.785  32.395  0.1337 -0.0981  0.0748
36629W        W45429  20.309   6.151   5.445  0.2526 -0.0445 -0.0927
36630W        W45430   2.544   3.092  10.184 -0.0408 -0.2893  0.0447
36631W        W45431  11.495   0.354  28.822  0.0398  0.0201 -0.1364
36632W        W45432  22.208   2.310  11.865  0.2114 -0.1196 -0.0493
36633W        W45433  17.428   5.515  33.153  0.0262  0.2713 -0.1633
36634W        W45434  22.815   0.460  23.560  0.2518 -0.0597 -0.0270
36635W        W45435  16.324   3.742   1.151 -0.2706  0.2325  0.1770
36636W        W45436   4.966   4.902  23.157  0.1620  0.0141 -0.1468
36637W        W45437  10.608   2.901  23.664 -0.2503  0.0620  0.0186
36638W        W45438   2.146   2.154  10.022 -0.1279  0.0173 -0.0187
36639W        W45439  25.433   2.935   5.920 -0.2046  0.2513  0.0444
36640W        W45440  10.350   1.903  29.610 -0.0289  0.2480 -0.1635
36641W        W45441   1.318   3.143  31.261  0.2023  0.3194  0.0737
36642W        W45442  10.648   3.801  23.086 -0.1765  0.2502  0.0075
36643W        W45443  10.362   5.793  25.614  0.0372 -0.2487 -0.1142
36644W        W45444   1.725   3.849   4.543 -0.2031  0.0938  0.0708
36645W        W45445  24.094   3.128  13.147 -0.1797 -0.1450 -0.0946
36646W        W45446   2.350   2.487   8.309  0.0231  0.1255 -0.0039
36647W        W45447  26.073   2.985  11.761 -0.1369  0.0563 -0.0901
36648W        W45448   3.345   0.352  35.618 -0.1951 -0.3671  0.2578
36649W        W45449  25.780   0.087  13.860 -0.0794 -0.0978 -0.2565
36650W        W45450   1.044   4.892  21.526  0.3385 -0.1550 -0.0133
36651W        W45451  26.282   3.153   8.331 -0.0884  0.0862  0.1810
36652W        W45452   7.304   5.100  32.221  0.1149  0.0718 -0.0242
36653W        W45453  16.487   5.176  32.338 -0.1397  0.2215  0.3052
36654W        W45454   2.307   4.563   6.321  0.3251  0.1457  0.0384
36655W        W45455   0.711   0.765  34.321 -0.1415 -0.0967  0.1385
36656W        W45456   7.825   1.778  30.654 -0.2345 -0.0397  0.3310
36657W        W45457   2.900   3.791  27.354  0.0866 -0.1141 -0.0599
36658W        W45458  18.496   0.850  27.653  0.3811 -0.1337 -0.0562
36659W        W45459  15.866   1.641  13.295 -0.0161 -0.1052 -0.0055
36660W        W45460   6.418   3.102  23.502 -0.0969 -0.1589 -0.1880
36661W        W45461   4.019   0.991  24.594 -0.1588  0.0427  0.0341
36662W        W45462  10.172   5.861  34.541  0.0040 -0.1347 -0.1718
36663W        W45463  25.081   3.049   3.496 -0.1498 -0.0386 -0.1657
36664W        W45464   9.799   2.888  13.740 -0.1488 -0.3826  0.2054
36665W        W45465   4.842   5.668  25.663  0.0385 -0.0497  0.0989
36666W        W45466  14.082   1.717  32.764  0.1293 -0.0743 -0.1482
36667W        W45467   9.638   0.146   3.480 -0.0817  0.2590  0.0495
36668W        W45468  19.085   3.372  20.544 -0.2104 -0.1969 -0.2019
36669W        W45469  22.594   2.582  22.313 -0.1553  0.0015 -0.0339
36670W        W45470  24.283   1.074  25.171  0.2520  0.2438 -0.2694
36671W        W45471  24.542   1.820   4.710  0.0196  0.0007  0.1584
36672W        W45472  18.751   5.438  25.247  0.0922 -0.1712  0.0290
36673W        W45473  10.957   6.457  31.029  0.1357 -0.3022  0.0499
36674W        W45474  12.129   3.852  27.059  0.0089 -0.0082  0.1538
36675W        W45475   2.928   2.700  33.274 -0.1325  0.1734  0.0012
36676W        W45476  12.532   0.306  22.400  0.1920 -0.1634  0.0162
36677W        W45477   6.253   6.395  26.235 -0.1922 -0.1232  0.2108
36678W        W45478  10.523   6.410  12.459  0.0247 -0.1719  0.0281
36679W        W45479   6.395   6.230  33.348  0.1748  0.1602  0.2002
36680W        W45480   1.668   0.018  29.376  0.1410 -0.1826 -0.0091
36681W        W45481  24.697   3.727  21.691  0.0230 -0.1272  0.0301
36682W        W45482  23.530   5.517  27.071  0.1581  0.1461 -0.1712
36683W        W45483  13.845   4.204   4.611  0.0620  0.1528  0.0631
36684W        W45484  19.691   5.459   4.368 -0.2106 -0.0592  0.0666
36685W        W45485  20.911   1.386  33.073  0.4184  0.0093 -0.0617
36686W        W45486   5.843   1.537  22.797  0.0559 -0.0209 -0.0691
36687W        W45487  13.488   4.857  10.205  0.3569 -0.0548  0.0129
36688W        W45488   8.675   5.907  32.411 -0.3779  0.2571  0.3215
36689W        W45489   3.440   1.291  10.303 -0.0153  0.2054 -0.0846
36690W        W45490   2.871   5.298  31.745 -0.1588 -0.3448  0.2123
36691W        W45491  26.004   4.341  12.337  0.1216 -0.3752 -0.1115
36692W        W45492  15.329   3.342   5.600 -0.0939  0.0370  0.1134
36693W        W45493  23.474   0.729  32.817 -0.0446 -0.4367 -0.0674
36694W        W45494  20.868   5.067  29.163 -0.2228 -0.1401  0.2059
36695W        W45495  25.203   2.709   4.276 -0.0665  0.1138  0.2864
36696W        W45496  24.935   6.021  21.308 -0.2478  0.0138  0.0892
36697W        W45497  15.660   2.438  21.469  0.0641  0.2915 -0.2354
36698W        W45498  19.690   0.969   1.681 -0.0166  0.1507 -0.0951
36699W        W45499  12.705   3.994  13.028  0.1786 -0.1965 -0.0620
36700W        W45500  14.147   3.858  23.075 -0.0606  0.0699  0.1159
36701W        W45501  13.576   0.110  11.626 -0.1656 -0.1691 -0.1068
36702W        W45502   2.874   5.375   3.404 -0.0091 -0.0212  0.1702
36703W        W45503  25.642   5.425  23.842  0.2129 -0.0466  0.1834
36704W        W45504  20.039   0.362  35.930 -0.2559  0.2588 -0.0601
36705W        W45505  23.175   4.534  13.569 -0.3300  0.0190 -0.2518
36706W        W45506  16.887   5.084  32.022  0.1488 -0.0600  0.1841
36707W        W45507  21.054   1.868  12.282  0.0603 -0.0353  0.1148
36708W        W45508  18.458   2.879  22.775  0.4346 -0.4142 -0.0292
36709W        W45509   6.573   0.432  30.871  0.0175  0.1641 -0.0566
36710W        W45510  10.037   0.471  27.061  0.5125  0.1207  0.2243
36711W        W45511  26.406   2.131   1.902  0.3478  0.1166  0.2835
36712W        W45512  20.408   0.338  20.652  0.0146 -0.1475  0.3287
36713W        W45513  14.604   3.093  28.272 -0.0049  0.3054  0.1517
36714W        W45514   3.164   0.287  35.041 -0.0220  0.2933  0.0717
36715W        W45515   8.134   2.746  23.856 -0.1828  0.0752  0.1695
36716W        W45516   3.184   1.102  32.259  0.0516 -0.1598  0.0404
36717W        W45517   0.256   3.727  32.237  0.0336  0.2124  0.1135
36718W        W45518  16.635   3.574  28.921 -0.2606  0.3850  0.0979
36719W        W45519   4.539   4.012  31.779  0.0396 -0.0490 -0.1273
36720W        W45520   4.860   3.020  21.753 -0.1328  0.1149 -0.1709
36721W        W45521  10.946   0.376  24.487  0.3879  0.0277  0.0616
36722W        W45522   9.751   3.113   8.136  0.3945  0.0502  0.0613
36723W        W45523  17.769   4.061  30.569 -0.1605  0.1193 -0.0255
36724W        W45524  25.743   3.279  26.289  0.0597  0.2510  0.1248
36725W        W45525   9.444   5.207  33.905 -0.0092  0.1198 -0.1901
36726W        W45526  24.220   4.994  21.490  0.1064 -0.0417  0.0853
36727W        W45527   7.920   0.665   7.471  0.1553  0.1495 -0.2180
36728W        W45528   8.886   5.251  25.371  0.2866  0.1186 -0.0285
36729W        W45529  20.754   2.965  34.778  0.0350  0.0486  0.0789
36730W        W45530   5.887   0.733   6.088  0.1032 -0.4160  0.0528
36731W        W45531   2.577   4.530  35.576 -0.1950  0.2585  0.0129
36732W        W45532   5.919   6.360  11.508 -0.0656 -0.1520  0.1845
36733W        W45533  17.081   4.420  26.903  0.0488  0.1926  0.0221
36734W        W45534   6.926   2.769  12.631  0.2139  0.0975 -0.3161
36735W        W45535   5.036   6.534  34.988  0.1994 -0.0947 -0.1680
36736W        W45536   2.558   0.279  22.601 -0.2651 -0.0581 -0.1268
36737W        W45537  13.168   6.406   7.550 -0.1219 -0.0160  0.0159
36738W        W45538   4.983   2.533  21.672 -0.1709 -0.2932  0.1022
36739W        W45539  21.010   0.282  28.394  0.0200  0.0197  0.0468
36740W        W45540  18.049   4.457   1.065  0.2555 -0.2162  0.0899
36741W        W45541  17.085   3.293  24.802 -0.1362  0.2416 -0.0397
36742W        W45542  13.860   2.417   7.320  0.2807  0.0240  0.0001
36743W        W45543  12.935   2.277  35.016  0.0326  0.0635  0.0494
36744W        W45544   2.677   0.965  34.624  0.0907 -0.2004  0.1751
36745W        W45545  19.041   3.360  23.260  0.1460 -0.0131 -0.1043
36746W        W45546  23.957   2.875  21.048 -0.0003  0.4112  0.1223
36747W        W45547   9.487   6.451   1.360  0.0048  0.1833 -0.1999
36748W        W45548   9.132   6.261  32.426 -0.0714 -0.0496  0.2208
36749W        W45549  26.023   5.565  26.776  0.0548 -0.1356 -0.0738
36750W        W45550   9.805   4.581  10.540 -0.0490 -0.0086  0.1144
36751W        W45551  19.508   0.803  24.725  0.1212 -0.1275 -0.0445
36752W        W45552  24.042   3.709   4.812 -0.0707  0.0856  0.1595
36753W        W45553  17.104   4.973  11.360 -0.2071 -0.0249  0.1840
36754W        W45554   8.064   5.613  22.534 -0.0874 -0.1197 -0.0865
36755W        W45555   3.100   2.442   7.795 -0.3996 -0.2685  0.0598
36756W        W45556  20.036   2.315  19.968 -0.1708  0.1104 -0.1044
36757W        W45557  22.469   0.227   1.999 -0.0303 -0.0855  0.1494
36758W        W45558  18.365   2.852   3.343 -0.2393  0.0109 -0.1725
36759W        W45559  19.394   5.888   6.443 -0.0247  0.1643  0.1174
36760W        W45560  26.231   4.708   3.621  0.0568  0.0633 -0.4723
36761W        W45561  20.358   4.409  25.248  0.1524 -0.0810 -0.1386
36762W        W45562   8.163   1.578  23.861  0.2181 -0.3635 -0.0599
36763W        W45563  25.078   4.823  12.683  0.0771  0.0322 -0.0003
36764W        W45564   6.206   5.662   9.395 -0.1623  0.1839 -0.0324
36765W        W45565  25.045   5.038  13.979 -0.3172 -0.0102 -0.2816
36766W        W45566  20.128   4.125   3.561  0.2529  0.2272  0.0568
36767W        W45567   7.869   3.947   1.035 -0.2057  0.2501  0.2044
36768W        W45568  16.548   1.887  33.584 -0.1155  0.1278  0.2933
36769W        W45569  20.742   4.376  13.401 -0.3424  0.3064  0.0059
36770W        W45570  16.226   5.426  25.579  0.0195  0.1735  0.3025
36771W        W45571   9.237   2.012   0.557  0.0520  0.6068  0.0280
36772W        W45572   8.122   4.323  35.474 -0.1947  0.1920 -0.0916
36773W        W45573  24.958   4.675  29.064  0.1868 -0.3934 -0.1456
36774W        W45574  24.425   2.584   5.884  0.0907 -0.0321  0.1679
36775W        W45575  20.229   5.524   6.779  0.0860  0.2534  0.0376
36776W        W45576  10.209   5.143  15.934  0.0501  0.1983 -0.1457
36777W        W45577  13.541   2.916   4.935 -0.2657 -0.1843 -0.0449
36778W        W45578  17.705   5.372   6.429  0.1884 -0.0798 -0.0107
36779W        W45579   1.372   0.988  20.325  0.1875 -0.1423  0.0403
36780W        W45580  20.429   3.114  36.170  0.1256  0.1445 -0.0411
36781W        W45581  15.598   1.193  13.264 -0.2817 -0.0420  0.2142
36782W        W45582   1.053   2.092  23.900 -0.0121 -0.0458  0.2727
36783W        W45583  25.023   5.571  20.676  0.4459  0.3413 -0.2830
36784W        W45584  26.405   5.671   7.048  0.3110  0.0878  0.2219
36785W        W45585  23.309   1.610  34.771 -0.1724 -0.0173  0.1322
36786W        W45586  17.635   0.904  32.063 -0.0104  0.0606  0.0944
36787W        W45587  19.449   4.679  13.479  0.1967  0.0456 -0.2383
36788W        W45588   0.084   5.882   6.195  0.1751 -0.3673  0.1211
36789W        W45589  23.246   5.453   5.713  0.5219 -0.0103 -0.0883
36790W        W45590  25.191   2.290  35.724 -0.1621 -0.4909  0.1329
36791W        W45591   6.682   4.713  14.217 -0.3082  0.0114  0.0172
36792W        W45592  11.637   3.033  14.017 -0.0463 -0.1094  0.2031
36793W        W45593   7.308   4.900  25.759  0.3805  0.3060 -0.0928
36794W        W45594  15.701   5.989  24.346  0.4737 -0.0458  0.2288
36795W        W45595  19.273   5.278  15.392  0.2188  0.0661  0.3918
36796W        W45596   4.534   1.679  22.436  0.3088  0.0436 -0.0476
36797W        W45597  12.651   1.026   8.410 -0.2118 -0.0002 -0.1151
36798W        W45598  22.235   1.730  30.906 -0.1604  0.0722  0.2159
36799W        W45599   4.009   4.957  29.218 -0.1007 -0.2692 -0.4220
36800W        W45600  15.740   4.527  10.779  0.2445 -0.0854  0.1544
36801W        W45601   8.211   2.131   0.546 -0.0784  0.0526  0.0997
36802W        W45602  22.534   3.647  24.011 -0.1714 -0.3557  0.1226
36803W        W45603  25.793   0.908  22.473 -0.1073  0.0226  0.1447
36804W        W45604  21.212   3.263  31.146  0.2270  0.0563 -0.1314
36805W        W45605  23.731   3.579  11.967 -0.0444  0.0788  0.0595
36806W        W45606  15.596   4.050   9.147 -0.1240  0.3718  0.0332
36807W        W45607   3.322   5.515  27.253 -0.2144  0.0125 -0.1612
36808W        W45608   3.279   2.181   2.967  0.0948 -0.2033  0.0395
36809W        W45609   7.351   2.189  11.920  0.1317  0.0156  0.0145
36810W        W45610  16.257   2.942  22.074  0.1215 -0.3439  0.0620
36811W        W45611  12.338   4.485   0.924 -0.2040  0.0496 -0.1798
36812W        W45612  24.224   3.339  34.550  0.0748 -0.1622 -0.0199
36813W        W45613  26.004   0.273   7.252  0.1756 -0.3284  0.0487
36814W        W45614  19.380   4.440   4.041 -0.2444  0.3080 -0.0287
36815W        W45615  19.146   2.322  21.232  0.1132 -0.1085  0.0279
36816W        W45616   1.218   5.143   6.166 -0.0348 -0.1454  0.3006
36817W        W45617   9.329   3.177  31.139 -0.0267  0.1987  0.2866
36818W        W45618  17.834   0.308  35.794  0.1008  0.1606 -0.1357
36819W        W45619  25.761   1.424  29.180 -0.2134  0.0283  0.0867
36820W        W45620  24.664   2.421  22.333  0.1353 -0.0991 -0.2415
36821W        W45621  23.541   1.943   7.025 -0.0409 -0.0633  0.0936
36822W        W45622   9.097   0.981   6.205 -0.0065  0.2394 -0.0281
36823W        W45623   2.210   5.644  14.116  0.2364 -0.0867  0.3361
36824W        W45624   6.743   5.692   6.404 -0.3863  0.3628 -0.0924
36825W        W45625   6.284   0.363  12.580  0.1323 -0.1749 -0.0745
36826W        W45626  22.347   4.892  25.988  0.0970  0.0357  0.0678
36827W        W45627  13.612   6.482  23.976  0.0277  0.2430 -0.0717
36828W        W45628   5.458   4.257   0.812 -0.1174 -0.0576  0.0770
36829W        W45629  13.859   1.473  27.808 -0.0670  0.1501 -0.0263
36830W        W45630  13.757   5.661   7.846 -0.2665 -0.1249  0.1708
36831W        W45631  16.467   2.688   9.135 -0.2117 -0.4147 -0.0383
36832W        W45632  22.341   6.094  32.146 -0.0634  0.1686 -0.1181
36833W        W45633  19.127   3.482  33.407  0.1791  0.1502 -0.1318
36834W        W45634   5.011   2.396  11.139 -0.0399 -0.1427  0.0954
36835W        W45635   9.388   0.972   1.631 -0.1057  0.1882 -0.0144
36836W        W45636  11.560   3.751   8.952 -0.0868 -0.2398  0.2597
36837W        W45637   6.937   3.917  23.724 -0.0600 -0.0205  0.0997
36838W        W45638   9.001   5.425  21.651  0.0405 -0.0476 -0.1526
36839W        W45639  19.770   1.190  32.046  0.1407  0.0896  0.1649
36840W        W45640  23.268   1.402  29.569  0.0568 -0.0871  0.0710
36841W        W45641  24.185   0.712   5.114  0.0194 -0.1684 -0.0689
36842W        W45642  10.520   3.222  20.986  0.1448  0.2453  0.0742
36843W        W45643  14.948   1.387  31.957  0.2278  0.0985 -0.2597
36844W        W45644  14.608   2.804  23.317  0.0467  0.0577 -0.1557
36845W        W45645  16.682   2.828   2.390  0.0176 -0.0709 -0.2030
36846W        W45646  19.146   0.431   1.066 -0.1840 -0.1615  0.0336
36847W        W45647  13.999   3.158  33.276 -0.3968  0.1379  0.1293
36848W        W45648   5.547   0.961   3.195 -0.1825  0.1882 -0.1699
36849W        W45649   5.122   2.075  30.261  0.0648 -0.0916  0.0954
36850W        W45650  14.165   4.507  32.526 -0.2566  0.0961 -0.0952
36851W        W45651  12.866   1.413  20.660  0.0388  0.2535 -0.0908
36852W        W45652  25.097   4.221  24.119 -0.1813  0.0979  0.0023
36853W        W45653  24.286   0.375  32.941 -0.0151  0.0139 -0.1626
36854W        W45654  12.449   2.567  14.546 -0.1496  0.0984 -0.2872
36855W        W45655  24.073   3.002   3.296  0.0029  0.1461  0.0288
36856W        W45656  10.322   4.974  33.683 -0.3760 -0.2188  0.0334
36857W        W45657  16.745   1.883  15.583 -0.0591  0.1489  0.1856
36858W        W45658   1.665   3.460  15.630  0.0673 -0.0763  0.1175
36859W        W45659  12.223   0.128  21.039  0.2714  0.3518  0.0491
36860W        W45660   3.795   2.307   0.611  0.0942  0.2322  0.1553
36861W        W45661  13.705   5.725  27.615 -0.0140  0.1388  0.1177
36862W        W45662  24.895   3.891  12.697 -0.1561 -0.1591 -0.3606
36863W        W45663   5.529   3.145  23.572 -0.0017 -0.0793 -0.0857
36864W        W45664  14.916   2.515  13.881  0.0978  0.0284  0.0175
36865W        W45665  22.977   5.773  21.431 -0.2650  0.1304 -0.0481
36866W        W45666   1.128   0.071  27.391  0.1840 -0.0805 -0.1439
36867W        W45667  22.694   1.931   8.212  0.0406  0.2562 -0.0574
36868W        W45668  20.117   2.042  22.220  0.2227  0.1517 -0.0190
36869W        W45669  11.340   0.217   6.132  0.1320 -0.0278 -0.2177
36870W        W45670   5.233   4.982   0.986 -0.1507 -0.0284 -0.3589
36871W        W45671  11.575   5.124   8.265 -0.0363 -0.0700 -0.0691
36872W        W45672  24.524   1.333  23.208 -0.2339 -0.1457  0.0085
36873W        W45673  18.165   5.941  26.584  0.0208 -0.0738 -0.0514
36874W        W45674  23.197   4.919  32.505  0.0938 -0.0457 -0.1719
36875W        W45675  23.126   3.087  11.291  0.0782  0.1091 -0.0795
36876W        W45676  25.604   2.450   9.765  0.1266 -0.0637 -0.1190
36877W        W45677   0.060   4.274  34.496  0.0042  0.0787  0.0498
36878W        W45678   5.398   3.038  33.393 -0.0485  0.0962  0.3251
36879W        W45679   4.774   2.080   5.769  0.2138 -0.2150  0.0869
36880W        W45680   0.426   0.754  32.166  0.2809 -0.0503  0.3681
36881W        W45681   0.193   1.800  26.378 -0.0698  0.0489  0.0514
36882W        W45682   9.689   4.209   6.192  0.1272 -0.1158 -0.1728
36883W        W45683   0.091   4.652  24.307  0.1788 -0.1158  0.1159
36884W        W45684  23.724   2.542  20.662  0.2406  0.2750 -0.1323
36885W        W45685   8.350   2.800   0.379 -0.0035  0.0395  0.2974
36886W        W45686  22.434   5.139  31.700 -0.1048 -0.0497  0.0496
36887W        W45687  10.877   3.811  11.599 -0.1475  0.1250 -0.1245
36888W        W45688   6.022   3.267  31.127  0.4269 -0.0023 -0.1660
36889W        W45689  13.260   6.130  14.374 -0.0716 -0.0781 -0.4227
36890W        W45690  10.576   2.162   4.540 -0.1459 -0.1664 -0.1527
36891W        W45691   8.064   4.981  21.478  0.1736  0.0697 -0.2531
36892W        W45692   2.672   3.790  34.505  0.0213  0.1075  0.0021
36893W        W45693  11.979   3.405  11.028  0.0613  0.0659 -0.1393
36894W        W45694  14.827   0.608  29.144 -0.0172  0.0502  0.0466
36895W        W45695   2.762   2.819  13.005 -0.0740  0.0063  0.1470
36896W        W45696   4.490   0.837  12.985  0.0078  0.2319 -0.4478
36897W        W45697  26.343   6.169  33.409  0.1371 -0.1527 -0.3792
36898W        W45698  18.120   2.269   1.428  0.1494 -0.1632 -0.1101
36899W        W45699  19.927   1.339  13.038 -0.1834 -0.0229 -0.3037
36900W        W45700  22.827   4.802   5.677 -0.2038 -0.3574 -0.0556
36901W        W45701   8.683   0.245   5.010 -0.2930  0.0456 -0.1143
36902W        W45702   3.012   4.699   5.699  0.0948  0.3385 -0.1098
36903W        W45703   5.162   4.457  35.886  0.2964 -0.0102  0.2677
36904W        W45704  22.300   1.773   1.043  0.1666 -0.0509  0.2650
36905W        W45705  24.185   4.612  12.629  0.0086 -0.5698  0.2415
36906W        W45706  10.088   1.901   7.610  0.0103  0.0238 -0.1318
36907W        W45707  18.045   3.149  35.104  0.1624  0.1838  0.1658
36908W        W45708  20.820   4.459  21.219  0.0511  0.0105  0.0846
36909W        W45709  19.392   6.381  10.707  0.0006 -0.0951  0.1341
36910W        W45710  25.144   1.186  34.084  0.0845  0.2358  0.0295
36911W        W45711  11.301   5.922  35.461  0.0109 -0.0837  0.2270
36912W        W45712  13.962   6.422  28.772  0.0188  0.0169  0.0142
36913W        W45713  13.014   6.453  32.845  0.1229  0.3723 -0.1350
36914W        W45714   6.077   3.264  11.379 -0.0156  0.0327  0.1393
36915W        W45715   7.034   4.266   2.122  0.0430  0.3868 -0.2571
36916W        W45716   7.118   5.271  31.608 -0.0474 -0.1475 -0.0758
36917W        W45717  25.852   1.746  27.585  0.0839  0.0043 -0.1203
36918W        W45718  11.452   6.406  35.307  0.2267  0.1433 -0.2085
36919W        W45719   7.750   5.869  31.036  0.0735  0.0344  0.1784
36920W        W45720   1.261   6.438  12.264 -0.1157  0.1783  0.1252
36921W        W45721  20.526   4.386   3.365  0.0188  0.3273  0.2644
36922W        W45722   6.353   5.313   8.069  0.2223  0.2572  0.1733
36923W        W45723   5.410   2.094  10.344 -0.0238  0.0864  0.0030
36924W        W45724  20.756   6.395  23.725 -0.0328  0.0560  0.2702
36925W        W45725   5.109   2.342  33.111  0.3269  0.2470 -0.2524
36926W        W45726  18.125   3.653  13.988 -0.1260  0.0380  0.0722
36927W        W45727  25.773   0.294   9.458  0.0023  0.0066  0.1774
36928W        W45728   2.433   1.390  11.208 -0.1013 -0.0221 -0.0177
36929W        W45729   4.037   1.671  22.263 -0.1256 -0.3023 -0.2420
36930W        W45730   9.809   5.493  34.236 -0.1569 -0.3959  0.0350
36931W        W45731  25.365   4.050   7.974  0.0429  0.1612 -0.3074
36932W        W45732   7.228   3.069  35.258  0.0669 -0.4438 -0.3416
36933W        W45733  16.987   1.708  28.773  0.3114 -0.2272 -0.1093
36934W        W45734   0.063   2.646  28.453  0.2180  0.2036 -0.0548
36935W        W45735  21.112   4.237   1.138 -0.1205 -0.0126 -0.2408
36936W        W45736  20.011   5.453  34.249  0.0153 -0.1185  0.0765
36937W        W45737   0.961   2.807   0.928  0.0309 -0.1957  0.2969
36938W        W45738   1.619   6.287   4.497 -0.1504  0.2103  0.1501
36939W        W45739  13.681   3.826  36.037  0.0290 -0.2961  0.0594
36940W        W45740  13.340   0.360  21.881  0.2079 -0.0659  0.3628
36941W        W45741   8.308   2.911   7.239  0.1538 -0.1213 -0.1141
36942W        W45742   6.110   0.010  20.885 -0.1844 -0.1347 -0.0876
36943W        W45743  12.269   1.516  23.392 -0.1137  0.0036  0.0690
36944W        W45744   1.612   0.143  12.978 -0.0871  0.0501  0.0197
36945W        W45745   5.488   5.414  33.687 -0.3349 -0.2907  0.1450
36946W        W45746   4.348   5.707  21.851  0.0073 -0.1403  0.3077
36947W        W45747   9.639   4.930   9.136 -0.4492  0.0817 -0.4723
36948W        W45748  23.115   1.127   7.133 -0.3856 -0.0677  0.0674
36949W        W45749   5.541   2.934   1.746  0.1095 -0.0144 -0.3731
36950W        W45750  23.974   5.544  26.758  0.1553 -0.0468  0.2050
36951W        W45751   9.261   1.015  22.815  0.1795 -0.0610  0.0366
36952W        W45752  19.191   6.080   3.291  0.2287  0.1614  0.0249
36953W        W45753  23.638   5.623  25.583  0.2284 -0.2316  0.0999
36954W        W45754  23.976   0.102   4.347  0.0131 -0.1233  0.1292
36955W        W45755  23.065   1.645   2.720  0.4919  0.2775  0.2381
36956W        W45756  12.709   3.886  12.135 -0.2703 -0.1608  0.0763
36957W        W45757  12.651   2.692  26.397  0.3213  0.0025 -0.3922
36958W        W45758  15.377   0.641   8.344  0.0398 -0.0312 -0.0736
36959W        W45759  15.576   5.891  23.376 -0.0768 -0.2195 -0.3468
36960W        W45760  15.744   4.169   3.801 -0.3147  0.0304 -0.0429
36961W        W45761  13.922   3.660  34.008 -0.0430  0.4004 -0.0113
36962W        W45762   5.831   4.618  32.166  0.1140 -0.1436 -0.2653
36963W        W45763  18.736   0.561   4.201 -0.0941  0.0754 -0.1667
36964W        W45764  22.792   1.817   5.956  0.0520 -0.1854 -0.2305
36965W        W45765  14.702   5.339   7.125 -0.1494  0.2369 -0.1218
36966W        W45766   6.297   4.189   3.299 -0.0073 -0.0301  0.1285
36967W        W45767  16.698   3.071   9.841 -0.2787  0.0172  0.1660
36968W        W45768  10.482   6.187  32.316 -0.1260  0.2644  0.1054
36969W        W45769   5.507   2.342  24.187 -0.0608  0.0988  0.0529
36970W        W45770   0.316   5.379   0.154 -0.0229 -0.1539 -0.1969
36971W        W45771   3.572   1.819  24.777 -0.1401  0.2151  0.0797
36972W        W45772  24.921   1.586  23.413 -0.2895 -0.1636  0.0481
36973W        W45773   5.170   1.483   5.283 -0.0058 -0.1719 -0.3125
36974W        W45774  13.609   1.402  13.401  0.1554  0.1379  0.3404
36975W        W45775  24.814   4.234  29.308 -0.0327 -0.1240 -0.3982
36976W        W45776  16.573   0.897  23.098 -0.0420 -0.2906  0.1441
36977W        W45777  10.417   0.378   4.508 -0.1191 -0.1644 -0.0801
36978W        W45778   9.784   2.315   8.296 -0.1751 -0.2382  0.0092
36979W        W45779  17.997   2.341   3.864 -0.1201  0.2631  0.2056
36980W        W45780  18.508   3.699  31.245  0.1754 -0.1918 -0.1773
36981W        W45781   8.449   6.373  21.607 -0.3338  0.1259 -0.1907
36982W        W45782  21.863   2.733   9.037  0.3058 -0.2339 -0.0485
36983W        W45783  11.386   5.475  22.102  0.2356  0.1374  0.0580
36984W        W45784   5.068   3.410   8.718  0.0576  0.1364 -0.2014
36985W        W45785  22.144   6.011  36.177  0.0557 -0.1549  0.2143
36986W        W45786  17.216   4.472  14.794 -0.0045 -0.1717 -0.3177
36987W        W45787  26.284   4.357  30.042  0.1122  0.0076 -0.1736
36988W        W45788  23.072   2.424   4.720 -0.1678  0.2760  0.0385
36989W        W45789  10.905   4.726  11.970  0.0535 -0.0886 -0.0895
36990W        W45790   2.475   6.059  11.396  0.0779 -0.3676  0.0147
36991W        W45791  11.807   1.477   8.267 -0.0352  0.3359  0.2535
36992W        W45792   2.576   6.305   0.415  0.2377  0.0696 -0.1400
36993W        W45793   4.580   6.442  35.284  0.0583  0.0529 -0.3038
36994W        W45794  25.776   2.062  31.697 -0.0673  0.3359  0.2176
36995W        W45795  11.789   4.333  31.020  0.2653  0.2964  0.1341
36996W        W45796   1.711   2.716   3.202  0.0519  0.1528  0.0410
36997W        W45797   0.175   5.070  12.487 -0.0671  0.3805  0.0571
36998W        W45798   6.973   5.313  29.079 -0.1801 -0.0535  0.2131
36999W        W45799  18.111   2.481  30.942 -0.0757  0.3235 -0.4547
37000W        W45800  21.663   1.077  11.302  0.1622  0.0140  0.0138
37001W        W45801  22.106   4.273  13.308  0.0705 -0.2116 -0.1255
37002W        W45802   6.602   3.521   1.129 -0.2761 -0.0436  0.0567
37003W        W45803  17.132   2.114  10.799 -0.2800  0.2193  0.0410
37004W        W45804  20.797   3.034   9.077 -0.1365  0.2335 -0.0536
37005W        W45805  23.080   3.538   5.306 -0.2426  0.0852  0.1196
37006W        W45806  10.841   1.530  15.304 -0.0067  0.0440  0.0817
37007W        W45807  12.401   5.792  12.064 -0.1644 -0.1105  0.1677
37008W        W45808   1.702   3.572   8.758 -0.2352 -0.1531  0.3391
37009W        W45809   9.172   3.872   9.731 -0.0459  0.1181  0.0350
37010W        W45810  19.090   0.345  23.324 -0.1222  0.0063  0.0831
37011W        W45811  14.476   0.376   4.188 -0.3428 -0.1907  0.0069
37012W        W45812   0.651   5.652  12.408 -0.0528  0.2884  0.0425
37013W        W45813   2.680   6.272   4.728  0.2188  0.1719 -0.0330
37014W        W45814  21.584   4.135  11.835 -0.2358 -0.1024 -0.1895
37015W        W45815   7.975   1.106   8.121  0.2508  0.0238 -0.0491
37016W        W45816  12.181   3.119   3.826 -0.4158  0.1528  0.1573
37017W        W45817   7.491   2.362   5.833  0.0166  0.3665 -0.1245
37018W        W45818   4.559   3.864   3.294  0.1013  0.2703  0.1119
37019W        W45819  18.307   1.239  29.539 -0.3220 -0.0747  0.2477
37020W        W45820  21.912   1.908  14.347 -0.0048  0.0546 -0.1357
37021W        W45821   2.466   5.886  10.940  0.2722 -0.0195 -0.0812
37022W        W45822   8.133   1.576  32.881  0.0483 -0.0026  0.0842
37023W        W45823  13.645   4.545  25.391  0.1652 -0.0010  0.0698
37024W        W45824  12.898   4.914  33.013  0.1389 -0.0981  0.2632
37025W        W45825   6.564   5.862  30.154 -0.1172 -0.1524 -0.0010
37026W        W45826   7.251   0.158   9.815 -0.1392  0.1354  0.0377
37027W        W45827  14.874   3.518  32.019 -0.0143 -0.0077 -0.0773
37028W        W45828  14.347   1.224  15.552 -0.4305  0.2059 -0.1304
37029W        W45829  12.651   4.171  10.003 -0.3856  0.0834  0.2616
37030W        W45830   4.169   1.379  13.805  0.1139  0.0369  0.1143
37031W        W45831   0.463   1.132  10.907 -0.2426 -0.0028 -0.1257
37032W        W45832  23.605   3.022   8.570  0.3371 -0.0412 -0.2344
37033W        W45833  18.122   1.025  31.407 -0.3618  0.4986  0.0218
37034W        W45834  11.683   1.148  21.146  0.4265 -0.0548 -0.1419
37035W        W45835   8.355   6.507   4.744  0.4100 -0.0406  0.0744
37036W        W45836  21.625   0.434  34.925 -0.0878 -0.0568  0.0328
37037W        W45837  13.526   0.686  10.350 -0.0384  0.2695  0.1049
37038W        W45838  20.833   4.914   6.859 -0.0583 -0.3937  0.0654
37039W        W45839  15.811   3.355  13.310 -0.1224 -0.0076 -0.1645
37040W        W45840   5.696   3.149   4.140  0.1907 -0.0678 -0.1802
37041W        W45841  12.053   0.012   8.901 -0.1735 -0.2500  0.1441
37042W        W45842  12.019   6.234   1.714  0.2247  0.2070  0.3547
37043W        W45843  10.888   5.537   0.039 -0.1220  0.0012 -0.3249
37044W        W45844  24.068   3.372  21.213  0.3207 -0.0497  0.0581
37045W        W45845  23.389   0.162   9.209  0.2122 -0.1275 -0.0468
37046W        W45846  24.066   6.551  14.811  0.3258 -0.3562 -0.1286
37047W        W45847   8.227   3.526  32.020 -0.2030  0.0150 -0.0319
37048W        W45848  12.820   2.591  25.253  0.0672 -0.0479 -0.0525
37049W        W45849  14.069   4.766  15.150 -0.2229  0.0004 -0.1722
37050W        W45850  18.302   4.491  21.309  0.0064 -0.1644 -0.0168
37051W        W45851  14.664   1.017  26.571 -0.1982 -0.1743  0.4713
37052W        W45852   6.199   4.022   4.924 -0.1949  0.3507  0.0290
37053W        W45853  22.832   3.790  11.090  0.0339  0.2244 -0.1234
37054W        W45854  21.147   0.206   2.886  0.0436  0.1567  0.0705
37055W        W45855  14.356   2.737  24.177 -0.0449 -0.1479  0.3067
37056W        W45856  13.947   4.419  12.833 -0.1260  0.0647  0.1980
37057W        W45857  24.640   4.784   1.176  0.2199 -0.0451  0.1102
37058W        W45858  15.644   6.210   4.512 -0.2054 -0.2926  0.0631
37059W        W45859  12.667   0.860  22.741  0.4111  0.0353  0.2823
37060W        W45860  14.752   5.766   4.652 -0.1111 -0.0404 -0.1649
37061W        W45861  25.359   4.700   3.371  0.1023  0.1526 -0.1054
37062W        W45862  22.544   2.405   9.793 -0.4393 -0.2035  0.0186
37063W        W45863  23.821   4.165  21.967 -0.1385  0.1394 -0.1855
37064W        W45864  20.927   5.614  11.320  0.2044 -0.0816  0.1122
37065W        W45865   7.842   0.177   0.106  0.2581 -0.2656  0.2713
37066W        W45866  12.615   3.455   9.072  0.0134 -0.1238 -0.0710
37067W        W45867   3.417   2.395  13.009 -0.2715  0.2320 -0.2114
37068W        W45868   2.475   5.038  25.701  0.1919 -0.4313 -0.3141
37069W        W45869  15.158   2.029  30.949  0.1188  0.0507 -0.0698
37070W        W45870  15.577   4.435  21.740  0.2012 -0.2336 -0.0062
37071W        W45871   1.551   6.301  13.918  0.2106  0.4071 -0.1701
37072W        W45872   8.072   2.907  28.152  0.2311 -0.1660  0.1871
37073W        W45873   5.304   4.062  28.949  0.2251  0.0460 -0.2006
37074W        W45874  19.191   1.816   5.195 -0.1841 -0.0006 -0.2652
37075W        W45875  12.029   1.903  32.790  0.0171 -0.0546 -0.1435
37076W        W45876  14.352   6.164   2.325 -0.0786 -0.1980  0.2985
37077W        W45877  13.875   4.093   2.326 -0.3682 -0.1960  0.0020
37078W        W45878  25.252   2.889  31.669 -0.1780 -0.0326  0.0369
37079W        W45879   1.726   0.210   1.750  0.0459 -0.1272 -0.3046
37080W        W45880  20.457   4.269  23.317 -0.0535 -0.2440  0.0159
37081W        W45881   4.328   2.385  24.998  0.0154 -0.0796 -0.0716
37082W        W45882   5.030   3.849  22.905 -0.1763  0.1478 -0.3219
37083W        W45883  21.008   3.270   1.387  0.3358 -0.1699  0.0794
37084W        W45884  17.857   6.232  13.343  0.0313  0.0993  0.3395
37085W        W45885  20.115   2.163  13.936  0.5954 -0.3089 -0.0801
37086W        W45886   0.352   4.028  21.012  0.3200  0.0475  0.0716
37087W        W45887  23.469   4.382  10.795 -0.1851 -0.1366 -0.0013
37088W        W45888   4.226   5.167  15.151  0.2712  0.2237 -0.0802
37089W        W45889  16.858   0.902   8.923 -0.1553 -0.0329  0.0643
37090W        W45890  18.930   5.644  22.721  0.2533 -0.0336  0.0548
37091W        W45891  21.458   4.326  33.912 -0.0769 -0.1759 -0.2485
37092W        W45892   3.455   4.051  25.050 -0.1401  0.2457  0.1918
37093W        W45893  15.793   5.009  34.557 -0.0566 -0.0654  0.0624
37094W        W45894  20.751   1.820   8.290  0.2556 -0.0670 -0.2703
37095W        W45895  24.275   6.177  20.311  0.2328  0.0183  0.0809
37096W        W45896  16.991   5.272  13.986  0.5637 -0.1392 -0.0344
37097W        W45897   0.254   5.544  28.620 -0.1481  0.0806 -0.0577
37098W        W45898  15.452   5.393   9.331  0.1533  0.1170  0.0576
37099W        W45899  15.086   5.858  10.712  0.0672  0.3466 -0.2340
37100W        W45900  17.611   6.288   5.344 -0.2391 -0.0351 -0.1220
37101W        W45901  24.004   5.896  10.251  0.1788  0.1824 -0.1577
37102W        W45902   2.990   2.429  25.677 -0.0138  0.0667 -0.0476
37103W        W45903   0.411   5.248   5.399  0.0080  0.2697 -0.0534
37104W        W45904  25.632   3.119  27.433 -0.0466  0.1875  0.2839
37105W        W45905  19.684   5.896   7.597 -0.0421 -0.1649 -0.0198
37106W        W45906  18.242   1.914  14.519 -0.1592 -0.0986  0.2818
37107W        W45907   1.839   0.032   2.404  0.0424 -0.0403 -0.0604
37108W        W45908   6.818   3.410  14.666 -0.2467  0.1697 -0.2938
37109W        W45909  16.558   5.446  29.620  0.5559  0.0386 -0.0005
37110W        W45910   2.273   5.624  26.838 -0.0870  0.0418  0.0154
37111W        W45911   1.342   3.481   4.549  0.1733  0.2860 -0.0353
37112W        W45912  10.561   3.824  34.472 -0.0875  0.1223 -0.0975
37113W        W45913  13.174   3.114  30.354  0.2536 -0.2806 -0.2409
37114W        W45914  12.114   6.227  34.709 -0.3257 -0.2185 -0.1071
37115W        W45915  15.151   3.301  25.584  0.4409 -0.3306  0.0153
37116W        W45916  22.086   4.952  22.710 -0.1389 -0.0038 -0.1152
37117W        W45917  12.896   5.186   4.287 -0.1240  0.2224 -0.1721
37118W        W45918   4.015   1.294  22.618  0.1380 -0.1814  0.1537
37119W        W45919  20.330   0.663  32.575 -0.1392  0.1174 -0.1044
37120W        W45920  11.866   4.221   2.388 -0.2046 -0.2406  0.1115
37121W        W45921   9.458   4.006  25.355  0.1852 -0.1820  0.1389
37122W        W45922  13.422   1.779  14.552  0.0765 -0.1884 -0.3048
37123W        W45923   3.196   5.152   5.747  0.1160 -0.1128  0.2428
37124W        W45924  18.423   5.725   9.747  0.2338 -0.3806  0.1440
37125W        W45925   0.512   4.222   9.042 -0.0866  0.0085  0.0665
37126W        W45926  23.267   3.634  27.466  0.4157  0.0688 -0.2045
37127W        W45927  26.282   4.109   3.167  0.1783 -0.3316  0.1602
37128W        W45928  17.579   6.423   7.390 -0.0147  0.1201  0.1968
37129W        W45929   9.255   4.227   6.647 -0.4396  0.0650  0.1390
37130W        W45930  22.634   4.457   2.717 -0.1008 -0.1106  0.2330
37131W        W45931   2.568   0.105  28.600  0.0188  0.1389 -0.0606
37132W        W45932  17.298   5.421  10.547 -0.0621 -0.0993  0.0852
37133W        W45933   8.938   5.932  28.533 -0.2683 -0.0521  0.0192
37134W        W45934   1.597   0.025   6.766  0.0073 -0.0235  0.0615
37135W        W45935  20.839   3.172   6.650 -0.3788  0.2431  0.1069
37136W        W45936  22.388   6.106  23.287 -0.2593 -0.0135  0.1870
37137W        W45937   7.308   5.383   0.427  0.1881 -0.0208  0.1001
37138W        W45938   1.116   2.544  10.197 -0.2579  0.0668 -0.0662
37139W        W45939  15.859   2.307  28.117 -0.0515 -0.1395 -0.1477
37140W        W45940   3.427   3.071  31.492  0.4592 -0.1781 -0.2657
37141W        W45941   0.325   3.722  11.562  0.1650  0.0237 -0.1362
37142W        W45942  10.364   5.058  11.935 -0.0346 -0.0079  0.0163
37143W        W45943  16.059   6.541  12.801 -0.1511 -0.1445 -0.1384
37144W        W45944  20.164   2.013   3.051 -0.0422 -0.0541 -0.0132
37145W        W45945  18.254   0.669  28.392 -0.1127 -0.0426  0.0176
37146W        W45946   8.538   1.268  25.398 -0.0601 -0.3351  0.1506
37147W        W45947  19.989   4.787   5.569 -0.1903  0.0587 -0.1454
37148W        W45948  23.847   0.514   0.651 -0.0242 -0.0462 -0.2076
37149W        W45949  20.175   1.464  34.237 -0.2824 -0.1242 -0.0416
37150W        W45950  23.646   3.791  32.172  0.2872 -0.2150 -0.1405
37151W        W45951   4.753   0.556   8.962 -0.1818  0.1184 -0.1360
37152W        W45952   6.224   4.356  25.430  0.0154 -0.1589  0.0326
37153W        W45953   8.371   1.128  26.259  0.3531  0.4003 -0.0736
37154W        W45954   1.088   2.260  25.196  0.2279 -0.2089 -0.3441
37155W        W45955   4.847   4.354  25.049  0.2644  0.1551  0.0121
37156W        W45956   3.843   2.893  30.097  0.1675  0.2294 -0.1609
37157W        W45957   2.468   3.874   8.744  0.0734 -0.2002 -0.1237
37158W        W45958  25.277   2.800  33.445 -0.0122  0.1255  0.1444
37159W        W45959   8.030   5.689   0.952  0.0464 -0.0690  0.0333
37160W        W45960  14.562   2.717   1.281  0.0185  0.1495 -0.0959
37161W        W45961  14.587   5.448   2.680  0.0232  0.0280 -0.0017
37162W        W45962  17.332   0.355  28.257 -0.1858  0.1460 -0.0982
37163W        W45963   6.143   3.968  29.941 -0.0375 -0.0709 -0.0895
37164W        W45964   4.035   4.812  25.648  0.1505 -0.1079  0.0159
37165W        W45965  19.013   0.615  25.397  0.2170 -0.1907  0.1633
37166W        W45966  26.270   3.323  15.058  0.0159  0.1287 -0.0121
37167W        W45967   0.995   2.114  25.708  0.1105  0.2131 -0.1990
37168W        W45968  16.885   2.317  32.168 -0.3248  0.1978  0.1080
37169W        W45969  15.474   5.853  10.382 -0.2639 -0.2833 -0.1778
37170W        W45970  24.235   4.448  27.489 -0.0736 -0.0364 -0.2559
37171W        W45971  14.200   2.724  24.873 -0.0227  0.0165  0.1834
37172W        W45972   5.619   0.413   0.598 -0.2436 -0.3155  0.2838
37173W        W45973  18.293   6.098  29.599  0.0037 -0.2751 -0.4320
37174W        W45974  15.054   5.025  23.780 -0.0421 -0.0869  0.1759
37175W        W45975   4.501   1.527  35.620 -0.1666  0.0086  0.0209
37176W        W45976  23.321   4.115   3.259 -0.1849 -0.1030 -0.0927
37177W        W45977   9.406   1.160   1.080  0.4403 -0.1058 -0.0724
37178W        W45978   8.723   5.828   3.236  0.0315 -0.0265 -0.0887
37179W        W45979  11.283   2.465  11.078  0.0199  0.1114  0.0579
37180W        W45980   1.356   3.613  31.211  0.1427 -0.4406  0.1595
37181W        W45981   4.183   5.755  11.086  0.2300  0.3166 -0.1707
37182W        W45982   5.742   6.288  26.417 -0.2077  0.1846  0.0820
37183W        W45983   2.307   4.614  28.743  0.1310  0.1781  0.2418
37184W        W45984  12.183   1.198  34.515  0.0181 -0.0390 -0.1693
37185W        W45985  16.319   6.139  27.042  0.1528 -0.0810 -0.1286
37186W        W45986  16.589   4.441   9.257  0.1659 -0.1625  0.0423
37187W        W45987  18.027   4.870  13.708  0.0761 -0.0476  0.0935
37188W        W45988   8.079   4.573  27.207 -0.1871  0.1085 -0.0978
37189W        W45989  12.373   3.157  31.946 -0.3008  0.1866  0.1309
37190W        W45990  17.364   3.343  28.128 -0.3167 -0.0158 -0.4619
37191W        W45991  10.102   5.203   7.443 -0.0152 -0.1338 -0.0482
37192W        W45992  20.999   0.869  29.427 -0.0851  0.3932  0.0621
37193W        W45993  11.741   6.273  22.116 -0.1898  0.0633 -0.0581
37194W        W45994  15.203   3.688  21.506  0.4156  0.2653  0.0169
37195W        W45995  24.214   4.735  25.594  0.1711 -0.1307  0.2999
37196W        W45996   6.897   0.669  34.843  0.1378  0.2467  0.0568
37197W        W45997  18.839   4.657  23.310 -0.0673 -0.0349  0.1674
37198W        W45998  21.459   5.517  30.665  0.0217 -0.0034 -0.2424
37199W        W45999  23.224   6.302  30.996  0.3604  0.4471 -0.0289
37200W        W46000   2.918   4.883  10.146 -0.1505  0.0848 -0.0784
37201W        W46001  20.242   1.368  11.764  0.2322  0.0748  0.1276
37202W        W46002   9.073   5.070  27.449 -0.2503  0.0728 -0.0897
37203W        W46003  12.050   5.123  31.555  0.0969 -0.0607 -0.1031
37204W        W46004  24.321   3.632   8.157 -0.0153  0.0309 -0.1652
37205W        W46005   0.490   4.821  28.120 -0.0480  0.3792 -0.1659
37206W        W46006   5.469   3.653  14.956 -0.0903  0.3735 -0.1113
37207W        W46007   0.764   0.569   3.467  0.1531 -0.1505  0.0373
37208W        W46008  16.103   0.765  27.184  0.0656 -0.0568 -0.0760
37209W        W46009  12.846   0.615   0.402  0.0160 -0.1145  0.2089
37210W        W46010  26.063   4.788  29.801  0.0313  0.0428 -0.2801
37211W        W46011  15.276   2.398  30.104  0.1863 -0.0303 -0.1535
37212W        W46012  18.089   6.381  23.117  0.0001  0.1010  0.0899
37213W        W46013  23.621   0.509  23.722  0.1039 -0.1075  0.2768
37214W        W46014  16.489   4.151  23.695  0.1908 -0.0604 -0.4449
37215W        W46015   3.623   4.249  29.011 -0.1136  0.1312  0.0743
37216W        W46016  13.791   1.296  12.464 -0.1295  0.1511 -0.2276
37217W        W46017   9.881   4.884  31.435  0.1984 -0.2597  0.1307
37218W        W46018  22.636   6.431   1.303  0.1587 -0.1042  0.1545
37219W        W46019  21.546   1.338  12.217 -0.0434 -0.1979 -0.1449
37220W        W46020  21.106   3.351  10.398 -0.0246 -0.1696  0.1856
37221W        W46021  24.038   1.793  14.907  0.1810 -0.1111 -0.0791
37222W        W46022  13.808   1.717  11.344 -0.1205 -0.0738 -0.0878
37223W        W46023  10.002   0.781   6.958 -0.3115 -0.0783  0.1860
37224W        W46024  20.412   1.539  28.617 -0.1181  0.2421  0.1103
37225W        W46025  15.080   5.272  24.394  0.2871 -0.1118 -0.1794
37226W        W46026  18.374   1.667  15.097  0.4329  0.1758 -0.0535
37227W        W46027  20.315   3.716  31.004 -0.3115 -0.0701 -0.2873
37228W        W46028  20.855   2.779  25.170  0.4176 -0.3565 -0.2049
37229W        W46029  12.905   3.759  31.337 -0.2405  0.0410 -0.0202
37230W        W46030   5.615   6.296   2.158 -0.2476 -0.2365  0.0558
37231W        W46031   2.238   4.216  13.680  0.0142 -0.1112  0.0327
37232W        W46032   3.451   2.142   7.660  0.1974  0.1314  0.0674
37233W        W46033  19.506   3.989  30.680  0.2384 -0.1203 -0.0813
37234W        W46034  10.101   6.482  29.474  0.1728 -0.1714  0.0795
37235W        W46035  25.907   5.198  24.251  0.1426  0.0332 -0.4064
37236W        W46036   4.920   1.050  20.306 -0.0150  0.2262  0.3716
37237W        W46037   3.833   6.522   5.182 -0.3519 -0.1785 -0.2678
37238W        W46038   5.101   0.673   1.503  0.2693 -0.1094  0.0600
37239W        W46039  22.155   5.963   4.110 -0.4033  0.1281  0.1687
37240W        W46040  11.924   2.205   5.617 -0.1119 -0.3169 -0.0387
37241W        W46041   5.738   4.007  32.177 -0.0211  0.0770 -0.0133
37242W        W46042  16.994   3.442  31.754  0.0260 -0.2392 -0.2174
37243W        W46043  20.972   1.051  34.266  0.2320  0.0207 -0.1724
37244W        W46044  25.542   3.123  29.129  0.1578 -0.0318 -0.1055
37245W        W46045   3.840   6.412   9.756  0.0402 -0.1193  0.0371
37246W        W46046   3.943   5.141   4.074 -0.0472 -0.0378 -0.4340
37247W        W46047  19.913   1.103  12.480  0.0112 -0.2199 -0.2745
37248W        W46048  14.955   5.903  33.848  0.0490  0.0896 -0.3707
37249W        W46049  10.474   4.430  14.238  0.0774  0.1764 -0.3247
37250W        W46050   5.251   4.899  12.278  0.1283 -0.3788  0.0704
37251W        W46051  14.450   2.649   6.097 -0.0730 -0.2005 -0.0484
37252W        W46052   2.532   1.329  31.037  0.1047  0.1911 -0.0610
37253W        W46053   9.069   1.859  24.684 -0.1561 -0.0604  0.2177
37254W        W46054   2.206   1.861  30.300 -0.0480  0.1184 -0.1197
37255W        W46055  23.514   3.061   0.559  0.1022  0.1391  0.1945
37256W        W46056  12.932   2.037   8.040  0.1025  0.1971 -0.2678
37257W        W46057  16.183   6.414  14.223  0.0130 -0.1848  0.3648
37258W        W46058  22.955   1.991  14.605 -0.2707  0.1243 -0.0921
37259W        W46059  20.931   2.996  11.551 -0.0584  0.0098 -0.2568
37260W        W46060   2.790   5.540   6.162  0.1001 -0.0309  0.0229
37261W        W46061  25.455   2.794  22.915  0.2797  0.0689  0.3589
37262W        W46062  23.982   4.443  12.182  0.1705 -0.0826 -0.1425
37263W        W46063  14.561   2.425  29.471 -0.0591 -0.0703  0.1006
37264W        W46064  11.937   1.408  13.440 -0.1225 -0.1450 -0.0732
37265W        W46065  25.603   1.251   1.388 -0.1331 -0.2420  0.3402
37266W        W46066   8.876   1.790  35.274  0.0997 -0.1128  0.2378
37267W        W46067  17.432   5.577  27.409 -0.0870 -0.0102  0.2931
37268W        W46068  19.685   3.647   8.145 -0.0159  0.1792 -0.2247
37269W        W46069   5.100   1.547   3.650  0.0342 -0.4573 -0.2587
37270W        W46070  12.960   4.986  12.246  0.1964  0.0905 -0.1267
37271W        W46071  13.757   1.601  33.154  0.2361  0.1918 -0.2361
37272W        W46072   2.335   1.396  31.654  0.0602 -0.0485  0.2953
37273W        W46073  19.017   6.477  20.935  0.2108  0.1429 -0.1868
37274W        W46074  25.329   4.162   3.512 -0.2254  0.1767  0.1227
37275W        W46075   3.878   4.914  21.753 -0.3765  0.1735  0.3917
37276W        W46076  17.200   3.522  24.375  0.0750 -0.0664 -0.1542
37277W        W46077   4.589   2.940   7.240 -0.0111  0.2125  0.2142
37278W        W46078   1.207   1.850  35.629  0.0476  0.3682 -0.3527
37279W        W46079  12.049   2.611  28.663 -0.0398  0.2270 -0.1832
37280W        W46080  21.716   4.649   7.455  0.0205  0.0433  0.1985
37281W        W46081   2.007   3.303  12.694  0.0828  0.1409 -0.0969
37282W        W46082  12.994   0.591   7.826 -0.4054  0.1156 -0.1492
37283W        W46083  23.212   1.229  24.068 -0.0838  0.1492 -0.0673
37284W        W46084  10.076   3.442  13.401  0.0285  0.4783  0.0039
37285W        W46085  17.199   4.538  12.697  0.0343  0.0356 -0.0816
37286W        W46086  20.609   2.109  12.587  0.0383  0.1261  0.0961
37287W        W46087  21.786   5.634  34.046 -0.1477 -0.0927 -0.0999
37288W        W46088  26.421   5.920  34.144 -0.0727 -0.0303  0.0133
37289W        W46089   3.983   2.669  24.708  0.0577 -0.0235 -0.3383
37290W        W46090   9.228   0.848  24.544 -0.1495 -0.0282 -0.0162
37291W        W46091  19.481   2.875  21.448 -0.0843  0.4369 -0.3032
37292W        W46092  17.887   2.103  12.202  0.1344 -0.1027 -0.2892
37293W        W46093   1.676   6.366  21.019 -0.0331  0.0329  0.0569
37294W        W46094  17.262   0.412  32.007  0.0654 -0.1495 -0.4480
37295W        W46095  10.221   0.735  33.227 -0.0135 -0.2164  0.0322
37296W        W46096  26.202   3.720  13.253 -0.0625  0.0852  0.1577
37297W        W46097  20.803   3.868   1.325  0.1501 -0.3422 -0.0401
37298W        W46098  20.963   0.840  28.192 -0.0637 -0.0763 -0.3645
37299W        W46099   7.303   0.582  26.564  0.0861  0.0650 -0.0645
37300W        W46100  18.275   0.790   9.997  0.0171 -0.1518  0.1643
37301W        W46101  23.128   1.411  30.028  0.1021  0.0182 -0.3178
37302W        W46102  22.245   0.285  32.541  0.0654  0.0176 -0.2436
37303W        W46103  24.623   3.014  12.026 -0.2830  0.2027 -0.2033
37304W        W46104   9.983   0.344  13.298  0.2422  0.0334  0.1071
37305W        W46105  24.051   5.518   8.774  0.1696 -0.2031  0.3398
37306W        W46106   3.692   0.937   7.899 -0.2670 -0.1868 -0.1121
37307W        W46107   8.080   6.551   6.122 -0.1134 -0.2928  0.1863
37308W        W46108  15.967   0.153  35.814  0.0157 -0.2406 -0.0539
37309W        W46109   5.507   4.172   6.005  0.3657  0.0954 -0.0330
37310W        W46110   2.400   2.952  33.823  0.0850 -0.0680 -0.0720
37311W        W46111   1.108   2.924  14.908 -0.1630 -0.1817 -0.0630
37312W        W46112  11.927   1.230  14.323  0.0264 -0.0048  0.1698
37313W        W46113  17.581   3.180   2.350 -0.0746  0.0131  0.2846
37314W        W46114  20.805   1.948  34.250 -0.3131 -0.0888  0.3322
37315W        W46115   2.730   1.615   4.746  0.0583  0.0060  0.0623
37316W        W46116  15.223   4.627  13.383  0.2420 -0.0468 -0.0480
37317W        W46117  25.055   3.997   4.728 -0.1224 -0.1999 -0.0709
37318W        W46118  23.997   4.379  22.370  0.0225 -0.1078  0.0549
37319W        W46119  17.193   1.944   4.153 -0.0710 -0.2972 -0.2612
37320W        W46120  13.258   6.480  15.576  0.1246  0.1104  0.0805
37321W        W46121  18.014   5.671   4.499 -0.1931  0.0929  0.3006
37322W        W46122  23.237   3.708  12.619  0.0737 -0.0083 -0.1384
37323W        W46123   5.761   0.391  20.859  0.1798 -0.0851  0.1113
37324W        W46124  13.162   5.717  27.768 -0.0965 -0.1771 -0.2663
37325W        W46125  13.973   3.406   6.088  0.0104  0.1002  0.0030
37326W        W46126   7.955   1.319  26.498 -0.2711 -0.0631  0.0316
37327W        W46127   2.741   4.535  14.313  0.0866 -0.2972  0.0494
37328W        W46128  26.209   1.696   8.611 -0.0522  0.1833 -0.1834
37329W        W46129  16.185   4.765   0.218 -0.2175 -0.1050 -0.1092
37330W        W46130  13.079   1.103  20.999  0.3578 -0.2801  0.0009
37331W        W46131  12.500   2.646  15.406 -0.2590 -0.0355 -0.1530
37332W        W46132  21.106   3.393  28.192 -0.3844  0.0558  0.0491
37333W        W46133  25.378   1.633   8.636 -0.1062  0.1823 -0.0225
37334W        W46134  11.108   2.451   3.340 -0.2815 -0.2860 -0.1002
37335W        W46135  14.561   3.004  30.527  0.1327 -0.3820 -0.1123
37336W        W46136  18.456   1.010   1.263 -0.0630  0.1082  0.0744
37337W        W46137   8.956   0.823  31.785  0.1226  0.1106 -0.2900
37338W        W46138  26.228   2.735  24.830 -0.1890  0.0355  0.0440
37339W        W46139  11.319   4.718  28.874  0.0339 -0.1139  0.1156
37340W        W46140   3.319   1.057   4.493 -0.0788 -0.4409 -0.1314
37341W        W46141   5.683   4.449  35.956  0.0517 -0.0026  0.1624
37342W        W46142   7.153   2.446  29.176  0.0571 -0.0047 -0.2860
37343W        W46143  22.475   5.701  31.885  0.1447  0.0521  0.1375
37344W        W46144  18.710   3.759  28.530  0.0145 -0.0476 -0.1324
37345W        W46145  18.890   4.997  24.983 -0.1269  0.1136  0.0589
37346W        W46146  17.436   6.049  27.702 -0.2805  0.1063  0.1747
37347W        W46147  22.948   4.907  27.239  0.0647  0.0216 -0.0563
37348W        W46148   5.048   6.019   1.694  0.4345  0.0426 -0.1028
37349W        W46149   5.091   0.061   5.168  0.0753  0.3357 -0.1567
37350W        W46150  11.064   5.601  32.959 -0.4593 -0.0693  0.1109
37351W        W46151  12.840   5.497  23.738  0.1239  0.0668  0.1164
37352W        W46152  13.686   5.078   6.237 -0.1598  0.0149 -0.2307
37353W        W46153   7.297   0.344  22.452  0.1488  0.1419 -0.1343
37354W        W46154  22.826   2.398  26.543  0.2102 -0.0397  0.0219
37355W        W46155   9.405   4.612  24.324 -0.1644 -0.0990  0.1502
37356W        W46156  24.854   6.547  29.867  0.3946 -0.0806  0.1832
37357W        W46157   8.078   6.247   5.091  0.0005  0.4152 -0.2918
37358W        W46158  17.435   2.973   9.981  0.0051  0.0857 -0.1643
37359W        W46159  20.498   1.892   3.490  0.0017  0.2475  0.0765
37360W        W46160   8.263   2.272   1.602  0.0130  0.2028 -0.0126
37361W        W46161   1.364   5.687  30.455  0.1170 -0.1476  0.2249
37362W        W46162  19.616   6.275   9.429  0.0533  0.1256  0.1774
37363W        W46163  16.370   2.452   3.640 -0.0840  0.2189 -0.0029
37364W        W46164  25.058   6.000   5.958  0.1787  0.0419 -0.2516
37365W        W46165  21.227   1.581  25.848 -0.1427 -0.1182  0.0240
37366W        W46166   9.846   1.340   9.840  0.2848  0.0955  0.1109
37367W        W46167  19.356   2.525  13.565  0.1673  0.2121 -0.2020
37368W        W46168   9.121   5.110  30.058  0.1229 -0.3047  0.0695
37369W        W46169  16.934   1.439   6.274  0.3706  0.0733  0.1574
37370W        W46170  25.331   2.929   7.278  0.3614  0.0865  0.0897
37371W        W46171   8.354   3.296   3.815 -0.1839 -0.0161 -0.1014
37372W        W46172  14.987   2.951  31.951  0.5630 -0.1938  0.0929
37373W        W46173  16.972   5.102  25.064 -0.2184 -0.1236  0.0196
37374W        W46174  12.768   4.849  28.693 -0.1753  0.0244  0.1614
37375W        W46175  20.400   4.017  27.286 -0.1621  0.1787  0.1279
37376W        W46176   0.529   1.673   3.151 -0.0623 -0.0387 -0.1293
37377W        W46177  17.391   0.189  30.759 -0.0915  0.2139 -0.0672
37378W        W46178  15.414   0.842   3.077  0.3445 -0.1669  0.1418
37379W        W46179   3.141   5.470   9.001 -0.1766  0.4001  0.1026
37380W        W46180   2.445   0.390  30.531  0.4645 -0.0725 -0.4698
37381W        W46181   3.419   1.216  24.618 -0.0637  0.0017  0.1863
37382W        W46182  10.987   4.087  12.949  0.2582 -0.1337 -0.0019
37383W        W46183  18.574   2.981  21.352  0.1670  0.5146  0.1902
37384W        W46184  16.276   4.500  10.517  0.2399  0.0203 -0.0480
37385W        W46185  25.781   6.257  22.414 -0.2836 -0.2420 -0.3271
37386W        W46186   3.619   6.242   0.601 -0.0070  0.0686 -0.0465
37387W        W46187  18.417   5.231   5.316  0.1507 -0.0257 -0.2704
37388W        W46188  14.927   4.044  22.613  0.2090 -0.3878  0.0405
37389W        W46189  18.809   0.149  11.244  0.3081 -0.1365  0.0731
37390W        W46190  13.155   1.247  31.543 -0.1168 -0.1728 -0.0366
37391W        W46191  21.072   2.751  14.871  0.0980  0.1071  0.2350
37392W        W46192  19.525   4.930   7.287 -0.0012 -0.0087 -0.3482
37393W        W46193   4.322   2.002  34.559 -0.1858 -0.0276 -0.4936
37394W        W46194  21.588   5.668   2.551  0.1096 -0.1181 -0.1670
37395W        W46195   7.735   0.833  10.016 -0.4216 -0.0204  0.1305
37396W        W46196  24.022   1.489  33.289  0.3219 -0.1012 -0.0238
37397W        W46197   8.381   3.625  21.279 -0.0074 -0.0257 -0.0981
37398W        W46198  10.507   3.098  16.292  0.1209  0.0287  0.0223
37399W        W46199   5.307   3.916   6.690  0.0414 -0.3535 -0.0235
37400W        W46200  23.747   3.486  29.765 -0.0746 -0.2509  0.0115
37401W        W46201  23.484   6.278  14.214  0.0321 -0.0205  0.1812
37402W        W46202   9.775   3.274  25.408 -0.0037 -0.0099 -0.0191
37403W        W46203  15.663   4.301   7.702  0.1784  0.2116  0.0399
37404W        W46204   5.657   5.347  32.796  0.0183  0.0780 -0.3595
37405W        W46205   6.521   2.017  27.283 -0.2162 -0.1964 -0.0398
37406W        W46206  10.691   4.589   3.145 -0.0821  0.1479 -0.1077
37407W        W46207  16.418   3.806  20.392 -0.1493 -0.0647  0.1608
37408W        W46208  24.727   2.288   2.874  0.0053 -0.1216 -0.2176
37409W        W46209   0.080   2.897  25.750  0.2611 -0.2337 -0.4313
37410W        W46210  14.074   3.442  35.186 -0.3541  0.0123  0.0092
37411W        W46211  17.480   1.684  14.037  0.1942 -0.1879  0.1637
37412W        W46212  24.585   4.805  25.891  0.0047 -0.1970 -0.0841
37413W        W46213  13.143   3.509  25.389 -0.2445 -0.1217  0.3225
37414W        W46214  16.592   1.744  21.206  0.1445  0.1207 -0.0655
37415W        W46215   4.229   6.335  30.326 -0.0934 -0.0283  0.0802
37416W        W46216   2.084   3.334  35.561  0.2427  0.0422  0.1691
37417W        W46217   4.344   0.757   2.682 -0.1282 -0.3493  0.0703
37418W        W46218  19.765   0.514  28.229  0.0566  0.2042 -0.2335
37419W        W46219  17.188   5.478  24.286  0.0843 -0.0608 -0.1916
37420W        W46220  16.117   1.989  35.299  0.0542 -0.3539 -0.4462
37421W        W46221   7.161   3.852  26.390  0.4727 -0.1518 -0.2353
37422W        W46222  15.713   3.980   3.307  0.0592 -0.0001  0.0851
37423W        W46223  25.087   2.802  22.241  0.0272 -0.0076 -0.0743
37424W        W46224   6.458   4.782  11.386 -0.1035  0.1375 -0.0334
37425W        W46225  24.141   1.027  10.569  0.0426  0.1485 -0.0836
37426W        W46226  17.828   3.330  35.596  0.0618 -0.0378 -0.1468
37427W        W46227  17.761   3.567  11.877  0.0851  0.0239 -0.2882
37428W        W46228  22.644   5.934   9.952 -0.3260  0.1266 -0.2131
37429W        W46229  14.592   2.853  33.429 -0.3178  0.2693 -0.1356
37430W        W46230   5.147   4.055  14.922  0.1945 -0.1342 -0.1806
37431W        W46231  22.079   4.715  21.744 -0.1759  0.1145  0.1091
37432W        W46232  25.826   6.374  21.521 -0.2179 -0.1875 -0.1232
37433W        W46233  10.990   3.115   3.769 -0.1820  0.0706 -0.3537
37434W        W46234  14.302   5.513  23.027  0.1559  0.2698  0.2548
37435W        W46235   1.953   0.256  35.534  0.0904  0.2029  0.1474
37436W        W46236   9.063   1.128  36.147  0.0841  0.0808 -0.1863
37437W        W46237  17.783   0.563   3.536 -0.2293 -0.1472 -0.3650
37438W        W46238  20.589   3.960   5.750 -0.0723  0.0927  0.2657
37439W        W46239  12.632   2.465  11.726  0.0831  0.1518  0.1236
37440W        W46240  23.823   2.118  36.007 -0.0589  0.0286  0.1334
37441W        W46241  16.001   5.648  24.799 -0.0724  0.0609 -0.2116
37442W        W46242   0.337   2.891   5.942  0.0047 -0.2014  0.0584
37443W        W46243  25.193   3.471  11.296 -0.2690  0.1800 -0.0806
37444W        W46244  21.594   0.659  23.195  0.3325  0.0677 -0.0985
37445W        W46245   0.869   6.545  31.744  0.1616 -0.3500 -0.0249
37446W        W46246  17.792   1.653  25.145 -0.0010  0.2009  0.2325
37447W        W46247   6.818   6.099   4.913  0.3670  0.1544 -0.2469
37448W        W46248   8.526   2.991  13.243 -0.1645 -0.1563  0.0726
37449W        W46249  11.370   6.441  22.557  0.1324  0.0318  0.2614
37450W        W46250  18.054   3.828  21.716  0.1420  0.1930 -0.0008
37451W        W46251  18.497   5.312  29.321 -0.2392  0.1462  0.2603
37452W        W46252  19.912   2.644  11.596 -0.3173  0.2121 -0.1210
37453W        W46253  15.276   2.978   2.980 -0.3250  0.3356 -0.0522
37454W        W46254  12.452   6.362   9.802  0.0403  0.2570 -0.3103
37455W        W46255   9.502   5.985   8.317  0.1560 -0.2571 -0.3334
37456W        W46256  10.289   3.055   8.108  0.1138 -0.2007 -0.2957
37457W        W46257   7.826   3.410   5.842 -0.3414 -0.2519 -0.0572
37458W        W46258   3.976   0.709   3.876 -0.2135  0.1711  0.0643
37459W        W46259  19.313   0.448  13.805 -0.2824  0.1730  0.2711
37460W        W46260   8.437   3.986  26.434  0.0611  0.0827  0.0639
37461W        W46261   4.317   6.113  20.840 -0.0255  0.0324 -0.2400
37462W        W46262   1.310   2.611  29.215 -0.0934 -0.0301  0.0158
37463W        W46263   7.160   0.045  28.521 -0.2032  0.3304  0.1183
37464W        W46264  25.553   2.222   5.598  0.1094  0.0452  0.4066
37465W        W46265   5.660   0.077  32.585 -0.0359  0.1732  0.1042
37466W        W46266  19.643   3.750   9.277 -0.0889 -0.1475  0.0470
37467W        W46267   3.607   4.539  24.893 -0.0083 -0.0137 -0.0712
37468W        W46268   7.751   2.517   8.547 -0.2740 -0.0493  0.1349
37469W        W46269  15.220   3.025  34.485  0.1247  0.3147  0.3826
37470W        W46270  15.867   4.283  15.662 -0.1770 -0.1235  0.1107
37471W        W46271   0.055   5.260  13.102  0.3413 -0.1741  0.3474
37472W        W46272  11.811   0.064  30.091  0.0451  0.0939 -0.0346
37473W        W46273   6.766   3.757  32.988  0.0736  0.1598 -0.0085
37474W        W46274  14.306   0.268   6.516  0.1422  0.0107  0.3144
37475W        W46275   9.370   1.178  30.360 -0.0472  0.1446 -0.0617
37476W        W46276  11.899   0.344  35.377 -0.2579  0.1577  0.0507
37477W        W46277  17.843   0.977  32.585  0.0066 -0.1643  0.1048
37478W        W46278  17.574   0.251  34.532  0.2423 -0.2012  0.2528
37479W        W46279  19.104   5.257  31.204 -0.2382  0.1530  0.0890
37480W        W46280  11.639   1.836  32.398  0.3984 -0.1297 -0.3412
37481W        W46281  14.972   4.187  11.315  0.0611 -0.2647 -0.0255
37482W        W46282  11.746   3.481  29.707  0.2724 -0.0779 -0.0187
37483W        W46283   8.570   6.501  35.923 -0.1699  0.2484  0.3594
37484W        W46284   7.816   0.736  10.556  0.1968  0.1907  0.0091
37485W        W46285  12.844   2.224   0.861 -0.0556 -0.1094 -0.0415
37486W        W46286   1.086   6.316   8.557 -0.0715  0.1017  0.0792
37487W        W46287   9.499   2.792  26.720  0.0208 -0.1224 -0.0435
37488W        W46288  25.132   1.623  35.682 -0.1097 -0.0670 -0.4174
37489W        W46289  12.087   3.809  21.865 -0.0943  0.2106 -0.2827
37490W        W46290   6.256   4.416  29.816 -0.1154 -0.1346 -0.0955
37491W        W46291  15.097   3.607  35.764 -0.0955  0.0242  0.2052
37492W        W46292  11.543   1.885  13.591  0.0609  0.2742 -0.1429
37493W        W46293   2.528   5.294   8.032  0.0877 -0.0566 -0.0718
37494W        W46294   5.092   0.148  10.359  0.1693  0.2111 -0.0857
37495W        W46295   0.511   1.136  21.997  0.2136 -0.1841 -0.1098
37496W        W46296   3.473   5.530   7.728  0.5172  0.1497  0.0143
37497W        W46297  16.483   3.381   2.334 -0.1000 -0.3853  0.1270
37498W        W46298   3.874   2.293  21.234  0.3718  0.1395  0.0806
37499W        W46299  22.443   2.006  22.952  0.0185  0.1079  0.1914
37500W        W46300  10.879   2.945  27.139  0.1168 -0.0283  0.0578
37501W        W46301  17.101   3.062   3.391 -0.1289  0.0041  0.0582
37502W        W46302  22.865   1.702   3.193 -0.1879 -0.3780  0.0257
37503W        W46303   4.688   0.927  28.527  0.0950 -0.0460  0.1571
37504W        W46304   0.012   1.163   7.584 -0.0479  0.0663 -0.1763
37505W        W46305  18.938   3.673   2.446  0.0825  0.0113  0.1322
37506W        W46306  12.527   2.584  35.705  0.1717 -0.0535 -0.2594
37507W        W46307  16.464   5.668   5.512  0.0303 -0.0396 -0.0622
37508W        W46308  17.785   5.191  22.444 -0.0644  0.1000  0.0050
37509W        W46309  11.058   4.113  10.322  0.1932 -0.2007 -0.0022
37510W        W46310  22.612   3.993  30.367  0.3567  0.0900 -0.0477
37511W        W46311   7.751   4.660  21.278  0.2657 -0.0355 -0.1066
37512W        W46312  18.805   5.955  29.451  0.3299  0.0784  0.1787
37513W        W46313  15.605   6.563  33.777  0.0132  0.1434  0.0190
37514W        W46314  21.863   6.101  20.431  0.0325  0.0095  0.1396
37515W        W46315   5.729   0.082  34.271  0.1401  0.2309  0.0073
37516W        W46316  17.792   4.529   5.483  0.0402 -0.0987 -0.5314
37517W        W46317  17.777   5.368  11.964 -0.0411 -0.2849  0.3599
37518W        W46318  25.212   2.342  13.248 -0.0967 -0.1999 -0.0146
37519W        W46319  12.511   1.239  25.692 -0.1795 -0.0109 -0.2788
37520W        W46320   2.469   2.360  22.442 -0.1035  0.1070  0.1597
37521W        W46321  10.575   2.598   5.837 -0.0492 -0.2460 -0.0019
37522W        W46322  21.925   4.648   8.016  0.0171  0.0607 -0.1022
37523W        W46323  17.823   4.883  35.116 -0.1761  0.2175 -0.1478
37524W        W46324   3.590   5.204  31.075 -0.1196  0.0244  0.0544
37525W        W46325  13.874   0.465  21.840 -0.1656 -0.0403  0.1909
37526W        W46326  11.119   4.082  24.875 -0.0671 -0.0257 -0.1394
37527W        W46327  12.984   2.042   9.372 -0.0832 -0.3093 -0.0185
37528W        W46328  11.892   4.409  24.671  0.0907  0.3015 -0.1559
37529W        W46329   5.067   3.000  14.236  0.0046 -0.0099  0.0478
37530W        W46330  14.977   0.249  30.226  0.0543 -0.2749  0.1691
37531W        W46331   7.373   4.213   8.828 -0.2984 -0.0869 -0.0948
37532W        W46332   1.009   3.167  33.426  0.0069  0.4401  0.2417
37533W        W46333  16.034   4.569  28.963  0.0640  0.0361 -0.0127
37534W        W46334  12.291   1.258   3.246  0.3955  0.0655  0.1005
37535W        W46335  25.452   0.098  21.417  0.0132 -0.1613  0.2061
37536W        W46336  15.126   1.236   7.754  0.1387 -0.1092  0.0544
37537W        W46337  25.797   0.381   0.373 -0.1619 -0.1509 -0.2435
37538W        W46338   7.487   4.127   1.375  0.1154  0.1246  0.0368
37539W        W46339   7.075   3.285   4.122  0.1654  0.0248 -0.2770
37540W        W46340  11.762   0.719  12.128  0.0119 -0.3136  0.0148
37541W        W46341  25.524   0.057   7.060 -0.1558  0.0096 -0.3493
37542W        W46342  25.897   2.154  20.843 -0.0079  0.0630  0.0361
37543W        W46343  18.065   3.714  20.702 -0.1830 -0.2955 -0.0650
37544W        W46344   8.463   0.606  29.407  0.0008  0.0335  0.0244
37545W        W46345  25.413   3.984  27.115 -0.4582 -0.0309 -0.0354
37546W        W46346   2.084   1.732  35.542  0.0943  0.1871  0.0805
37547W        W46347  14.725   1.213  13.493  0.0939  0.2130  0.0762
37548W        W46348  18.545   4.184  28.116 -0.1062 -0.0919  0.0028
37549W        W46349  19.065   3.719   7.031 -0.0457 -0.2150  0.0030
37550W        W46350   0.219   2.974  21.833 -0.1877  0.2006 -0.1932
37551W        W46351  25.578   2.716  10.190 -0.3764  0.0697  0.6565
37552W        W46352  19.256   5.371  36.064  0.1675 -0.1236  0.1456
37553W        W46353  25.061   3.268   9.989  0.0761  0.0145 -0.0462
37554W        W46354  26.264   2.046  29.688 -0.2498  0.1132  0.0563
37555W        W46355  20.255   3.053   1.448  0.2649 -0.1521 -0.1158
37556W        W46356  13.844   3.727  32.491 -0.1320 -0.0539 -0.0205
37557W        W46357  11.488   3.377  13.120  0.0799  0.1066  0.2334
37558W        W46358  11.699   1.833  31.187  0.0885  0.0160  0.0531
37559W        W46359  15.655   5.335  23.476  0.0578 -0.0908  0.0670
37560W        W46360   4.640   2.329  32.583 -0.0837  0.0882  0.0469
37561W        W46361  25.191   0.943  24.147 -0.0839  0.0065  0.0550
37562W        W46362  25.117   4.156  34.014  0.1418 -0.1513 -0.2203
37563W        W46363  10.859   4.951   7.213  0.1498  0.1948 -0.2044
37564W        W46364   2.612   3.499   1.860 -0.0640 -0.0881  0.3477
37565W        W46365  20.058   1.316  24.288 -0.0947 -0.0757 -0.1669
37566W        W46366   1.973   1.542  14.880  0.0703  0.2852  0.3082
37567W        W46367   0.261   5.174  22.466 -0.0083 -0.4686  0.2336
37568W        W46368  16.363   5.486  22.101  0.0361 -0.0193 -0.0023
37569W        W46369  18.514   5.997  10.712  0.0426  0.1888 -0.1046
37570W        W46370  13.861   0.594  14.444  0.1275 -0.2096 -0.1175
37571W        W46371  21.654   3.655  28.015 -0.1763  0.0883 -0.0896
37572W        W46372  13.169   5.355   2.094  0.2565 -0.0408  0.1493
37573W        W46373  19.569   3.014  35.419  0.2954 -0.0708  0.0765
37574W        W46374  15.209   6.569  12.242 -0.0484 -0.3472 -0.0237
37575W        W46375   3.822   5.305  24.230  0.1795 -0.2838  0.4208
37576W        W46376   0.224   3.291  32.693  0.0171  0.1461  0.1993
37577W        W46377   5.508   6.531   8.492 -0.0568 -0.1750  0.0397
37578W        W46378  13.293   5.901  16.092 -0.1218 -0.3059  0.2406
37579W        W46379  14.999   2.350  21.601 -0.0403 -0.2026  0.1248
37580W        W46380  26.104   3.196  11.190 -0.1637  0.0426  0.4707
37581W        W46381   7.160   5.658  27.333  0.0121 -0.2645 -0.1492
37582W        W46382   5.006   4.632   4.624  0.0653  0.0579  0.2397
37583W        W46383  22.613   2.408  28.119  0.1430  0.0332  0.2396
37584W        W46384  22.505   5.510  14.962  0.1744 -0.1214  0.1824
37585W        W46385   2.440   2.716  11.583  0.1605 -0.1171  0.1919
37586W        W46386  14.778   3.672  29.272 -0.1722  0.4088  0.0810
37587W        W46387   8.711   2.245  36.029  0.2358 -0.0140  0.1833
37588W        W46388   0.112   1.642  24.437 -0.0875 -0.0887 -0.0114
37589W        W46389  18.433   5.625   6.603  0.2747  0.2991  0.2609
37590W        W46390  25.354   4.464   4.880 -0.0817  0.3496  0.1416
37591W        W46391  18.305   4.588  31.620  0.1153 -0.0658 -0.0682
37592W        W46392  24.417   1.429  25.518  0.2451  0.0914 -0.1627
37593W        W46393  18.742   2.485   1.966 -0.2032  0.1921  0.1325
37594W        W46394   6.237   6.098  29.852 -0.4747  0.1154  0.3253
37595W        W46395   1.855   1.726  25.720  0.1001 -0.0015  0.0654
37596W        W46396  16.815   1.006  26.913 -0.0805 -0.0187 -0.1359
37597W        W46397   2.511   4.669  12.591  0.1930  0.1185 -0.1140
37598W        W46398   2.552   0.766  21.628 -0.0970 -0.3022  0.3361
37599W        W46399  17.161   4.139   7.961 -0.0389  0.1274  0.1152
37600W        W46400  16.576   4.615  29.278  0.0342  0.1303 -0.2878
37601W        W46401  20.638   0.978  21.416  0.0067 -0.5239 -0.3450
37602W        W46402   2.528   3.029   8.945 -0.0368  0.3259  0.0257
37603W        W46403  16.715   4.603  11.866  0.2740 -0.2045  0.2258
37604W        W46404  15.459   3.878  11.375 -0.0486  0.2537 -0.0559
37605W        W46405  25.963   1.128   6.391  0.1890 -0.0143  0.0368
37606W        W46406   9.464   4.035  13.093 -0.1947 -0.2247  0.1248
37607W        W46407   6.982   6.008  12.548  0.0090  0.0795  0.2026
37608W        W46408  19.916   1.126  15.617  0.0756  0.0131  0.1161
37609W        W46409  17.615   3.568   4.802  0.1057 -0.0185 -0.3119
37610W        W46410   8.651   4.042   4.284 -0.2468 -0.0311 -0.1072
37611W        W46411  20.257   3.540  21.853 -0.0852  0.2811  0.1440
37612W        W46412   5.674   0.320  34.713 -0.1457  0.0064 -0.0105
37613W        W46413  10.192   0.874  11.419  0.2662  0.1462 -0.0107
37614W        W46414   5.500   3.352  28.300 -0.0060 -0.1419 -0.0832
37615W        W46415  25.833   2.839   7.183 -0.2894  0.2240 -0.1346
37616W        W46416  10.541   3.827  24.141  0.0316  0.0810 -0.0676
37617W        W46417   0.362   0.489  25.213 -0.0990 -0.0879  0.2495
37618W        W46418   7.337   3.346   3.698 -0.0940 -0.0245 -0.1524
37619W        W46419  21.608   4.725  34.516 -0.2159  0.1095  0.0289
37620W        W46420  17.461   4.462   7.684  0.0460  0.1231  0.1785
37621W        W46421  22.937   2.650  10.421 -0.0898 -0.0649  0.0333
37622W        W46422  21.013   4.956  35.640  0.1993  0.1661 -0.0822
37623W        W46423  22.617   1.336   6.233  0.2123 -0.1124  0.0921
37624W        W46424  16.239   0.687   1.831 -0.2217  0.0953  0.1066
37625W        W46425   6.033   0.266  32.938 -0.0290  0.1591 -0.0055
37626W        W46426  15.105   6.239   8.187  0.1371 -0.1434 -0.0344
37627W        W46427   4.992   0.412  30.308 -0.1524  0.2950 -0.0079
37628W        W46428  20.317   3.427  26.238  0.0170 -0.1413 -0.1104
37629W        W46429  11.935   5.257  24.489  0.1035  0.2928 -0.0399
37630W        W46430  22.795   3.942  27.276 -0.2072  0.0043 -0.2114
37631W        W46431   3.809   5.967   7.438  0.1172 -0.0128 -0.0708
37632W        W46432  21.357   1.807  23.993  0.3187  0.0841 -0.1991
37633W        W46433  13.116   5.751  30.463 -0.0055 -0.2151  0.1136
37634W        W46434  24.814   3.730  33.261 -0.1952  0.0342 -0.0001
37635W        W46435  19.038   0.549  34.141  0.2820 -0.0749 -0.0743
37636W        W46436  13.155   4.817  28.269 -0.2433  0.3459 -0.4242
37637W        W46437   6.429   3.561   1.954 -0.1427  0.2999  0.0187
37638W        W46438  10.864   5.892   3.597 -0.0681  0.0715 -0.0544
37639W        W46439   8.123   2.277  22.947  0.2967  0.1629 -0.0127
37640W        W46440  24.504   1.349   2.885 -0.1525 -0.0346 -0.0084
37641W        W46441   1.663   4.201  28.288 -0.5957 -0.3997  0.0592
37642W        W46442  25.182   5.544  20.166 -0.1216 -0.0239  0.2025
37643W        W46443  20.237   4.351  30.046 -0.1832 -0.0578  0.2573
37644W        W46444   2.131   4.370  35.273 -0.0104  0.1306 -0.2546
37645W        W46445   7.264   6.271  14.668 -0.0135  0.0470 -0.2787
37646W        W46446  22.625   3.621   5.109  0.0483 -0.0537 -0.1419
37647W        W46447  16.494   3.779   3.882  0.1230  0.0924 -0.1224
37648W        W46448  13.315   4.807  27.688  0.2251  0.2091 -0.2849
37649W        W46449  25.291   3.845  22.323 -0.1023 -0.1321 -0.1973
37650W        W46450   6.021   5.083  13.051  0.0179 -0.2317  0.0686
37651W        W46451  20.454   6.321  31.024  0.3525  0.0491 -0.1946
37652W        W46452  14.399   2.341   1.028 -0.3414 -0.0527  0.1544
37653W        W46453  17.402   3.182  35.759  0.2524 -0.0012 -0.0860
37654W        W46454   4.234   5.042  11.632 -0.2313 -0.0695  0.2137
37655W        W46455   9.740   5.917  22.210 -0.0546 -0.1236 -0.0809
37656W        W46456  17.264   1.494  23.227  0.1189 -0.0121  0.1786
37657W        W46457  19.454   5.942   1.997 -0.0402  0.0046  0.0186
37658W        W46458  10.788   6.346  26.358  0.1283  0.0823 -0.3654
37659W        W46459  22.700   3.262   7.499  0.2431 -0.2109 -0.0423
37660W        W46460  11.670   5.453  14.111 -0.1720  0.3296 -0.1615
37661W        W46461  26.077   1.117   8.410  0.0464  0.0688 -0.2653
37662W        W46462   1.280   2.324  35.791  0.0850  0.0321  0.5222
37663W        W46463   8.106   1.023  31.221 -0.1511 -0.1493 -0.0533
37664W        W46464  19.077   5.159  31.747 -0.0137 -0.0343 -0.2243
37665W        W46465   4.391   0.958   7.428  0.1995  0.1673 -0.5541
37666W        W46466  13.105   4.352   5.723  0.1270  0.1791  0.1961
37667W        W46467  15.409   3.282  32.234  0.1380 -0.1420  0.1014
37668W        W46468  12.574   1.171   1.278 -0.1595  0.0699  0.1298
37669W        W46469  24.748   2.689   0.724  0.1436  0.0238  0.3086
37670W        W46470   4.686   1.541   9.974 -0.4310 -0.1462 -0.1974
37671W        W46471   7.547   2.121  31.520 -0.1741 -0.2501 -0.0138
37672W        W46472  16.912   6.452  32.062 -0.2272 -0.2953 -0.0831
37673W        W46473  24.704   6.124  13.080  0.1770  0.0728 -0.0517
37674W        W46474  21.463   3.680  35.536  0.1764  0.0855  0.2164
37675W        W46475   6.025   5.978  22.764 -0.0801 -0.0019  0.2203
37676W        W46476  15.154   4.172  35.976  0.0216  0.0615  0.0841
37677W        W46477  13.829   3.743   9.651  0.1735  0.0863 -0.1910
37678W        W46478   0.607   3.406  35.254 -0.2401  0.2078 -0.0135
37679W        W46479  26.004   1.972   5.944  0.0401 -0.0520 -0.0005
37680W        W46480  22.352   3.428  12.878  0.0831 -0.1133  0.0850
37681W        W46481   8.316   2.150  28.600 -0.2030  0.1345 -0.2568
37682W        W46482  15.283   6.173  24.921  0.0270 -0.0788  0.3017
37683W        W46483  10.553   0.756   2.179  0.3977  0.3250 -0.0532
37684W        W46484   9.934   0.826  11.885  0.3122 -0.2953  0.0841
37685W        W46485  25.802   2.778  34.388  0.1716 -0.0017 -0.1503
37686W        W46486   7.785   0.650  15.017  0.1951  0.0570  0.2266
37687W        W46487  15.429   4.071   8.670  0.0195 -0.2526 -0.1005
37688W        W46488   7.791   5.321  10.388  0.0440  0.1714 -0.0455
37689W        W46489  11.282   1.577   7.594 -0.3616  0.1487  0.2193
37690W        W46490  18.204   0.208   0.951 -0.0178 -0.1289  0.0572
37691W        W46491   5.703   4.527  25.530  0.1427  0.0202  0.2230
37692W        W46492  18.192   6.164   9.908  0.1553  0.2168 -0.1163
37693W        W46493  17.847   2.970  26.257  0.0087  0.2541 -0.1938
37694W        W46494  21.925   1.272  13.806  0.1988 -0.3498  0.0185
37695W        W46495  19.591   5.459  31.046 -0.0415  0.0976 -0.1270
37696W        W46496   3.823   3.259   2.069  0.2728 -0.0509  0.2237
37697W        W46497  10.354   1.353  31.480  0.5575 -0.1465  0.0607
37698W        W46498   9.470   3.273   9.880  0.2905 -0.0321 -0.0183
37699W        W46499  23.148   4.141  11.891 -0.2229 -0.2368 -0.0595
37700W        W46500  15.478   1.437  11.590  0.2819  0.3148 -0.3551
37701W        W46501   2.509   4.563  27.749  0.0961  0.0492  0.1938
37702W        W46502   7.779   2.890  25.789  0.0937  0.0117  0.2308
37703W        W46503   0.039   4.984  11.396  0.0890  0.0126  0.2249
37704W        W46504   4.675   0.455  12.437 -0.1079 -0.1979  0.1356
37705W        W46505   7.589   0.335  32.672 -0.0157  0.0590 -0.0812
37706W        W46506  13.627   4.442   0.957  0.2422  0.0630  0.0532
37707W        W46507  16.275   3.151   6.221 -0.1972  0.0997 -0.1653
37708W        W46508  13.168   3.198   1.172  0.2547 -0.3938  0.1194
37709W        W46509  11.411   5.497  27.821 -0.0674 -0.0590  0.0141
37710W        W46510   7.878   2.561   9.642  0.4370  0.3065 -0.1229
37711W        W46511   0.663   1.255  13.248  0.0262  0.1597 -0.0523
37712W        W46512  20.608   0.831  15.159 -0.1554 -0.2186  0.0945
37713W        W46513  25.354   1.010  13.474 -0.3047  0.1572  0.0171
37714W        W46514  13.982   5.748   3.632  0.0941 -0.1916  0.1755
37715W        W46515   0.361   6.490   1.218 -0.0050 -0.1437 -0.0473
37716W        W46516   2.321   4.364  36.087  0.2903  0.1025 -0.0384
37717W        W46517   4.705   1.907   6.248 -0.0110 -0.0017  0.0188
37718W        W46518  11.070   1.266  12.397 -0.2028 -0.1544 -0.0009
37719W        W46519  17.612   5.687  23.886  0.2032  0.0784 -0.3271
37720W        W46520  12.885   0.377  32.822 -0.2969  0.1071  0.1680
37721W        W46521   4.962   5.760  12.256 -0.0863  0.0832  0.2601
37722W        W46522  13.876   1.157  25.368  0.4703 -0.1633 -0.0261
37723W        W46523  23.809   0.512  33.261  0.2649  0.1246  0.2160
37724W        W46524   9.238   3.456   5.002  0.1356 -0.4206  0.1332
37725W        W46525  13.734   2.520  30.645 -0.0884 -0.0806  0.2668
37726W        W46526  10.701   0.479  15.011 -0.0623 -0.1154  0.2793
37727W        W46527   9.536   1.907  28.157 -0.3858 -0.0809  0.0204
37728W        W46528  14.256   4.341   5.501 -0.1845 -0.3105  0.0065
37729W        W46529   4.310   2.771   9.367  0.0826 -0.0560 -0.0834
37730W        W46530  19.127   1.761  30.362  0.1880 -0.0568 -0.3848
37731W        W46531   2.454   1.029  35.891 -0.1630 -0.2650  0.0647
37732W        W46532  13.976   4.933  25.092  0.1428  0.0225 -0.1348
37733W        W46533  18.320   4.353   3.433 -0.1181  0.1137 -0.1301
37734W        W46534  19.937   4.965  26.662 -0.0105  0.2659  0.1015
37735W        W46535  15.527   1.377  14.142  0.0588 -0.1470 -0.1764
37736W        W46536   8.363   0.049  10.400 -0.0018  0.0780  0.0345
37737W        W46537  23.533   1.572  26.562  0.4550  0.0300 -0.0246
37738W        W46538  18.537   3.693  10.357  0.1325  0.0801  0.0888
37739W        W46539   5.625   4.029  33.831 -0.0163  0.3558 -0.0074
37740W        W46540   0.853   3.638  30.591 -0.0054  0.1034 -0.1502
37741W        W46541   1.198   2.528  10.732 -0.0283  0.1858  0.2284
37742W        W46542  14.929   6.141  24.342 -0.2076 -0.2543 -0.1469
37743W        W46543   0.279   3.125  10.334 -0.0387  0.3820 -0.1646
37744W        W46544  23.138   6.339  13.449  0.1972  0.0209 -0.0271
37745W        W46545  10.462   1.219  14.998  0.0970 -0.0753  0.2283
37746W        W46546   2.015   5.163  27.065 -0.1329 -0.1825  0.1217
37747W        W46547  10.014   0.134  31.775  0.0771 -0.1628 -0.3007
37748W        W46548  25.087   0.577  13.361  0.1424 -0.2293  0.0282
37749W        W46549  22.573   2.270  12.247  0.2264  0.0996  0.0110
37750W        W46550   9.507   0.427  23.343  0.1523 -0.1070  0.0419
37751W        W46551   7.896   2.402  35.918 -0.0963 -0.1804 -0.0590
37752W        W46552  16.408   1.360  29.805 -0.0116 -0.0226  0.1575
37753W        W46553   9.395   4.854  34.652  0.0785  0.0837 -0.1384
37754W        W46554   4.430   6.177  26.824 -0.0614 -0.2018 -0.0789
37755W        W46555   7.230   2.589   2.509  0.0648  0.1512  0.0670
37756W        W46556  19.365   2.196  28.231 -0.0438  0.2053 -0.2030
37757W        W46557  11.249   4.458  30.801 -0.1708 -0.1208 -0.3199
37758W        W46558  13.667   4.572   6.397  0.0774 -0.0325 -0.3268
37759W        W46559  12.165   4.029  31.077  0.0585 -0.1678  0.3109
37760W        W46560  19.195   1.137  28.250 -0.0626 -0.1228  0.2331
37761W        W46561  22.816   0.606  35.432 -0.0737  0.2551  0.1608
37762W        W46562   1.220   3.631   3.643 -0.0388 -0.0513 -0.0113
37763W        W46563   3.931   1.925   6.243 -0.0171 -0.0629  0.0507
37764W        W46564   1.663   3.237  13.062  0.1076 -0.1647  0.1578
37765W        W46565  21.268   4.449  34.764 -0.1860  0.0409  0.1315
37766W        W46566   2.516   1.916  22.681 -0.1706  0.0626  0.4130
37767W        W46567   1.726   1.457   8.232  0.1132 -0.1238 -0.1173
37768W        W46568   0.496   5.361  27.191  0.4589  0.0578  0.1085
37769W        W46569  15.535   4.694  12.999  0.0859  0.1453  0.1776
37770W        W46570  18.553   6.542  23.812  0.1837  0.0165 -0.1962
37771W        W46571  22.794   4.258  32.922  0.2674 -0.1038 -0.0202
37772W        W46572  12.136   1.862  32.276 -0.0284  0.2432  0.1520
37773W        W46573  22.245   4.772  21.277 -0.1446 -0.0589  0.2688
37774W        W46574  14.724   1.293  24.136 -0.2099 -0.1306 -0.2090
37775W        W46575  23.943   1.249   5.980  0.3634 -0.3402  0.1687
37776W        W46576   9.675   6.413  10.994  0.1424  0.1943  0.2994
37777W        W46577  26.331   2.736   6.946  0.0887  0.0813  0.1288
37778W        W46578  10.468   2.954  30.286  0.0029 -0.1083  0.0864
37779W        W46579   0.879   0.844   3.885 -0.0589 -0.2490 -0.2209
37780W        W46580  23.084   0.036  26.352  0.0199  0.3434  0.1049
37781W        W46581   9.558   6.302  24.374  0.1387 -0.0206  0.1201
37782W        W46582   4.852   1.634  14.129 -0.2799 -0.1564 -0.0092
37783W        W46583  25.492   0.346  25.467 -0.2043  0.3581  0.0847
37784W        W46584  11.076   2.119   7.608 -0.2242  0.1249 -0.0224
37785W        W46585   9.353   6.470  24.826 -0.1261  0.0843 -0.0268
37786W        W46586  23.494   1.143  28.120 -0.4811  0.2042 -0.2476
37787W        W46587   4.464   4.096   7.005  0.0310  0.1618  0.0032
37788W        W46588  16.802   2.843  12.332 -0.0353  0.0622 -0.2854
37789W        W46589  25.160   4.186  32.352 -0.2896  0.5008  0.0311
37790W        W46590  14.854   2.368  29.840 -0.1213 -0.0219  0.1965
37791W        W46591  19.753   4.566   0.695 -0.1176 -0.0573 -0.0606
37792W        W46592  12.941   4.652  14.708 -0.4338 -0.0049 -0.0082
37793W        W46593  20.530   4.038  30.264 -0.1911 -0.0443 -0.0825
37794W        W46594   2.215   1.034  10.193  0.0051 -0.1102  0.0925
37795W        W46595   0.986   0.833  26.402  0.4493 -0.3380  0.2531
37796W        W46596  22.113   2.547  24.537 -0.0715 -0.0593  0.2505
37797W        W46597  22.779   1.514  23.902 -0.1311 -0.1167 -0.0947
37798W        W46598  19.408   3.295   4.100 -0.1939 -0.1966 -0.1421
37799W        W46599   5.496   0.698  35.919  0.2842  0.3622  0.0260
37800W        W46600   2.162   2.332  11.440  0.2163  0.2678  0.1763
37801W        W46601  18.596   1.406  34.479  0.0004  0.0903 -0.1346
37802W        W46602   6.867   1.023  12.573 -0.1997 -0.4383 -0.2421
37803W        W46603   8.508   6.429  33.216 -0.2766  0.1294 -0.0672
37804W        W46604   3.981   0.286  11.514 -0.2671 -0.0230 -0.0893
37805W        W46605   8.322   2.854   5.640 -0.1376  0.0596  0.0131
37806W        W46606  22.514   0.233  31.133  0.2099  0.1915 -0.0410
37807W        W46607   6.508   5.380   3.820 -0.2525  0.1639  0.1396
37808W        W46608  13.052   1.649  21.592 -0.1605  0.0117  0.0062
37809W        W46609  22.173   0.620  30.291  0.0775 -0.1434  0.1711
37810W        W46610   2.741   0.570  10.835  0.2514  0.0858  0.1363
37811W        W46611   2.708   5.494  13.482 -0.1868 -0.1787 -0.1704
37812W        W46612  13.716   6.093  25.409  0.1337  0.1640 -0.0054
37813W        W46613  18.033   3.803  30.287  0.0555 -0.0133 -0.2301
37814W        W46614  10.878   5.264  30.980 -0.0485  0.2404  0.0856
37815W        W46615   3.878   1.857  20.592 -0.3196 -0.1335  0.1898
37816W        W46616  23.492   5.886   5.849 -0.3001 -0.0469  0.1511
37817W        W46617  14.741   0.232  29.475 -0.3593  0.1248  0.1102
37818W        W46618  16.876   5.561  28.317  0.0520 -0.3554 -0.0054
37819W        W46619  25.860   3.411  35.385  0.1616  0.0049 -0.0826
37820W        W46620  11.387   0.737   1.858 -0.0572 -0.2143  0.1037
37821W        W46621  15.005   0.728  15.390  0.2458  0.4472 -0.0290
37822W        W46622  13.486   6.271  35.536  0.0162  0.0232 -0.4270
37823W        W46623  15.134   1.958   4.778  0.1823  0.1906  0.0485
37824W        W46624   3.408   6.342  28.428  0.1394 -0.3476  0.1407
37825W        W46625   2.962   4.566  10.559 -0.1950 -0.0963  0.2086
37826W        W46626  17.262   1.391   4.256 -0.2638  0.0046  0.3259
37827W        W46627  10.071   1.155  35.696 -0.1631 -0.0745  0.1736
37828W        W46628   6.341   3.944   4.218  0.3882  0.1113 -0.0881
37829W        W46629   5.305   1.802  29.726  0.0290 -0.2172  0.2447
37830W        W46630  20.821   4.886  30.156  0.1552 -0.0673  0.0498
37831W        W46631   2.678   3.711  11.078  0.0429  0.0030 -0.0789
37832W        W46632   9.328   3.428  21.279  0.0824 -0.2629 -0.2287
37833W        W46633  20.783   4.987  15.121  0.0708  0.2175  0.2286
37834W        W46634  16.194   4.853  12.661  0.0065  0.2289  0.0465
37835W        W46635  17.696   4.598  13.944  0.2201  0.0804  0.1001
37836W        W46636  19.324   5.639  23.646  0.0925  0.0405 -0.1451
37837W        W46637   9.894   6.146  11.393 -0.0586  0.0454 -0.2447
37838W        W46638  20.791   3.920   8.685 -0.1996 -0.0398  0.1343
37839W        W46639  16.310   5.632  28.196  0.1425  0.1121 -0.1370
37840W        W46640   4.440   2.195   3.669 -0.0672  0.2214 -0.2222
37841W        W46641  21.275   5.565  12.974 -0.0912  0.1578 -0.2056
37842W        W46642   0.402   3.047   9.859  0.2066 -0.4005 -0.1962
37843W        W46643   8.999   2.525  32.687 -0.1510 -0.1427 -0.2469
37844W        W46644  13.285   0.647  24.408  0.0165 -0.1503 -0.2233
37845W        W46645   8.475   5.912  22.436 -0.0111  0.0640 -0.0853
37846W        W46646  14.320   0.613  21.717  0.1832  0.1984 -0.0453
37847W        W46647  10.050   3.884  24.127  0.1979 -0.3530 -0.1645
37848W        W46648  19.528   2.553   9.305 -0.3905  0.1095 -0.3155
37849W        W46649  24.886   6.352  32.273 -0.0327  0.0606 -0.0275
37850W        W46650  22.807   0.032  26.797 -0.1120  0.0793  0.1350
37851W        W46651   7.733   0.562  11.500 -0.5357 -0.0645 -0.2239
37852W        W46652  10.285   0.325  33.459 -0.1510  0.0791  0.0226
37853W        W46653  10.665   5.618   7.093  0.1679  0.1143  0.2373
37854W        W46654  10.333   3.499  10.086 -0.1443 -0.2463  0.0151
37855W        W46655   5.710   5.966  20.732 -0.3172  0.0038  0.1524
37856W        W46656  22.053   5.991   4.630 -0.1195  0.0265  0.0414
37857W        W46657  12.837   4.415  30.839 -0.1197  0.2158  0.2854
37858W        W46658  15.964   6.220  33.778 -0.1149 -0.2482 -0.2753
37859W        W46659   6.423   0.714  10.094  0.0237  0.1173 -0.0665
37860W        W46660  19.011   3.443  27.088  0.0646  0.1964 -0.2689
37861W        W46661   3.179   6.144  12.419  0.2885 -0.2220  0.1645
37862W        W46662  23.116   1.200  23.409 -0.1386 -0.3553 -0.3362
37863W        W46663   4.766   4.175  12.864  0.3120 -0.2140 -0.0864
37864W        W46664   8.730   5.506   9.622 -0.0128  0.0553 -0.0951
37865W        W46665  21.861   4.606  35.848  0.0678 -0.3006 -0.2061
37866W        W46666   6.529   0.027  21.784  0.0278 -0.0333  0.2003
37867W        W46667   4.721   3.284   1.049 -0.1451  0.1853  0.1798
37868W        W46668  16.005   2.726  35.863  0.0363 -0.0176  0.1042
37869W        W46669  16.742   6.008  29.042  0.1324  0.3177 -0.1353
37870W        W46670   2.522   3.416  32.656 -0.0240  0.1996  0.1214
37871W        W46671   5.426   4.770  27.656 -0.0105 -0.1755 -0.1640
37872W        W46672   9.608   4.934  14.877  0.3214  0.0696 -0.0638
37873W        W46673  18.657   6.608   9.271  0.0929 -0.0976  0.2485
37874W        W46674   5.552   3.735  11.933 -0.0187 -0.1366 -0.0199
37875W        W46675  14.632   0.692  27.599  0.3661 -0.1500 -0.2841
37876W        W46676  18.424   1.698  34.091 -0.0907 -0.1121 -0.0790
37877W        W46677  15.672   4.123  34.175 -0.2692 -0.0401  0.0719
37878W        W46678  17.074   5.498  23.150 -0.1097 -0.0655  0.0877
37879W        W46679  18.415   6.355  21.145  0.4114  0.2131 -0.0684
37880W        W46680   9.108   5.623  21.072  0.0299  0.0482 -0.1610
37881W        W46681  21.778   2.119  29.786 -0.1200 -0.1236 -0.1887
37882W        W46682   0.742   0.299  27.254  0.0212 -0.0603 -0.3178
37883W        W46683  19.805   2.132   8.100  0.2248  0.0607  0.1589
37884W        W46684   7.263   6.183  24.285  0.1063 -0.2178  0.0131
37885W        W46685  22.628   4.442  30.541 -0.3788  0.1205 -0.3814
37886W        W46686   5.710   0.617  14.351 -0.1653 -0.0241 -0.0428
37887W        W46687  18.443   4.660  29.241  0.2073 -0.1922 -0.2496
37888W        W46688   9.731   0.378   7.185  0.0860  0.2342 -0.0863
37889W        W46689  22.648   3.973   6.921  0.2391  0.2813  0.0264
37890W        W46690  23.375   6.038   0.158 -0.0992  0.0618  0.0656
37891W        W46691   9.903   3.162   3.841  0.0036  0.2370  0.1395
37892W        W46692  18.558   2.388  31.136 -0.2477  0.2368  0.0655
37893W        W46693  20.036   0.477   2.488  0.0977 -0.0045 -0.2112
37894W        W46694   1.066   6.320  33.522  0.1490 -0.0607  0.0766
37895W        W46695   0.637   4.976   2.601 -0.0484  0.1783 -0.1125
37896W        W46696  23.579   1.809   4.752  0.1077 -0.1295 -0.0210
37897W        W46697  18.149   6.006  12.731  0.0282  0.2167 -0.0038
37898W        W46698  11.446   5.858  25.273 -0.2398  0.0708 -0.0407
37899W        W46699   6.691   4.145  20.775  0.0540 -0.0778  0.0153
37900W        W46700  26.250   6.122  35.230 -0.0175  0.2710  0.3372
37901W        W46701   3.605   4.711  31.297 -0.1249 -0.0564  0.3947
37902W        W46702  23.502   2.356   2.996  0.1313 -0.1723 -0.1565
37903W        W46703  19.155   2.244   1.803 -0.2144 -0.2228  0.0456
37904W        W46704  16.012   4.688  24.094  0.4105 -0.0832  0.2170
37905W        W46705  24.283   6.239  28.328 -0.1098  0.2272  0.0041
37906W        W46706   3.711   2.756  11.220  0.3800  0.0422  0.2311
37907W        W46707  15.768   2.983  35.210 -0.1300  0.0819 -0.0185
37908W        W46708  16.197   0.181  26.994  0.1008 -0.0660 -0.2322
37909W        W46709  13.574   1.196   4.688 -0.0724  0.1844 -0.2935
37910W        W46710  21.052   0.403  29.652 -0.1304  0.1237 -0.0089
37911W        W46711  22.172   0.341   4.942 -0.1215  0.0815  0.1493
37912W        W46712   9.649   6.429  26.531 -0.0137  0.0981 -0.3575
37913W        W46713  15.970   0.477  28.268 -0.1594  0.1022 -0.1895
37914W        W46714   8.814   0.442  22.189 -0.2916  0.0064 -0.1254
37915W        W46715  11.173   4.955  30.699 -0.1923  0.2444 -0.2062
37916W        W46716   7.171   1.708   6.527 -0.3066  0.0566  0.2304
37917W        W46717  16.954   4.812  32.566 -0.0656  0.1472 -0.1409
37918W        W46718   1.159   5.614  21.559 -0.1364 -0.1212 -0.2771
37919W        W46719  18.358   4.365   7.163  0.3519  0.3190 -0.1367
37920W        W46720  11.196   3.755   8.168 -0.2890 -0.1403  0.3503
37921W        W46721  12.910   4.920  35.021  0.0403  0.1286 -0.0140
37922W        W46722   2.499   2.105   6.646  0.0902 -0.2158  0.3474
37923W        W46723  14.752   6.538  34.806 -0.3942  0.1802  0.1254
37924W        W46724   4.470   4.016  10.884  0.0353 -0.1881 -0.0291
37925W        W46725  18.068   5.014  24.042 -0.1089  0.1157  0.3385
37926W        W46726   2.146   0.057  24.755  0.0547 -0.2356  0.0498
37927W        W46727  13.811   1.530   0.218  0.2955  0.0750 -0.0515
37928W        W46728  11.926   4.965   3.357  0.0727 -0.1313  0.3186
37929W        W46729  11.146   1.963   8.441 -0.0078  0.0992 -0.2342
37930W        W46730  19.311   1.293  35.446 -0.1893 -0.1055 -0.2522
37931W        W46731  20.274   5.580   9.500  0.2297  0.0736  0.3344
37932W        W46732   7.003   1.492  28.913  0.0447 -0.1602  0.0638
37933W        W46733  23.614   0.459   5.422  0.2989  0.1184 -0.2853
37934W        W46734  21.044   2.619   3.016 -0.0907 -0.0137 -0.1294
37935W        W46735   9.679   2.866   0.693 -0.1334  0.0733 -0.1344
37936W        W46736   7.459   0.707   7.374  0.1547  0.1391  0.1730
37937W        W46737  16.108   5.437   1.336  0.0519 -0.0983  0.1273
37938W        W46738   8.958   6.351  14.367 -0.1609 -0.0033 -0.1590
37939W        W46739  21.346   0.459   5.270 -0.0120 -0.0027  0.0950
37940W        W46740  14.622   3.282  32.771 -0.0825  0.1606 -0.1274
37941W        W46741  17.408   5.284   2.030 -0.2666 -0.0647  0.0831
37942W        W46742  20.590   4.680  24.208 -0.2991  0.0048  0.1589
37943W        W46743  18.274   6.236  24.134  0.0822 -0.1582 -0.0892
37944W        W46744   9.519   2.558   2.346  0.0410 -0.0969 -0.2355
37945W        W46745  20.477   1.702  33.140  0.1459 -0.1143  0.3241
37946W        W46746  10.479   5.502  23.052 -0.1039  0.0461  0.1243
37947W        W46747  20.803   4.212  28.016 -0.0637 -0.1401 -0.0083
37948W        W46748  22.623   4.353  35.374  0.2338 -0.0227  0.1040
37949W        W46749  19.845   3.150  29.253  0.0140  0.4938 -0.0496
37950W        W46750   0.118   2.634   9.942 -0.1901 -0.0313 -0.2017
37951W        W46751   8.922   5.137  34.603 -0.4124 -0.0308  0.1274
37952W        W46752   2.923   5.799  31.810  0.0987 -0.1054 -0.0570
37953W        W46753  25.132   0.676   4.329 -0.1682  0.0661 -0.1259
37954W        W46754  18.898   3.077  12.872  0.0748 -0.0909  0.0630
37955W        W46755  23.758   6.057  35.231 -0.0356  0.1412  0.1733
37956W        W46756  25.909   0.295  21.398 -0.1270  0.0504  0.0482
37957W        W46757  13.042   1.278   3.993 -0.0248  0.0411  0.0079
37958W        W46758   7.273   2.894   5.840 -0.1918  0.0866  0.1280
37959W        W46759  10.605   3.834  23.644  0.2382  0.1116  0.2591
37960W        W46760  24.992   5.242  25.128 -0.0371  0.3320 -0.0311
37961W        W46761  25.782   1.097  13.233  0.2528 -0.0516  0.0413
37962W        W46762   7.433   1.348  26.304  0.1190  0.0597  0.2010
37963W        W46763  18.640   1.858  31.939  0.1229 -0.2643  0.0241
37964W        W46764   5.148   0.388  28.984  0.1372 -0.4401 -0.2564
37965W        W46765   0.462   5.656  35.770 -0.2229 -0.1554 -0.1744
37966W        W46766  19.396   4.247  28.875 -0.1164 -0.0497  0.0928
37967W        W46767  11.928   6.391   4.502 -0.1883 -0.0142 -0.1276
37968W        W46768   6.764   2.011  22.006 -0.0088  0.1071 -0.4458
37969W        W46769   4.977   5.148  26.365  0.0620  0.1834 -0.0776
37970W        W46770  16.107   3.356  11.806 -0.0368  0.4114  0.0830
37971W        W46771  25.094   3.077  24.728 -0.1491 -0.0955 -0.0315
37972W        W46772   6.507   3.602  11.998 -0.1166 -0.1679  0.1626
37973W        W46773  11.960   5.144   6.373 -0.0097  0.2475 -0.0171
37974W        W46774  25.968   4.142  32.464  0.1444 -0.2563  0.1020
37975W        W46775   9.822   3.547  33.012 -0.1108 -0.1356  0.3177
37976W        W46776  12.106   3.501  10.282  0.0749  0.2752  0.0945
37977W        W46777  15.556   1.754   1.284 -0.0463 -0.4877  0.0448
37978W        W46778  12.413   4.375  24.885  0.2545  0.1231  0.0811
37979W        W46779   9.151   4.405   5.758  0.0276 -0.0460  0.3398
37980W        W46780  12.005   1.004  23.482  0.2340 -0.1348  0.2419
37981W        W46781  16.303   1.110  35.819 -0.0096  0.3402 -0.1346
37982W        W46782  15.986   4.931  26.148  0.0859  0.0359  0.2031
37983W        W46783   6.263   2.788  13.260  0.0855 -0.3189 -0.2961
37984W        W46784  19.067   2.598  32.973 -0.0472  0.0473  0.1019
37985W        W46785   7.884   0.668  31.485 -0.2092 -0.0230 -0.2089
37986W        W46786  22.875   1.322   8.840 -0.0098  0.1068 -0.1690
37987W        W46787  26.350   5.041  10.466 -0.2076 -0.0796 -0.1303
37988W        W46788  13.551   5.511  26.782 -0.2043  0.2155  0.0673
37989W        W46789  13.073   6.558  21.768 -0.1329  0.1007  0.1623
37990W        W46790   2.353   6.329  26.905 -0.2651  0.0220  0.0136
37991W        W46791  10.979   4.931   4.379  0.4545 -0.0900  0.0550
37992W        W46792  12.657   4.800  34.431 -0.2755  0.0802 -0.0169
37993W        W46793  17.431   4.577   5.127 -0.0438  0.0048 -0.1993
37994W        W46794  16.052   1.495   7.515 -0.0674 -0.0166  0.0388
37995W        W46795  21.773   4.387  10.816  0.1305 -0.1491 -0.3857
37996W        W46796   9.516   3.906  11.684  0.1420 -0.0570  0.0171
37997W        W46797  22.578   0.460  24.508  0.2039 -0.2160  0.0415
37998W        W46798   6.942   3.582  34.330  0.0747 -0.0330  0.0748
37999W        W46799  24.903   5.407  29.521 -0.2989  0.1115  0.1762
38000W        W46800  16.998   2.597  35.272  0.0469 -0.0925 -0.1775
38001W        W46801  18.275   2.374  22.874  0.3282  0.0847  0.3986
38002W        W46802  16.678   4.753  11.284 -0.0030 -0.1786  0.1165
38003W        W46803  13.600   5.730   0.936  0.0961  0.0595 -0.2350
38004W        W46804  20.958   0.570  21.753 -0.1114  0.2197  0.1618
38005W        W46805  19.321   0.946  31.936  0.1642  0.1344 -0.1779
38006W        W46806  21.624   1.469  12.671 -0.1508 -0.0137 -0.0357
38007W        W46807  20.885   2.794  23.744 -0.1846 -0.0399  0.0547
38008W        W46808   9.256   1.194  21.967 -0.1423 -0.0330  0.0558
38009W        W46809  25.475   4.861  35.007  0.0319  0.2214  0.4319
38010W        W46810   5.728   0.171  22.804 -0.0418 -0.2080 -0.0312
38011W        W46811   4.377   4.294  34.036 -0.2985  0.3355 -0.1669
38012W        W46812  19.427   6.435  28.727 -0.0647  0.0215  0.3478
38013W        W46813   7.028   5.634  20.976 -0.0431  0.3185 -0.0445
38014W        W46814  10.851   5.736  21.303  0.1061 -0.0130  0.0187
38015W        W46815   9.733   3.691  21.489  0.0564 -0.3363  0.0774
38016W        W46816  16.256   0.952  10.078 -0.2646 -0.0520  0.1329
38017W        W46817   9.828   2.246  10.042 -0.1204 -0.0276  0.0957
38018W        W46818   2.610   2.011  28.879 -0.0832  0.0663 -0.0979
38019W        W46819  13.275   3.547  12.816  0.1738 -0.0203  0.0217
38020W        W46820   6.529   1.305   4.753  0.1922 -0.2918 -0.1932
38021W        W46821  22.349   2.469   4.207 -0.1206  0.1754 -0.0920
38022W        W46822   5.368   5.550   8.551  0.0925 -0.2028 -0.1591
38023W        W46823  10.453   4.132   4.499 -0.3093 -0.1618 -0.0387
38024W        W46824  15.523   0.369  35.690 -0.0493  0.0415  0.2566
38025W        W46825   6.536   4.962  23.842 -0.1945  0.0567 -0.0501
38026W        W46826  12.510   2.327  29.888 -0.0431 -0.0840  0.0352
38027W        W46827  21.498   6.199  29.556  0.1930 -0.2900  0.2181
38028W        W46828  17.099   3.341   4.133  0.0441  0.0407 -0.3237
38029W        W46829   0.480   6.414  12.892  0.1992 -0.1307  0.1052
38030W        W46830  25.150   1.295  15.772  0.0666  0.1697  0.0147
38031W        W46831   4.391   4.224  24.828 -0.0822  0.2851  0.0815
38032W        W46832   3.109   3.272  24.542  0.0470 -0.0397  0.4042
38033W        W46833   1.678   1.829  11.056 -0.1067  0.2354 -0.0190
38034W        W46834  20.036   5.101  10.435 -0.1379 -0.1522 -0.0278
38035W        W46835  12.424   1.582  10.071 -0.0276 -0.0676 -0.1012
38036W        W46836   1.867   1.404  10.108 -0.3029 -0.1705  0.2750
38037W        W46837  16.953   1.555   7.600  0.1949  0.0364  0.0159
38038W        W46838   1.505   5.118  35.654  0.1787 -0.3143  0.2038
38039W        W46839   9.084   2.158  23.287  0.1594  0.1092 -0.0239
38040W        W46840  14.793   3.434  10.964  0.0169 -0.2840 -0.0986
38041W        W46841   7.828   5.147   6.444 -0.3007  0.0043  0.0408
38042W        W46842  21.026   1.145  21.002  0.0269  0.1110 -0.0833
38043W        W46843  10.774   4.795  33.469  0.2381 -0.0914 -0.0418
38044W        W46844  13.858   1.755  14.286  0.1974  0.2205 -0.1656
38045W        W46845  12.581   0.053   6.029  0.0338  0.0498 -0.0636
38046W        W46846   8.620   1.690  33.055  0.1556 -0.0166  0.0915
38047W        W46847   3.867   4.895  10.606 -0.2267  0.1502 -0.5559
38048W        W46848  15.895   6.483   1.789  0.0151 -0.2088  0.1563
38049W        W46849  22.439   4.449  25.418 -0.0802 -0.0570  0.1648
38050W        W46850  19.219   4.098  21.157  0.3615 -0.1359 -0.1226
38051W        W46851   7.529   0.493   3.819 -0.0139  0.1690 -0.0501
38052W        W46852  23.985   6.519   1.399  0.0545 -0.2383  0.0179
38053W        W46853  22.074   3.607  30.958 -0.1965  0.1514  0.0522
38054W        W46854   7.126   5.936  11.613 -0.0712 -0.1884 -0.0636
38055W        W46855  23.511   5.205  23.599 -0.2077  0.0500  0.0323
38056W        W46856   0.032   1.591   1.178  0.2243  0.1496 -0.0446
38057W        W46857  25.037   5.870   2.487  0.0095 -0.0044  0.0809
38058W        W46858   2.824   3.920  31.262  0.0355 -0.0089  0.0145
38059W        W46859  11.666   4.869   4.942 -0.0669 -0.0613  0.1021
38060W        W46860  13.483   2.216  23.008  0.1564  0.0864  0.3511
38061W        W46861   9.087   4.779  23.099 -0.0365  0.2032  0.4775
38062W        W46862   9.711   1.962  32.003  0.1359 -0.1301  0.4122
38063W        W46863  11.034   5.025   6.693 -0.0581 -0.1432 -0.1045
38064W        W46864   4.198   0.176   5.597  0.0355  0.5200 -0.0829
38065W        W46865  20.984   2.290  27.432 -0.0037  0.0549 -0.1035
38066W        W46866   9.223   0.925  26.846  0.0036 -0.0207 -0.0883
38067W        W46867   9.370   3.384  33.121  0.0822 -0.1383 -0.0870
38068W        W46868  10.594   3.546  34.856 -0.4713 -0.2214 -0.0960
38069W        W46869   2.923   3.165  33.534 -0.1821  0.1351  0.0810
38070W        W46870  14.364   6.494   5.236  0.0721 -0.1124 -0.1239
38071W        W46871  20.003   6.205  30.799 -0.0882  0.2626 -0.0158
38072W        W46872   0.534   6.310   2.676  0.4496  0.0716  0.0718
38073W        W46873   3.815   5.538   3.034 -0.0352  0.0494  0.1885
38074W        W46874   4.073   3.638   3.316  0.2442 -0.0428  0.0734
38075W        W46875  21.524   5.203  31.990 -0.3519 -0.3457  0.1674
38076W        W46876  15.451   3.004   1.332 -0.0165  0.0639  0.0576
38077W        W46877   6.357   1.587  13.784  0.6234 -0.0290 -0.1469
38078W        W46878  11.249   4.768  27.338 -0.0033 -0.1082 -0.0881
38079W        W46879  18.178   6.092   3.162 -0.2174 -0.0431 -0.0618
38080W        W46880   1.574   6.271   3.643  0.1594 -0.2581  0.2301
38081W        W46881  19.423   5.995  33.544 -0.0032  0.0214  0.2382
38082W        W46882  16.184   2.300  27.705 -0.0449 -0.3269  0.2819
38083W        W46883   5.647   4.930  30.227  0.0066 -0.1393  0.0433
38084W        W46884  13.303   1.817  14.076 -0.3170  0.1784 -0.0681
38085W        W46885  12.811   1.245  10.012  0.0642  0.0998 -0.0596
38086W        W46886  16.887   5.186  29.857 -0.1768 -0.1241  0.0126
38087W        W46887   6.494   4.899   1.810  0.1806  0.0176 -0.2257
38088W        W46888   6.551   0.704  12.275 -0.2743  0.2091 -0.3381
38089W        W46889   0.673   4.525  27.517  0.0834  0.0987  0.0995
38090W        W46890  26.112   5.803  32.517 -0.1002 -0.0258  0.2383
38091W        W46891   0.357   4.197  12.453 -0.2473 -0.1870  0.0073
38092W        W46892  17.627   5.380  25.999  0.1542  0.2496 -0.3269
38093W        W46893  22.706   5.287  16.001  0.4400 -0.0700 -0.2046
38094W        W46894   5.827   1.719  25.693  0.3436  0.1821 -0.0521
38095W        W46895  15.575   0.492   8.791 -0.0461 -0.2306  0.0425
38096W        W46896  17.341   2.192  27.214 -0.0227  0.0766  0.0500
38097W        W46897  20.723   3.803  32.348 -0.1937 -0.1755  0.3074
38098W        W46898   3.236   6.402   9.997  0.3274  0.0749  0.0973
38099W        W46899  16.142   4.240  27.748  0.0088  0.2436  0.0354
38100W        W46900   3.640   2.135   3.881  0.0370  0.2576  0.0437
38101W        W46901   0.729   4.372  34.249 -0.1093  0.0746  0.0654
38102W        W46902   8.150   3.955   8.435 -0.2887 -0.1021 -0.3057
38103W        W46903  23.557   3.361  24.073  0.0347  0.1807 -0.3164
38104W        W46904  10.616   3.379  23.451 -0.0164 -0.1654  0.1710
38105W        W46905   3.238   0.227  28.698 -0.1210  0.1624  0.1211
38106W        W46906  25.473   0.055  27.919  0.0007  0.1837  0.2508
38107W        W46907  19.346   3.329  14.013 -0.1846 -0.0102 -0.1749
38108W        W46908  19.781   6.227  25.310  0.1709  0.0212  0.0760
38109W        W46909  13.787   3.215  28.851 -0.1458 -0.0271  0.0473
38110W        W46910  14.499   4.389  13.788 -0.2785 -0.1413 -0.0270
38111W        W46911   1.742   4.740  12.953  0.2922  0.1575 -0.0805
38112W        W46912  12.578   1.259  10.465  0.0942 -0.4303  0.0421
38113W        W46913  13.159   2.979   6.435  0.0472 -0.2896  0.1553
38114W        W46914   7.307   5.893  25.966  0.2284 -0.2759 -0.2943
38115W        W46915   3.076   0.846  10.544 -0.1023 -0.2885  0.2395
38116W        W46916  16.468   3.295  31.799  0.0871 -0.2592  0.0675
38117W        W46917   6.462   1.786  23.320  0.2079 -0.0094 -0.0288
38118W        W46918  10.762   6.099   5.922  0.2118 -0.3862 -0.1014
38119W        W46919  19.388   1.668  32.824 -0.2648  0.2272 -0.0919
38120W        W46920  10.966   5.245  31.452  0.0251  0.0872  0.1418
38121W        W46921  13.138   0.057  24.935  0.1158  0.0339  0.0448
38122W        W46922   3.859   0.631  26.462 -0.1796 -0.0812 -0.1284
38123W        W46923   8.849   2.184   3.476  0.0103 -0.1182  0.2526
38124W        W46924  10.085   2.962  24.182  0.0897  0.2067  0.6846
38125W        W46925  25.043   3.185   0.982 -0.1755 -0.0527 -0.0253
38126W        W46926   0.202   2.914   5.462 -0.0981 -0.0493 -0.2119
38127W        W46927  24.642   4.618  24.580 -0.3115 -0.1700 -0.1594
38128W        W46928   8.439   2.363  11.920  0.2890 -0.0778 -0.3344
38129W        W46929  13.089   3.652  24.036 -0.0325 -0.0251 -0.0338
38130W        W46930   7.488   3.568   2.770  0.1491  0.1420 -0.4491
38131W        W46931  10.349   6.283  25.802  0.3911  0.0602 -0.0380
38132W        W46932   9.683   5.381  30.526 -0.2886  0.1457 -0.1285
38133W        W46933  17.393   6.218  31.373  0.1760 -0.3580 -0.1767
38134W        W46934  18.169   4.242  32.988  0.2219 -0.4729  0.2939
38135W        W46935  18.108   4.661  33.336 -0.2696 -0.0932 -0.2315
38136W        W46936   1.994   4.822  14.804 -0.0435  0.1437 -0.0504
38137W        W46937  12.628   1.135   9.523 -0.0484  0.1195  0.1354
38138W        W46938  26.137   2.082  20.370 -0.2407  0.1272 -0.1233
38139W        W46939  10.006   4.720  11.029 -0.2619 -0.2904 -0.2744
38140W        W46940  19.228   6.231  26.536 -0.0824  0.3941  0.1761
38141W        W46941  10.521   2.888   4.949 -0.1003 -0.1272 -0.1005
38142W        W46942  11.741   3.450  25.668  0.2400  0.2626  0.4950
38143W        W46943   7.470   3.738  27.314 -0.2813 -0.0040  0.0631
38144W        W46944   6.956   5.736   3.445  0.0338  0.2761  0.2785
38145W        W46945  19.960   1.504  15.061  0.1288  0.1847 -0.5314
38146W        W46946   3.471   2.418  25.534 -0.3763 -0.0759  0.0518
38147W        W46947   5.970   3.583  25.353 -0.0209  0.3202  0.0325
38148W        W46948   6.752   1.676  22.872  0.1174  0.2538 -0.0273
38149W        W46949   2.688   4.398   2.431 -0.0218 -0.2894  0.1082
38150W        W46950  22.739   3.225  30.691  0.1167  0.0375  0.1514
38151W        W46951   8.245   0.268  34.144 -0.0801 -0.0684  0.0171
38152W        W46952   7.899   1.967   9.282  0.2679  0.1589 -0.2220
38153W        W46953   0.744   1.602  12.949  0.2583 -0.2150  0.0983
38154W        W46954   5.226   4.366  25.431  0.1817 -0.1121  0.1476
38155W        W46955  16.788   4.415  28.813  0.2100 -0.2081  0.1748
38156W        W46956  20.919   3.714  28.721 -0.2395 -0.1403  0.1752
38157W        W46957  22.721   0.566   3.818  0.1635 -0.0602  0.2431
38158W        W46958   9.766   1.108  29.096  0.1147  0.0413  0.4013
38159W        W46959  13.787   1.558   5.746 -0.1988 -0.2381  0.1775
38160W        W46960  16.527   1.279  22.676 -0.3579  0.0125  0.2782
38161W        W46961  24.788   4.112   9.669  0.0743 -0.1677  0.1526
38162W        W46962   5.156   2.690  30.015  0.0258 -0.0249 -0.0834
38163W        W46963   5.102   2.165  25.283 -0.0395  0.0064  0.0810
38164W        W46964  22.333   1.863  12.080 -0.0581  0.0395 -0.0959
38165W        W46965   5.550   2.876  24.402 -0.0206  0.0608 -0.1524
38166W        W46966   7.095   4.896   6.115 -0.3498  0.2483  0.0259
38167W        W46967  23.746   2.267  25.283 -0.2554 -0.0656 -0.2699
38168W        W46968  20.644   2.446  35.600 -0.4246 -0.1083 -0.0505
38169W        W46969  25.756   6.608  30.885 -0.0121  0.0999  0.4089
38170W        W46970   8.791   0.844   9.423 -0.3067  0.0752  0.0583
38171W        W46971  21.022   4.707  27.276  0.2353  0.0949  0.1457
38172W        W46972  23.984   2.466   4.464 -0.0858 -0.1830  0.0858
38173W        W46973  16.024   1.886   8.074  0.2370 -0.0850  0.0305
38174W        W46974  20.670   6.086   1.098 -0.0235  0.0037 -0.1138
38175W        W46975   1.656   3.777  14.823  0.2032  0.1564 -0.2770
38176W        W46976   9.644   3.491  25.974  0.2787 -0.1665 -0.0577
38177W        W46977   6.603   0.133  34.100  0.1046 -0.0805  0.0232
38178W        W46978  20.734   6.531   2.001 -0.2602 -0.0868 -0.1093
38179W        W46979   1.452   1.855  10.602  0.0087 -0.1860  0.4751
38180W        W46980  22.325   1.652  21.061 -0.1188 -0.1177  0.2964
38181W        W46981  23.632   3.915   9.873  0.0804  0.1473  0.1897
38182W        W46982  20.492   1.530  21.465  0.1185 -0.1542  0.1760
38183W        W46983   8.403   3.000   8.378  0.2041 -0.2838  0.2401
38184W        W46984  13.849   0.049   1.217 -0.2950  0.2601 -0.1838
38185W        W46985  14.630   2.341  26.634  0.0977 -0.2730 -0.0156
38186W        W46986  13.717   1.543  13.881  0.2045  0.2327 -0.1485
38187W        W46987   5.809   3.352   8.280  0.2098  0.0387 -0.0530
38188W        W46988  11.843   1.206   0.716  0.0674 -0.4138 -0.2944
38189W        W46989  16.760   2.885  13.128  0.1079 -0.1000 -0.1534
38190W        W46990   1.797   6.265  11.528 -0.1880  0.0327 -0.1010
38191W        W46991   2.023   2.726  22.555  0.1760  0.1085 -0.1530
38192W        W46992  12.581   2.251  27.633  0.1154 -0.4217 -0.1159
38193W        W46993  21.102   2.428  23.342 -0.2441 -0.1434 -0.0410
38194W        W46994  18.671   6.576   3.989  0.3055 -0.1482  0.0570
38195W        W46995  16.718   4.111  26.890 -0.1248 -0.0877 -0.1135
38196W        W46996  20.616   3.525   3.322  0.1302  0.2233 -0.1398
38197W        W46997  21.255   4.082  11.023  0.2855 -0.1493 -0.1875
38198W        W46998  15.020   1.421  31.477 -0.1235 -0.3763 -0.0636
38199W        W46999   2.497   4.081  15.110 -0.0039 -0.1836  0.0599
38200W        W47000   5.950   1.044   6.421  0.2312 -0.2037 -0.2493
38201W        W47001  17.637   4.092   4.986  0.2531 -0.4484  0.1520
38202W        W47002  11.932   2.726   7.726  0.3683  0.4142  0.1747
38203W        W47003   8.070   6.476   2.998  0.0730 -0.0167 -0.3167
38204W        W47004  15.090   4.234  14.941  0.1211 -0.2178 -0.0916
38205W        W47005  14.314   5.645  15.118  0.3480  0.0786 -0.2535
38206W        W47006  16.488   2.803  11.013  0.1388  0.0485  0.1266
38207W        W47007  19.859   4.697  35.039 -0.1711  0.0294  0.0301
38208W        W47008  10.364   3.121   6.445  0.0258 -0.0484 -0.6257
38209W        W47009  11.375   1.965  29.838 -0.1037 -0.2884  0.2682
38210W        W47010  19.932   1.590  26.013  0.3360  0.1256  0.0615
38211W        W47011   2.112   1.550   8.537 -0.1529 -0.0468 -0.0857
38212W        W47012  13.439   5.679  24.260 -0.0651  0.4272 -0.3578
38213W        W47013  24.330   3.371  10.603 -0.2136  0.0553  0.2006
38214W        W47014  25.457   3.066   8.730 -0.3351 -0.0002 -0.0681
38215W        W47015  26.100   4.304  28.066 -0.1610  0.2877  0.0519
38216W        W47016  20.300   0.378   4.715 -0.1538  0.2411  0.2238
38217W        W47017   3.860   5.759  13.279 -0.0723  0.1943 -0.2026
38218W        W47018  10.431   2.659  12.443  0.1331  0.0481  0.0787
38219W        W47019  13.610   2.929  14.997  0.1147 -0.0745 -0.0048
38220W        W47020   2.420   3.325  32.122 -0.0370  0.1720  0.2692
38221W        W47021   5.477   1.637  28.120 -0.0721 -0.0799  0.0663
38222W        W47022  13.059   0.942  10.474  0.3527 -0.0010  0.0372
38223W        W47023   9.735   0.259  21.675  0.0022  0.0301  0.1102
38224W        W47024  13.899   6.310   0.324 -0.1205  0.0640  0.1225
38225W        W47025  19.708   3.268  11.947 -0.0582  0.0455  0.4521
38226W        W47026  20.309   4.429   6.228 -0.1098  0.0789 -0.4179
38227W        W47027  17.798   1.743   7.149  0.0696 -0.1671 -0.1221
38228W        W47028  25.385   2.118   7.536 -0.3534  0.1050  0.2649
38229W        W47029  25.956   4.948  35.243  0.0813  0.0841 -0.2576
38230W        W47030   4.442   0.630  14.259 -0.0690 -0.2232 -0.1638
38231W        W47031   2.707   1.568   9.259  0.2721 -0.1049  0.3003
38232W        W47032   9.593   5.452  35.839  0.3169  0.0091 -0.0900
38233W        W47033  21.825   0.301  20.968  0.1468 -0.0611 -0.0219
38234W        W47034  20.743   0.125  34.698 -0.0617  0.2423 -0.1747
38235W        W47035  17.250   6.426  12.571  0.0501 -0.1951  0.0518
38236W        W47036   7.405   4.457  22.487 -0.0385 -0.0754 -0.1602
38237W        W47037  18.263   1.026   5.093  0.0631  0.0964  0.0806
38238W        W47038  12.819   1.066  28.707  0.3151  0.0107 -0.1637
38239W        W47039  19.462   0.788  12.362  0.1582  0.0614  0.1214
38240W        W47040  19.908   4.320   1.802  0.0956  0.0015 -0.2896
38241W        W47041   1.436   3.305  23.391 -0.1390  0.0551 -0.0058
38242W        W47042  14.086   0.435  35.767  0.1687  0.3448  0.2545
38243W        W47043   6.005   3.452  11.875 -0.0126  0.0257  0.1270
38244W        W47044   8.595   4.429  13.678 -0.1544  0.3179 -0.3146
38245W        W47045  14.723   1.826  25.342 -0.0387 -0.1660  0.3932
38246W        W47046  19.769   2.657  25.995 -0.1410 -0.2839 -0.1568
38247W        W47047   3.013   3.271  26.039 -0.2152  0.0778  0.1425
38248W        W47048  21.969   1.283   9.174  0.1278 -0.2743  0.2841
38249W        W47049   6.656   5.746   9.799 -0.0574  0.0129 -0.3367
38250W        W47050   2.456   3.181   9.389  0.1020 -0.3282 -0.1898
38251W        W47051  16.141   4.475   6.512  0.2059 -0.1818  0.1202
38252W        W47052  12.111   6.148  12.633 -0.1517  0.1103 -0.0874
38253W        W47053  13.072   2.991  10.979  0.0750  0.3248 -0.0253
38254W        W47054   4.811   4.397  32.159  0.0096  0.0782 -0.2896
38255W        W47055  11.849   1.527   1.763 -0.1686  0.3354 -0.0803
38256W        W47056  20.339   5.114  24.397  0.1944  0.3583 -0.1095
38257W        W47057   9.545   0.708  10.570 -0.0962  0.0487 -0.1966
38258W        W47058  20.279   2.665  21.364  0.2614  0.3163  0.2635
38259W        W47059   6.718   0.791  29.888 -0.0482 -0.1263 -0.2082
38260W        W47060   7.121   0.760  21.543 -0.0242 -0.2521  0.1087
38261W        W47061  13.226   4.933  32.631  0.1210  0.1231 -0.0550
38262W        W47062  21.000   4.479  11.275  0.3263 -0.2759  0.0280
38263W        W47063   6.663   0.060   5.934 -0.1170 -0.1111 -0.0241
38264W        W47064  11.835   2.781  20.784  0.2894 -0.1981  0.0013
38265W        W47065   4.205   2.368   0.367 -0.0927  0.0129  0.1148
38266W        W47066   1.838   4.617   5.807 -0.0455 -0.0535 -0.1336
38267W        W47067  16.294   2.004  15.471  0.1205 -0.0088 -0.2452
38268W        W47068   6.332   3.007  24.062  0.1153 -0.0015 -0.1748
38269W        W47069  16.487   1.346  34.785 -0.0494  0.0767  0.3688
38270W        W47070   2.144   3.456   0.190 -0.1597  0.3783 -0.2100
38271W        W47071   3.125   2.497  29.518  0.4037  0.2234 -0.1280
38272W        W47072  23.618   6.282  21.502  0.1296  0.1222  0.1478
38273W        W47073  23.692   1.899  31.187 -0.1423 -0.0886 -0.3476
38274W        W47074   4.956   5.805   8.391 -0.1651  0.0241 -0.0978
38275W        W47075   0.264   2.877  27.838 -0.2055 -0.1340 -0.1661
38276W        W47076  20.656   3.264  28.349  0.1491  0.1182 -0.0493
38277W        W47077   6.756   1.168  30.441 -0.3622 -0.0234 -0.2987
38278W        W47078   7.127   1.155   5.133  0.2066 -0.1700  0.2358
38279W        W47079  23.520   4.429  33.167 -0.4461 -0.0740 -0.3334
38280W        W47080  22.977   5.233  24.506  0.0039  0.0326  0.3935
38281W        W47081   0.171   4.414   2.935 -0.0291  0.1541  0.2273
38282W        W47082  23.439   3.140   6.273  0.1088 -0.2923 -0.0290
38283W        W47083   5.581   5.465  11.400 -0.3128 -0.1272 -0.0427
38284W        W47084   1.371   4.246  32.176  0.0938  0.0447 -0.0761
38285W        W47085  22.439   5.617  30.489 -0.0796 -0.0085  0.1231
38286W        W47086  16.639   0.963   1.683 -0.2477  0.1443  0.4020
38287W        W47087  26.174   6.108  10.671 -0.3887  0.0078 -0.0202
38288W        W47088   6.227   5.766  35.482 -0.1070 -0.3084  0.1723
38289W        W47089  10.015   0.133  26.579 -0.1547  0.0642  0.0137
38290W        W47090   4.926   1.810  10.490  0.0262 -0.4785  0.2859
38291W        W47091  19.595   6.507   5.854 -0.0151 -0.1253  0.2934
38292W        W47092   2.820   6.109   7.309 -0.1412  0.0637  0.0536
38293W        W47093   6.358   5.955  30.957  0.0310  0.0549 -0.3040
38294W        W47094  16.738   1.807  13.214  0.1501  0.2549  0.1823
38295W        W47095   1.069   4.567  32.493  0.1524 -0.1336 -0.0904
38296W        W47096  22.533   4.310  12.998 -0.2602 -0.0378  0.0799
38297W        W47097  16.590   0.736   7.476 -0.0610 -0.0726 -0.1076
38298W        W47098   5.427   3.565  10.603 -0.1174 -0.1092 -0.1848
38299W        W47099  10.137   2.440   7.503 -0.2927 -0.0862 -0.0917
38300W        W47100  16.360   0.921  15.287  0.1305 -0.2331 -0.2719
38301W        W47101   7.510   0.412  23.345  0.0251  0.0363 -0.0035
38302W        W47102   2.374   1.708  32.088  0.3088 -0.1396  0.1455
38303W        W47103   7.218   5.234  24.047  0.2849 -0.1210  0.1138
38304W        W47104   2.472   5.506  28.638 -0.0450  0.0826 -0.1980
38305W        W47105  22.345   3.838   1.541  0.2768 -0.0787  0.1930
38306W        W47106   4.462   2.645  23.648  0.2880  0.0731  0.3065
38307W        W47107   0.605   3.380  31.734 -0.2713 -0.1266  0.1772
38308W        W47108  16.983   3.698  33.416  0.1156 -0.1446  0.2360
38309W        W47109  17.532   4.552   1.975  0.1560 -0.0281  0.2232
38310W        W47110  25.668   4.505  22.941  0.1003  0.0712  0.1413
38311W        W47111  22.118   0.725  24.763 -0.2402 -0.0369 -0.1338
38312W        W47112  23.848   1.100  25.964  0.0973  0.2141 -0.3413
38313W        W47113  16.522   4.530   8.076  0.3129  0.0934  0.0793
38314W        W47114  26.264   5.752  25.949  0.1497  0.3185  0.0317
38315W        W47115   5.708   4.718   0.587  0.0218 -0.0779 -0.0941
38316W        W47116  14.691   4.135  12.076 -0.3829  0.2281 -0.0364
38317W        W47117   3.833   0.396  15.627 -0.0241  0.1720  0.1741
38318W        W47118   7.216   0.082   0.374 -0.3430 -0.0150 -0.0318
38319W        W47119  24.906   1.156  32.854  0.1302 -0.0587 -0.1855
38320W        W47120   5.537   0.979  34.194 -0.0010 -0.2930  0.0171
38321W        W47121  15.648   6.059  21.803 -0.3062  0.2263 -0.2374
38322W        W47122   4.505   6.521  20.601  0.1229 -0.0746  0.1064
38323W        W47123  23.262   5.037  31.983 -0.1264 -0.1354  0.0040
38324W        W47124  17.684   4.866   9.400 -0.2090  0.1015  0.2179
38325W        W47125  21.224   1.537  23.118 -0.2849 -0.4401 -0.1246
38326W        W47126  20.497   0.585   2.322  0.1454 -0.0631 -0.1186
38327W        W47127   9.213   0.266  15.254  0.1092  0.1324  0.0038
38328W        W47128   7.502   6.579  35.071  0.2975 -0.0470  0.1938
38329W        W47129  21.871   0.851  34.629 -0.0602  0.2017 -0.1184
38330W        W47130  17.879   1.974  24.770  0.3120 -0.0478 -0.3674
38331W        W47131  10.391   5.649  21.533  0.1888 -0.0879  0.1475
38332W        W47132   4.619   6.366   3.211  0.1391  0.1534  0.2848
38333W        W47133  18.264   4.326  25.706 -0.0608 -0.0747  0.0161
38334W        W47134   2.829   3.649   3.309 -0.3046 -0.0233 -0.1672
38335W        W47135  22.546   2.068  34.101 -0.1788  0.1100 -0.0215
38336W        W47136  11.668   5.038  32.872 -0.1326  0.0097 -0.2177
38337W        W47137  26.280   3.988  32.120 -0.1626 -0.1996 -0.1163
38338W        W47138   2.885   0.486  21.270 -0.0514 -0.0802 -0.1793
38339W        W47139  21.665   3.591   4.504  0.1520  0.0036  0.1342
38340W        W47140   8.723   1.817  28.528  0.0326 -0.2950 -0.2423
38341W        W47141  20.311   4.978  30.190 -0.2357  0.1007 -0.3130
38342W        W47142  11.495   4.193  14.290  0.3663  0.0384  0.0949
38343W        W47143   8.214   1.246   3.491 -0.0786 -0.2791  0.0262
38344W        W47144  11.152   2.150  31.202  0.3282 -0.0206 -0.0874
38345W        W47145   9.460   2.299  33.773 -0.1636  0.1010 -0.2688
38346W        W47146   7.164   3.810  32.740  0.0886 -0.2247 -0.0349
38347W        W47147   1.670   0.903  13.216  0.0322 -0.0748 -0.0263
38348W        W47148   6.305   1.331  23.674 -0.1213 -0.0957  0.2081
38349W        W47149  14.600   5.309  12.659  0.0549  0.2108  0.3319
38350W        W47150   2.241   0.347   2.496 -0.1706  0.3265 -0.1587
38351W        W47151  24.099   3.545  26.140 -0.4307  0.1803  0.1758
38352W        W47152  19.405   1.926   0.371 -0.0473  0.3406  0.1230
38353W        W47153  21.312   1.917  31.090  0.0096  0.1191 -0.1803
38354W        W47154  24.230   3.983  30.730  0.3661  0.0220 -0.2363
38355W        W47155   3.207   2.100   2.400  0.0155 -0.1215  0.0890
38356W        W47156  15.122   0.291  35.378  0.1562 -0.0952  0.0838
38357W        W47157  20.296   5.867  14.325  0.0729  0.0216 -0.2904
38358W        W47158   9.063   5.202   4.604  0.0378  0.0124 -0.2659
38359W        W47159   5.456   1.357  29.927  0.1689  0.0151  0.2664
38360W        W47160  10.505   5.292   5.179 -0.3708  0.0504 -0.1955
38361W        W47161   5.718   4.705  27.230 -0.4372 -0.3627  0.0814
38362W        W47162   7.671   6.260   0.108  0.2780  0.1361  0.4994
38363W        W47163   2.592   4.025  25.906  0.2393  0.0000 -0.2341
38364W        W47164   9.606   2.968  27.147 -0.1495  0.0080  0.3734
38365W        W47165   0.450   2.239  21.393  0.4537  0.1264  0.0361
38366W        W47166   5.148   3.411   5.047 -0.0952 -0.0173 -0.0878
38367W        W47167  10.459   6.262   6.290 -0.4964 -0.4128  0.1900
38368W        W47168  15.967   1.231   7.994  0.0582 -0.0120  0.2247
38369W        W47169   5.468   6.594  31.273  0.0557 -0.1508 -0.1470
38370W        W47170   8.028   2.937  12.605  0.1153 -0.1839  0.0602
38371W        W47171  17.282   6.124  34.592  0.0795 -0.0045 -0.1977
38372W        W47172  20.051   0.551   6.230 -0.1518 -0.0794  0.2868
38373W        W47173  18.935   1.622  23.009  0.0359  0.0117 -0.0025
38374W        W47174  24.521   1.876  34.690 -0.0942 -0.0302  0.2832
38375W        W47175   8.638   2.632  27.054  0.0940  0.0939  0.0595
38376W        W47176  25.829   4.938  13.594  0.1384 -0.2965 -0.0771
38377W        W47177  26.099   5.196  27.996  0.2022  0.0832 -0.0788
38378W        W47178  14.815   2.686  35.732 -0.2093  0.3026  0.2394
38379W        W47179  20.397   6.259  25.053  0.0534  0.1673  0.1097
38380W        W47180  10.431   5.040  11.015  0.1719  0.0214  0.1194
38381W        W47181  15.990   3.440   7.481  0.0228 -0.1722 -0.0695
38382W        W47182   9.245   6.576  30.184 -0.0915  0.2493 -0.1413
38383W        W47183   1.974   1.572   5.991 -0.3572  0.0362  0.0265
38384W        W47184  11.513   3.292  30.176 -0.0716 -0.0324  0.2737
38385W        W47185   3.004   5.380  28.562  0.0433 -0.4585 -0.1140
38386W        W47186  24.224   6.006  10.656  0.1480  0.0464  0.1310
38387W        W47187   1.458   2.678  28.691 -0.0456  0.1988  0.1963
38388W        W47188   8.661   0.936  28.152  0.1817  0.2204 -0.2535
38389W        W47189  17.728   3.451   5.759  0.1743 -0.0229  0.0151
38390W        W47190  15.497   6.536  30.918  0.1158  0.2403 -0.4702
38391W        W47191  25.665   0.282  20.563  0.1637 -0.1356  0.2168
38392W        W47192   4.650   4.706  26.356 -0.2312 -0.1766 -0.0185
38393W        W47193  11.163   2.725  35.438  0.1002 -0.1156 -0.2987
38394W        W47194  24.872   1.927   3.791  0.1417 -0.0972  0.0778
38395W        W47195   9.604   3.335   7.635  0.1567 -0.0242  0.0267
38396W        W47196  12.066   5.016  30.584  0.0727  0.0460  0.2108
38397W        W47197   2.709   5.864   4.196 -0.0409 -0.0167 -0.0895
38398W        W47198   2.787   2.689  26.704  0.0496 -0.1284 -0.1065
38399W        W47199  21.107   1.785  15.088  0.1870 -0.0442 -0.0441
38400W        W47200  25.983   0.416  28.503 -0.2413 -0.0198 -0.0233
38401W        W47201  16.946   3.978  28.975  0.0011  0.0190 -0.2236
38402W        W47202  13.426   6.196  27.706 -0.0278 -0.0912 -0.4259
38403W        W47203   0.218   4.051  29.371  0.3689 -0.1030  0.0857
38404W        W47204  20.106   3.171  11.339 -0.0837 -0.1949  0.1292
38405W        W47205   0.325   5.671   3.781  0.1086  0.0402 -0.2061
38406W        W47206  21.318   3.032  21.452 -0.0741 -0.0755 -0.1407
38407W        W47207  22.327   2.591   0.261  0.0771 -0.0861  0.2093
38408W        W47208   4.585   1.461  32.997 -0.1848  0.1516 -0.1097
38409W        W47209  17.912   1.772   9.663  0.1596  0.2213 -0.0462
38410W        W47210   1.452   2.360  24.018  0.2916  0.2164 -0.1421
38411W        W47211  13.106   2.525  26.085  0.1020 -0.1016 -0.3119
38412W        W47212  15.368   4.794  14.650 -0.0654  0.0400 -0.0917
38413W        W47213   1.120   2.215  35.301 -0.1076  0.2212  0.3901
38414W        W47214  14.941   2.457  24.679  0.1860 -0.3125 -0.1275
38415W        W47215   9.775   1.293   1.924  0.0380 -0.3844  0.1606
38416W        W47216  15.544   1.954  20.721  0.1316  0.3408  0.3276
38417W        W47217  25.987   2.788  33.905  0.0040 -0.1263  0.0307
38418W        W47218  22.759   3.719   9.075  0.0385 -0.0771 -0.0386
38419W        W47219  16.537   3.640  23.881  0.0611 -0.1382 -0.1823
38420W        W47220  15.013   4.475  34.623 -0.1463  0.0444  0.1756
38421W        W47221   8.638   5.077  15.141 -0.1961  0.1290 -0.2921
38422W        W47222  21.275   4.549  10.793  0.0811  0.1327  0.1766
38423W        W47223  15.288   3.939  31.194  0.3609 -0.1101  0.1115
38424W        W47224  26.337   3.652  14.395  0.1427 -0.0543  0.1718
38425W        W47225  20.381   2.054  11.179  0.2131  0.2082  0.0528
38426W        W47226   8.448   5.108   9.487  0.0466  0.4510  0.1031
38427W        W47227   9.893   2.075  29.389 -0.0795 -0.0597  0.1207
38428W        W47228  18.373   2.475   7.682  0.0089 -0.2300 -0.1625
38429W        W47229  10.275   6.526  32.815 -0.3150  0.0182  0.1341
38430W        W47230  10.189   6.238  12.841  0.3622 -0.2207 -0.3066
38431W        W47231  19.193   3.844  31.554 -0.1580 -0.0169 -0.2094
38432W        W47232   0.644   3.428  33.842 -0.1026  0.0282  0.2507
38433W        W47233   0.148   2.971  11.326  0.0551 -0.2989 -0.0272
38434W        W47234  12.584   6.395  33.196 -0.0608  0.3058  0.1542
38435W        W47235  14.237   3.674   9.209 -0.1792 -0.2410  0.0980
38436W        W47236  11.278   3.244   1.099 -0.0636  0.1768 -0.3123
38437W        W47237  13.240   0.125  33.172 -0.0628 -0.0448  0.4059
38438W        W47238  10.857   5.516  28.016  0.1347 -0.1394  0.2779
38439W        W47239   3.098   0.417   2.926  0.0581 -0.1647  0.1624
38440W        W47240  19.419   4.510  28.044  0.3741  0.0143  0.0517
38441W        W47241  18.873   3.724   4.392 -0.0772 -0.2590  0.1988
38442W        W47242  13.837   0.519   9.489 -0.1682 -0.0269  0.1351
38443W        W47243   8.377   5.079  22.672 -0.1560 -0.2165  0.0052
38444W        W47244  16.240   5.607  27.164  0.1636 -0.2691 -0.1285
38445W        W47245  16.632   3.453  34.200  0.1840 -0.0883 -0.0377
38446W        W47246   4.510   0.658  34.123 -0.0084  0.0272 -0.0215
38447W        W47247   1.088   5.318  25.902  0.1652  0.0837  0.1027
38448W        W47248  10.716   0.038  13.284 -0.0168 -0.3319  0.0526
38449W        W47249  24.340   1.477   8.061  0.0742  0.1353 -0.1987
38450W        W47250  11.849   3.089  35.113  0.2313 -0.0629 -0.0473
38451W        W47251  20.754   5.326  13.274 -0.0468 -0.1725  0.1837
38452W        W47252   4.183   3.247   1.740 -0.0331 -0.1155  0.3479
38453W        W47253   5.603   4.099  31.320 -0.1424  0.0530 -0.1862
38454W        W47254  18.823   3.117   2.631  0.1138 -0.2138  0.1798
38455W        W47255   0.379   0.597  30.612  0.1272  0.1031  0.3525
38456W        W47256   1.292   0.196  24.620 -0.0097  0.0791  0.0756
38457W        W47257   5.002   2.825   2.705  0.0510  0.1035 -0.0679
38458W        W47258  14.677   1.757  11.667 -0.0586  0.0117 -0.0601
38459W        W47259   4.679   1.384  27.607  0.0150  0.0075 -0.0489
38460W        W47260   2.930   1.299  14.802 -0.2525  0.0004  0.1160
38461W        W47261  12.120   3.017  14.694 -0.0329 -0.0137 -0.2193
38462W        W47262  16.164   3.270  21.725 -0.0614 -0.2660 -0.1162
38463W        W47263  23.465   3.271   4.635  0.0154 -0.0364  0.1739
38464W        W47264  17.795   1.965  20.803 -0.1012 -0.2610 -0.1508
38465W        W47265  23.721   3.913   3.043 -0.1292  0.2332  0.0094
38466W        W47266  11.980   1.187  20.422  0.0141 -0.2774 -0.4601
38467W        W47267  23.766   2.303   0.617  0.0877  0.0009 -0.0834
38468W        W47268   2.783   3.633   5.214  0.3119 -0.0787 -0.1250
38469W        W47269  10.251   6.606   1.004  0.1493  0.2885  0.1686
38470W        W47270  11.107   1.170   9.188 -0.0791  0.1902 -0.0917
38471W        W47271  18.727   2.981  13.373  0.0283  0.2590  0.2720
38472W        W47272   6.453   3.954   7.568 -0.0836  0.1392  0.0569
38473W        W47273   9.009   5.694  30.058  0.0767  0.1661  0.2075
38474W        W47274  19.904   3.881  12.222 -0.0679  0.1489 -0.1074
38475W        W47275  17.869   6.052   3.715 -0.0266 -0.1115 -0.0286
38476W        W47276  14.921   5.445  34.249 -0.0163  0.1884  0.1410
38477W        W47277  24.495   2.842  26.753 -0.0541  0.0039 -0.0109
38478W        W47278   6.408   0.509  20.785  0.0133  0.0069 -0.0824
38479W        W47279  13.373   5.047   7.487  0.2654  0.3086  0.3356
38480W        W47280  23.809   0.078  13.964  0.0254  0.2151 -0.6147
38481W        W47281   9.725   3.243  29.054  0.0276 -0.4508 -0.0490
38482W        W47282   7.609   1.564   9.308 -0.3700 -0.1851  0.1399
38483W        W47283  16.806   6.589  25.045  0.0215  0.0045 -0.1232
38484W        W47284  14.924   3.533  13.578 -0.0703 -0.2612 -0.0566
38485W        W47285  23.435   0.294  34.408  0.2208 -0.1541  0.0279
38486W        W47286   2.222   3.803   0.555 -0.1001 -0.0630 -0.1950
38487W        W47287  19.958   3.828  29.435  0.1274  0.0825  0.1292
38488W        W47288   9.676   4.900  35.080 -0.2521 -0.3582 -0.0266
38489W        W47289   5.040   5.330   1.307  0.2395  0.0097  0.2124
38490W        W47290  19.294   5.406  10.403 -0.0589  0.2613 -0.1261
38491W        W47291  13.407   6.097   8.476  0.1440 -0.2377 -0.4785
38492W        W47292  22.327   1.142  10.909  0.2090  0.2344  0.2511
38493W        W47293  11.179   2.182   2.188 -0.0869 -0.2200 -0.0217
38494W        W47294  14.782   2.046  24.387 -0.3126  0.1454  0.1128
38495W        W47295  19.552   1.421  13.576  0.0936 -0.0483  0.2484
38496W        W47296   0.748   2.772  33.753  0.2015  0.4233  0.3285
38497W        W47297   7.656   1.117  20.936  0.0435 -0.0667  0.0121
38498W        W47298  17.681   0.861   4.730 -0.0351  0.0228  0.2341
38499W        W47299   1.828   1.837  22.423 -0.0710 -0.2519  0.0637
38500W        W47300  11.493   4.115   4.157  0.0868  0.2053 -0.0651
38501W        W47301   4.337   0.196  24.009 -0.4575  0.0253  0.0039
38502W        W47302   4.658   2.809  23.214  0.1589  0.0820 -0.3093
38503W        W47303  12.741   3.884  29.138  0.0730 -0.0140  0.0955
38504W        W47304  26.040   0.723  29.782  0.0138 -0.3408  0.0352
38505W        W47305  24.827   2.460  11.279 -0.1640  0.0275 -0.3620
38506W        W47306  10.263   0.792  27.348 -0.1360 -0.2352 -0.1098
38507W        W47307   3.398   6.356  15.409  0.1954  0.0088 -0.3061
38508W        W47308  14.842   1.532  30.203  0.1566  0.2029  0.0338
38509W        W47309   6.468   3.986  27.432  0.2717 -0.0633 -0.0886
38510W        W47310  15.923   6.092  29.430  0.2047  0.1498 -0.2408
38511W        W47311   2.224   1.116   5.855  0.1066 -0.2032 -0.1015
38512W        W47312  10.160   6.604  23.866 -0.0603  0.0639 -0.1853
38513W        W47313   8.387   6.158  31.737 -0.1583  0.3875 -0.1741
38514W        W47314  11.347   2.425  33.769  0.3024 -0.0500 -0.0020
38515W        W47315  14.687   1.533  29.696  0.0385  0.1718 -0.0278
38516W        W47316   7.120   4.425  26.785 -0.3648 -0.1603  0.1899
38517W        W47317   7.608   5.568  32.870 -0.3039  0.2583  0.1004
38518W        W47318   8.055   3.198   5.481 -0.0577  0.0609 -0.1391
38519W        W47319  18.233   3.407  13.524  0.1108  0.0234  0.2341
38520W        W47320   3.774   0.803  36.175 -0.0830 -0.1425  0.2850
38521W        W47321  10.804   4.430  13.860 -0.1403 -0.0671  0.1048
38522W        W47322   1.175   4.718   3.664 -0.2595 -0.2899  0.0753
38523W        W47323  12.509   3.566  30.124 -0.0816 -0.0239  0.0895
38524W        W47324   8.120   4.285  25.924  0.3060 -0.1539  0.0875
38525W        W47325   1.586   4.734   8.537  0.0280  0.2445  0.0993
38526W        W47326   6.088   3.882   1.848  0.3614  0.0383  0.1581
38527W        W47327  23.247   6.148  33.027  0.1590 -0.1230 -0.2368
38528W        W47328  14.750   0.669   1.550 -0.0724 -0.1686  0.0844
38529W        W47329   8.368   2.319  33.337 -0.1323 -0.0908 -0.3259
38530W        W47330   8.152   5.260  27.366 -0.0782  0.0785  0.1766
38531W        W47331   1.520   2.439  26.515  0.1558 -0.0204 -0.0135
38532W        W47332  15.869   5.488  34.335 -0.2950 -0.0374 -0.1372
38533W        W47333  12.822   4.576  10.151  0.0019 -0.1660 -0.0729
38534W        W47334   3.266   5.231  22.743 -0.1760  0.1155 -0.0427
38535W        W47335  14.674   0.058   1.552  0.1000  0.1349  0.1186
38536W        W47336   0.094   5.895   0.007 -0.1654 -0.0991 -0.1246
38537W        W47337  22.330   2.769  30.572  0.0945  0.3969 -0.1714
38538W        W47338   4.269   5.666  26.566  0.3031  0.0243  0.1581
38539W        W47339   3.900   1.328  13.394 -0.2148  0.0726 -0.0725
38540W        W47340  22.801   0.511  22.386 -0.2112  0.1357  0.4007
38541W        W47341  17.304   3.151  11.696 -0.1777 -0.1280 -0.0090
38542W        W47342  15.466   3.591  26.728 -0.1315  0.1970 -0.1314
38543W        W47343   0.358   4.925   6.445 -0.0846 -0.2618 -0.0041
38544W        W47344  24.661   5.509   2.562  0.0696  0.1895  0.1128
38545W        W47345  15.822   4.292  21.182 -0.0441  0.2243  0.4579
38546W        W47346   9.106   3.435  15.346  0.0880 -0.0014  0.1728
38547W        W47347   8.790   5.838   2.083  0.0652  0.1116 -0.0980
38548W        W47348  22.906   1.106  12.560  0.1311 -0.2645 -0.1411
38549W        W47349  15.176   3.369  25.107  0.1891  0.0069  0.0377
38550W        W47350  17.477   2.625  31.549 -0.3504 -0.2332 -0.1054
38551W        W47351  14.673   2.413  22.038  0.1895  0.0912 -0.2241
38552W        W47352  16.753   0.945  12.605  0.1778  0.0449 -0.1835
38553W        W47353   7.147   0.705  31.192  0.0974  0.3715 -0.4565
38554W        W47354   3.152   0.335  12.021 -0.0967  0.2124  0.0192
38555W        W47355   9.964   2.734  28.529 -0.0812  0.0845 -0.1703
38556W        W47356   6.862   0.610   1.851 -0.1187 -0.1064 -0.0794
38557W        W47357  21.498   3.160   4.779 -0.3195  0.1323  0.0674
38558W        W47358  17.546   6.579  13.171  0.1234 -0.0954 -0.2321
38559W        W47359   2.471   2.790  22.726  0.2646  0.0329 -0.1018
38560W        W47360  16.408   4.933  14.530  0.0252  0.2659 -0.2304
38561W        W47361  11.446   6.510   9.834 -0.0304  0.1329 -0.0611
38562W        W47362   1.323   6.388  31.866 -0.0595 -0.0275  0.0921
38563W        W47363  23.709   4.207   8.077  0.0935  0.1769  0.0151
38564W        W47364  10.649   1.294   7.193  0.2821  0.1152  0.0027
38565W        W47365  10.918   3.625   2.869  0.2659  0.1795 -0.1463
38566W        W47366   5.584   5.366   2.396  0.2537  0.2711 -0.1675
38567W        W47367   3.037   4.333  21.374 -0.1426 -0.2343  0.0268
38568W        W47368  15.976   2.258   6.500 -0.1154  0.0659 -0.0203
38569W        W47369   8.062   4.694  22.612  0.1289 -0.0381  0.1068
38570W        W47370  14.456   2.833  32.926 -0.0682  0.1935 -0.0199
38571W        W47371  12.172   5.393   5.953  0.3242 -0.0808  0.4832
38572W        W47372   2.027   4.774  33.393  0.1453 -0.1149 -0.2234
38573W        W47373   6.441   2.152   3.649 -0.0559  0.1162  0.0985
38574W        W47374  21.114   6.033  25.188  0.2151  0.0691 -0.1825
38575W        W47375  13.294   3.140  32.754  0.1821  0.0609  0.0079
38576W        W47376  10.716   3.037  14.529  0.2254 -0.1043 -0.3413
38577W        W47377   2.173   1.216  29.295  0.1657  0.1222  0.0497
38578W        W47378  15.334   4.237   3.439  0.0298  0.2481  0.2438
38579W        W47379  14.851   5.392  10.607 -0.0351  0.1197 -0.4221
38580W        W47380  22.245   5.454  26.719 -0.1077 -0.2309  0.0003
38581W        W47381  15.399   1.087  30.738  0.2271  0.1874 -0.1623
38582W        W47382   7.227   4.625  14.446 -0.3454  0.0009  0.1272
38583W        W47383  26.390   4.583   6.446 -0.2927 -0.0704 -0.1564
38584W        W47384  15.822   1.086  30.497  0.1153 -0.2749  0.0058
38585W        W47385   7.046   5.051  29.884 -0.1672  0.1132  0.4310
38586W        W47386  11.549   5.337   3.709 -0.0878  0.0122  0.1246
38587W        W47387   3.983   4.862  25.049 -0.0805 -0.3052  0.0942
38588W        W47388   9.058   5.771  11.286  0.3526  0.0768 -0.1621
38589W        W47389  18.993   2.772  13.732  0.0666 -0.0370  0.2116
38590W        W47390  12.736   4.376  34.803 -0.0532 -0.1020 -0.3546
38591W        W47391  19.023   2.220  11.062  0.3639  0.0693 -0.0466
38592W        W47392   0.076   6.005  26.275 -0.0710 -0.0459  0.1242
38593W        W47393  19.887   6.311   4.074 -0.2579 -0.0501 -0.2933
38594W        W47394  25.854   4.907   2.161 -0.2077  0.3329 -0.2563
38595W        W47395   5.623   3.096  11.136  0.4099  0.2094  0.0169
38596W        W47396  20.025   3.533  11.694  0.0109  0.0704  0.0066
38597W        W47397   7.234   0.141   8.027 -0.2389 -0.2101  0.1680
38598W        W47398  19.236   0.020  31.956 -0.2350  0.0875 -0.0937
38599W        W47399  21.066   4.177  11.785  0.2468 -0.1089 -0.0715
38600W        W47400  17.899   4.687  22.537  0.1833  0.5121 -0.2844
38601W        W47401  20.952   3.474   8.898 -0.0359  0.3123  0.1314
38602W        W47402  22.158   3.595   3.915  0.2912 -0.1252  0.0799
38603W        W47403  25.320   3.898  13.066  0.2421 -0.0657 -0.4325
38604W        W47404   7.088   5.412   8.258  0.0177  0.0003 -0.0746
38605W        W47405   8.460   2.550  29.031  0.0010 -0.3281 -0.0302
38606W        W47406  18.829   0.121   6.087 -0.2737  0.1321  0.0104
38607W        W47407  19.121   5.469  24.804 -0.0252 -0.4485 -0.2723
38608W        W47408   8.778   1.487  15.103  0.0207 -0.1324  0.0393
38609W        W47409   2.149   2.625  30.928  0.2654 -0.4361 -0.0602
38610W        W47410  21.710   2.621  29.973 -0.0526  0.0565  0.1338
38611W        W47411  25.334   4.073  29.327  0.0721  0.0275 -0.3326
38612W        W47412  15.931   6.050  22.251  0.1628  0.1256 -0.4950
38613W        W47413  14.812   1.335  27.092  0.1256  0.1464 -0.0163
38614W        W47414  23.150   1.131  32.328  0.0552  0.1438 -0.0405
38615W        W47415  12.919   4.478   6.222 -0.1493  0.0810  0.3237
38616W        W47416  14.373   3.729   1.034 -0.0308 -0.1934  0.2126
38617W        W47417  15.693   2.170  29.082 -0.2916 -0.0233  0.0014
38618W        W47418  11.281   0.804   9.843  0.1465 -0.0801 -0.0891
38619W        W47419   9.935   1.380   6.558 -0.0684  0.1870  0.0398
38620W        W47420  16.796   0.230   1.356 -0.0521 -0.4584  0.2125
38621W        W47421  13.747   4.904   8.927  0.3842  0.0718  0.2885
38622W        W47422   5.842   2.909  33.214  0.0659 -0.1937  0.0694
38623W        W47423  10.183   5.524  29.389  0.2239 -0.4785  0.2067
38624W        W47424  16.525   4.258  31.957 -0.0925 -0.1610 -0.2030
38625W        W47425  19.231   0.208   9.363  0.0541 -0.0790 -0.2062
38626W        W47426   5.925   2.527   1.961 -0.1706 -0.1073 -0.1874
38627W        W47427   0.369   4.272  14.163 -0.0721  0.0758 -0.0143
38628W        W47428  11.702   1.799  33.291 -0.2982 -0.2069  0.1534
38629W        W47429   2.106   0.787  27.350 -0.2295 -0.3221 -0.2344
38630W        W47430   0.175   5.563  24.002  0.2070  0.2250 -0.1035
38631W        W47431   1.206   6.577   0.165  0.1635 -0.2851 -0.2395
38632W        W47432  15.142   5.166  32.842 -0.0496 -0.1124 -0.0987
38633W        W47433  26.313   6.513  13.546  0.0004 -0.2050  0.2937
38634W        W47434  15.496   1.253   8.144  0.2578  0.0134  0.0356
38635W        W47435  24.606   3.250   3.370  0.0636 -0.0985 -0.2099
38636W        W47436  23.148   0.935   0.059  0.2093 -0.0706  0.0922
38637W        W47437  11.493   0.066   0.182 -0.3969 -0.1069  0.1558
38638W        W47438   3.225   1.055  29.240  0.0600  0.1050  0.0153
38639W        W47439   2.110   5.338  28.975 -0.0064 -0.0903  0.1775
38640W        W47440   1.668   1.453   6.433 -0.4327 -0.1854 -0.1196
38641W        W47441   2.668   4.898  23.330  0.0638  0.0418 -0.2615
38642W        W47442  10.261   0.971   9.888 -0.0749 -0.1412  0.0080
38643W        W47443  20.301   3.304   4.089  0.0437  0.2532  0.0447
38644W        W47444  26.239   5.178  14.612  0.2236  0.0834 -0.0841
38645W        W47445  22.022   6.385   9.549  0.1380  0.0996 -0.1026
38646W        W47446  11.101   3.153  10.622 -0.2028 -0.1307  0.0547
38647W        W47447   4.609   3.439   5.109  0.0341 -0.0024 -0.0178
38648W        W47448   8.510   2.513  22.520  0.1430 -0.0727  0.3279
38649W        W47449   0.064   4.632   1.381  0.2333  0.2139  0.1199
38650W        W47450  22.101   0.831   6.316  0.1427  0.2818  0.0442
38651W        W47451  17.404   6.005  25.561 -0.3791  0.0088  0.3736
38652W        W47452  23.332   0.875  14.612  0.0693  0.0707 -0.3079
38653W        W47453  15.633   2.721   0.462 -0.2671 -0.0151 -0.2212
38654W        W47454   5.273   6.454   9.767  0.1234 -0.0440  0.0046
38655W        W47455   2.329   5.879   2.709  0.0448 -0.0179  0.1498
38656W        W47456  15.199   4.532   9.116 -0.0073  0.1221 -0.1275
38657W        W47457   0.381   0.746   5.187  0.0377  0.1778 -0.0209
38658W        W47458  10.787   3.406  26.908  0.1022 -0.0652  0.0786
38659W        W47459   7.472   6.096  21.427  0.2326  0.0414  0.2675
38660W        W47460  13.490   2.254  34.212  0.0782  0.0558  0.2479
38661W        W47461  17.252   2.097  34.667  0.0447  0.1290  0.1109
38662W        W47462  16.851   0.173  21.423 -0.1030  0.1915  0.1151
38663W        W47463   1.196   0.419  32.556 -0.0664 -0.1981  0.3313
38664W        W47464  23.012   2.924   0.357  0.2047 -0.3605 -0.1782
38665W        W47465   9.362   5.057   8.688 -0.1155  0.2139 -0.1160
38666W        W47466  20.414   4.388  22.197  0.2074  0.1119 -0.2127
38667W        W47467  24.786   2.678  32.630 -0.0415 -0.2749  0.3816
38668W        W47468   4.726   1.167  32.129 -0.0033 -0.1720 -0.0457
38669W        W47469  22.279   2.602  33.296 -0.1712  0.0301  0.0948
38670W        W47470  10.364   6.018   2.913 -0.1289  0.1080 -0.0430
38671W        W47471   2.106   2.100  13.822  0.1398  0.2884  0.4227
38672W        W47472   5.920   5.472   7.753  0.0876  0.0664 -0.1045
38673W        W47473  18.284   1.452  11.500 -0.1522 -0.0527 -0.1130
38674W        W47474  19.489   6.586  20.894 -0.0494  0.0414 -0.1794
38675W        W47475   7.457   0.328  10.558 -0.0457 -0.0023  0.4464
38676W        W47476  17.930   2.721  29.168  0.0628  0.1072  0.2752
38677W        W47477  10.881   2.651  11.944  0.0977 -0.1043  0.2802
38678W        W47478  18.630   1.080  24.616 -0.3724 -0.2195  0.0851
38679W        W47479  25.314   2.100   3.599  0.3723 -0.0581 -0.0252
38680W        W47480   8.096   3.182  30.278 -0.0220 -0.1073 -0.2045
38681W        W47481   8.056   4.531  21.690 -0.1410 -0.0894  0.1928
38682W        W47482   1.941   5.863   6.412 -0.0524 -0.1085 -0.1393
38683W        W47483  24.703   4.261  11.001  0.3098  0.0057 -0.0222
38684W        W47484   1.776   4.506  30.201  0.1311  0.0123 -0.0308
38685W        W47485  25.338   3.662  24.254 -0.3457 -0.1727  0.0550
38686W        W47486  23.306   1.405  26.160 -0.1355  0.0694  0.0440
38687W        W47487  25.861   0.532  30.607  0.1110 -0.1622  0.3905
38688W        W47488   7.110   4.891  30.335 -0.1741  0.1241  0.0592
38689W        W47489   0.338   3.167  32.251  0.0231  0.0563 -0.0339
38690W        W47490  16.067   1.585  34.974  0.1446  0.0609  0.0072
38691W        W47491  25.615   6.494  25.545 -0.1041 -0.1270 -0.1992
38692W        W47492  13.711   4.592   2.607  0.0421 -0.0684 -0.3108
38693W        W47493  10.547   0.315  30.642 -0.2797  0.1466 -0.2549
38694W        W47494  22.895   3.123  10.381 -0.1050 -0.4370  0.1256
38695W        W47495  24.214   4.642   5.787 -0.2184 -0.0024  0.0252
38696W        W47496   5.727   5.779  35.452 -0.3202 -0.0267  0.1262
38697W        W47497  20.264   5.256   2.194 -0.1765  0.1258  0.1617
38698W        W47498  20.000   3.493   8.482 -0.0635  0.1193 -0.2416
38699W        W47499  13.191   2.430   5.110  0.0637 -0.0113  0.0430
38700W        W47500  11.809   4.875  25.550  0.0039  0.0851  0.0670
38701W        W47501  11.962   2.710  14.318  0.0045 -0.0997 -0.0032
38702W        W47502  19.060   5.578  34.844 -0.1452 -0.0668  0.0721
38703W        W47503  21.113   3.412  21.869  0.0092  0.4845 -0.1608
38704W        W47504  10.649   3.086   9.207  0.1390 -0.4236  0.1579
38705W        W47505  21.936   6.181  25.525  0.1000 -0.3424 -0.0212
38706W        W47506   8.309   1.418   7.210 -0.2330 -0.1059 -0.0746
38707W        W47507  16.879   0.064  30.767 -0.0269  0.1032 -0.0995
38708W        W47508   5.861   4.294   1.682  0.3894 -0.0402 -0.1697
38709W        W47509  26.048   1.195  35.514  0.1913  0.3132  0.1220
38710W        W47510  25.525   3.886  10.027 -0.1733 -0.0064  0.0402
38711W        W47511  14.927   4.272   6.199 -0.1555 -0.0065  0.0741
38712W        W47512  13.922   5.896  14.932 -0.1035  0.1815  0.0653
38713W        W47513  14.751   2.219  11.496  0.0193 -0.1837 -0.1058
38714W        W47514  11.555   3.722   1.614  0.0303 -0.1383  0.1871
38715W        W47515  19.638   0.753   8.641  0.1434 -0.4840  0.2446
38716W        W47516  21.372   0.463  29.218 -0.0851  0.3400  0.3013
38717W        W47517   8.784   2.972   5.514  0.1121 -0.0388  0.2495
38718W        W47518   4.300   3.531  20.352  0.3206 -0.1655 -0.0506
38719W        W47519  20.302   0.156  13.512  0.0186  0.0263  0.1960
38720W        W47520  21.451   5.054   1.134 -0.0906 -0.2852 -0.0400
38721W        W47521   4.691   3.467  10.887 -0.0806 -0.2197 -0.2855
38722W        W47522  13.000   2.036  25.954  0.2095  0.2199 -0.0561
38723W        W47523  23.335   0.311  10.813  0.1331 -0.1149 -0.0415
38724W        W47524  18.040   5.185  10.345  0.2206 -0.2768  0.0188
38725W        W47525   1.749   3.286  23.821  0.2370 -0.0625  0.0106
38726W        W47526  13.016   5.074  26.125  0.0843 -0.2404 -0.1718
38727W        W47527  16.335   3.425   5.727  0.1272 -0.1849  0.1897
38728W        W47528  21.233   0.958   2.231  0.2072  0.2363 -0.2847
38729W        W47529   7.895   3.657  21.473 -0.0574  0.3271  0.2710
38730W        W47530   4.013   1.133  32.337 -0.0756  0.1045  0.1354
38731W        W47531   7.728   3.745   2.104  0.0041 -0.2184 -0.0377
38732W        W47532  18.889   2.207   6.394 -0.3822 -0.2717 -0.1677
38733W        W47533  11.375   0.162  32.869 -0.3768 -0.0502  0.1433
38734W        W47534  12.990   4.404   4.815 -0.0777  0.0749  0.1243
38735W        W47535   1.994   0.365  33.766  0.3673 -0.0991  0.4758
38736W        W47536  16.975   5.418  33.866  0.0731  0.2582 -0.1905
38737W        W47537   2.843   2.846  12.534  0.3394  0.3381  0.0615
38738W        W47538  10.971   4.101   8.517  0.0321 -0.0141 -0.1955
38739W        W47539  10.573   5.217  27.648  0.2095  0.0044  0.0516
38740W        W47540   0.338   6.571   0.620 -0.0119 -0.1964  0.2752
38741W        W47541  21.324   0.118  12.269  0.2493 -0.3208 -0.1367
38742W        W47542  12.352   3.607  27.784 -0.1083  0.2343  0.2280
38743W        W47543  14.302   3.883  29.224 -0.1539 -0.1712 -0.2076
38744W        W47544  22.922   4.153   9.907 -0.2841 -0.0597 -0.1728
38745W        W47545  15.287   3.146  21.507 -0.3275 -0.0817  0.1500
38746W        W47546  22.118   5.302  27.587 -0.0666  0.3912 -0.1888
38747W        W47547   6.025   1.451  13.403  0.1236 -0.2127 -0.0967
38748W        W47548   6.636   5.014  12.297 -0.0589 -0.0704  0.0610
38749W        W47549  20.376   3.544  12.186 -0.0535 -0.2599  0.1286
38750W        W47550   2.023   0.884  28.088  0.0631  0.0198 -0.1507
38751W        W47551   1.049   0.853   9.201  0.1817  0.0191  0.0895
38752W        W47552   8.483   0.630  32.669 -0.4490 -0.1389  0.1938
38753W        W47553   1.437   1.287   7.859  0.1527 -0.3655 -0.1687
38754W        W47554   2.481   1.173   3.870  0.2752 -0.4106  0.1749
38755W        W47555   9.636   2.321  35.162 -0.0671 -0.1515  0.1652
38756W        W47556  14.103   2.883  28.645  0.0522  0.0843  0.1514
38757W        W47557  24.208   3.330  28.950  0.0243  0.1546  0.1725
38758W        W47558  22.753   4.841  13.682  0.2276 -0.0780  0.1541
38759W        W47559   2.937   3.749   7.869 -0.1243 -0.0819  0.3775
38760W        W47560   8.840   6.472   0.130 -0.0304  0.1967 -0.0444
38761W        W47561  12.627   1.827  26.604  0.1345  0.0103 -0.2609
38762W        W47562   2.637   5.270  11.734  0.1655 -0.2044 -0.0445
38763W        W47563   8.947   1.412  26.770 -0.2490 -0.2086 -0.1864
38764W        W47564  23.620   0.441   6.097 -0.3649 -0.2695 -0.2234
38765W        W47565   1.194   3.242   0.723  0.2437 -0.1458 -0.0903
38766W        W47566  14.009   2.946  31.436 -0.0132 -0.0610  0.1996
38767W        W47567  24.610   4.264  24.082  0.0279 -0.2811  0.5998
38768W        W47568  18.841   0.656   0.380 -0.0789 -0.2871 -0.0526
38769W        W47569   8.181   0.278   9.824 -0.0408 -0.2065 -0.3295
38770W        W47570  12.775   2.548  12.233 -0.0220  0.2054  0.0314
38771W        W47571  10.429   4.875  23.033 -0.2630  0.0750  0.1199
38772W        W47572  16.546   2.001  34.209  0.0942  0.0613  0.1104
38773W        W47573  20.543   3.219   7.927 -0.0640  0.1939  0.1229
38774W        W47574  19.466   4.006  28.207  0.0415 -0.0035 -0.0486
38775W        W47575  18.500   2.019  29.742 -0.0270 -0.1699 -0.1721
38776W        W47576   6.057   4.626   5.881 -0.1358 -0.1808 -0.2287
38777W        W47577  22.084   5.312  15.273 -0.4176  0.0186  0.0065
38778W        W47578  17.312   5.279  25.344 -0.0765 -0.0779  0.0829
38779W        W47579   6.086   6.530   3.065  0.0422 -0.0489  0.0310
38780W        W47580  23.313   4.236  24.740 -0.1484 -0.0775 -0.1804
38781W        W47581   1.492   4.178  15.157 -0.0004  0.2271  0.0064
38782W        W47582  13.575   3.328   9.858  0.2256  0.1049 -0.3470
38783W        W47583  24.726   5.862  33.976  0.0638 -0.1138  0.1433
38784W        W47584   6.761   5.235  13.214  0.3017 -0.1213  0.0196
38785W        W47585   9.910   2.959  22.859 -0.2046 -0.0794 -0.0763
38786W        W47586   8.772   1.276  23.236 -0.1706 -0.0715  0.0808
38787W        W47587  16.600   3.657  32.647  0.0095 -0.1896  0.1636
38788W        W47588  25.147   6.407  14.599 -0.3050 -0.1192 -0.1443
38789W        W47589  18.138   0.286  23.382 -0.0153 -0.2219  0.0383
38790W        W47590   4.901   5.854  34.143 -0.1642 -0.0419 -0.0629
38791W        W47591   7.838   3.616  24.097  0.0618 -0.0634  0.1525
38792W        W47592  20.881   5.306   7.189 -0.0477 -0.1115  0.2292
38793W        W47593  22.895   3.828  11.608 -0.1103 -0.1921  0.2924
38794W        W47594  21.323   3.414  32.017  0.1486  0.0706  0.1739
38795W        W47595  13.445   0.717   4.508  0.1115  0.1092 -0.1812
38796W        W47596   8.026   2.784  30.696 -0.1289  0.0784 -0.3895
38797W        W47597  23.222   3.956   1.701  0.2193  0.1923 -0.1953
38798W        W47598  18.231   4.257   8.778 -0.0461  0.0870 -0.2318
38799W        W47599  14.132   5.405   7.036  0.0167 -0.0247  0.2958
38800W        W47600  25.836   3.303  26.848 -0.2408  0.0481  0.3801
38801W        W47601   0.422   4.493   9.901  0.1104 -0.2409 -0.2723
38802W        W47602  26.196   5.506  31.513 -0.1369 -0.0870  0.0544
38803W        W47603   9.292   0.497  25.417  0.2942 -0.0143  0.0402
38804W        W47604   0.767   6.522  21.015  0.2477  0.0002  0.2659
38805W        W47605  24.580   1.522   1.872 -0.2424  0.1657  0.0549
38806W        W47606   1.092   2.148  31.571 -0.0557 -0.0497  0.0140
38807W        W47607  14.773   0.283  32.680  0.0382  0.1210  0.0633
38808W        W47608   6.884   4.959  11.809 -0.0310 -0.1096 -0.0752
38809W        W47609  13.906   4.136   2.822 -0.2428 -0.1632  0.1894
38810W        W47610   4.100   5.962   8.413  0.1607 -0.0169  0.0015
38811W        W47611   1.815   3.169  27.358 -0.0609  0.0323 -0.1710
38812W        W47612  18.150   3.430  10.140  0.0110 -0.0587  0.0557
38813W        W47613  22.651   2.993  25.555  0.2315  0.2533  0.0517
38814W        W47614  24.506   3.788  29.868  0.3847  0.2817  0.0692
38815W        W47615  13.536   5.969  13.810  0.0097  0.3207  0.1407
38816W        W47616  16.659   1.584  28.405  0.2695 -0.4117 -0.1878
38817W        W47617  22.968   4.484  30.134  0.1002 -0.0405  0.0412
38818W        W47618   3.183   5.367   4.860 -0.0968  0.2673 -0.0160
38819W        W47619  10.407   3.492   7.431  0.1570 -0.2374  0.0237
38820W        W47620   5.646   3.349  32.904  0.0864  0.1170  0.4495
38821W        W47621  22.118   6.502  35.882  0.0278  0.0313 -0.2052
38822W        W47622   7.817   2.886  31.174 -0.4905 -0.3462 -0.2136
38823W        W47623  18.730   6.312  32.716 -0.3879  0.0923  0.2906
38824W        W47624   8.243   5.855  21.610 -0.0236 -0.1466 -0.0492
38825W        W47625  20.783   2.080  31.704  0.0649 -0.3410 -0.0650
38826W        W47626   7.398   5.872  31.438  0.3441  0.4957 -0.1309
38827W        W47627   3.458   3.020   3.432  0.2159  0.2535  0.0921
38828W        W47628  21.184   3.894  28.216  0.1807 -0.4189  0.1259
38829W        W47629   8.999   5.891  13.976 -0.0395  0.0498 -0.1446
38830W        W47630  23.244   5.179  27.553 -0.1667  0.0597  0.1184
38831W        W47631  20.486   3.148  27.351  0.1659  0.2023 -0.0266
38832W        W47632   5.359   4.919   2.358 -0.2769  0.0299 -0.1560
38833W        W47633  18.461   1.576   5.128 -0.3364  0.0060 -0.1439
38834W        W47634  21.952   3.284  28.253  0.0373 -0.1133 -0.3016
38835W        W47635   1.345   3.311  27.988 -0.1611 -0.2920  0.0865
38836W        W47636  18.668   5.927  34.873  0.0081  0.5188  0.2656
38837W        W47637   0.230   4.254   5.581 -0.1139  0.2147 -0.0174
38838W        W47638   9.138   2.767  14.731 -0.1595  0.0311 -0.0549
38839W        W47639   3.059   0.061   4.540  0.0759  0.0316 -0.0344
38840W        W47640   3.296   4.822   4.681  0.3297  0.1280  0.0400
38841W        W47641  20.242   1.112  35.576  0.0071 -0.0722  0.0317
38842W        W47642  12.636   2.441  13.322  0.4980  0.1710 -0.1864
38843W        W47643  23.432   4.396  23.201  0.1677  0.2648 -0.1314
38844W        W47644   0.272   5.962  25.785  0.0883  0.1335  0.2271
38845W        W47645   2.502   0.265   0.231  0.0223  0.1588  0.1731
38846W        W47646  24.038   0.371  34.985  0.0190  0.1396 -0.3661
38847W        W47647  21.442   0.590   2.844  0.2145 -0.0081 -0.0721
38848W        W47648  25.864   4.701  10.942 -0.2178  0.4928  0.1124
38849W        W47649  19.874   2.074  11.478  0.0083 -0.1708  0.1551
38850W        W47650   3.056   5.983  22.594 -0.0677 -0.1412 -0.0117
38851W        W47651  16.706   2.538  11.553 -0.0899 -0.0430 -0.2121
38852W        W47652   1.266   5.069  22.296  0.2715 -0.0988 -0.3402
38853W        W47653  20.564   5.936  23.691 -0.2600  0.2866 -0.2188
38854W        W47654   3.697   4.893   3.192  0.1005  0.0227 -0.1321
38855W        W47655  19.709   5.146   3.492  0.1810  0.1117  0.0285
38856W        W47656  23.032   0.011  27.250  0.0741 -0.1932 -0.0848
38857W        W47657   2.096   4.996   6.147  0.0627 -0.1285  0.1230
38858W        W47658   2.249   6.565  34.535  0.1978  0.1638  0.0403
38859W        W47659  23.824   2.770  25.083 -0.0481 -0.1351  0.1207
38860W        W47660   8.979   3.474  11.233 -0.0073  0.2458 -0.2658
38861W        W47661   8.922   5.213  28.276 -0.0468  0.1044 -0.2163
38862W        W47662   4.699   6.071  30.182  0.0168  0.3025  0.0574
38863W        W47663  23.139   3.939  14.094  0.0232  0.0354 -0.0566
38864W        W47664  13.394   4.105  32.504  0.0682 -0.2186 -0.1532
38865W        W47665  16.606   4.606  33.372  0.0674 -0.2280 -0.0092
38866W        W47666  25.228   2.843  28.880  0.1446  0.2082 -0.0986
38867W        W47667   6.389   4.599   3.005  0.0083  0.2484  0.0596
38868W        W47668  13.622   0.091  32.195  0.1670  0.1021 -0.2907
38869W        W47669   4.045   5.666  12.545  0.0622 -0.0411  0.0725
38870W        W47670  16.259   0.607  30.231  0.2532 -0.1373 -0.2601
38871W        W47671   5.420   2.358  11.868 -0.1230 -0.0125 -0.1963
38872W        W47672   1.778   0.690   9.534 -0.1432  0.0724  0.4475
38873W        W47673  24.649   5.870   6.806  0.1588 -0.1469  0.3299
38874W        W47674   0.962   0.310  26.310  0.0935 -0.1729 -0.2247
38875W        W47675   8.970   2.256  27.072 -0.1939  0.1399  0.0278
38876W        W47676  25.468   4.400   0.267  0.0843 -0.0845  0.0888
38877W        W47677   9.294   0.689  14.408 -0.1597 -0.0162  0.0074
38878W        W47678  19.888   2.271  33.086  0.2280  0.1810  0.0572
38879W        W47679   4.289   0.159   1.877 -0.0173  0.0643 -0.4984
38880W        W47680  17.454   6.463  34.213 -0.0265 -0.0506 -0.0026
38881W        W47681  14.482   1.009   2.575  0.2716 -0.0661  0.1261
38882W        W47682  16.718   4.201   2.295  0.0704  0.1030  0.0470
38883W        W47683   1.740   1.868   9.967  0.0670 -0.0716 -0.1893
38884W        W47684  10.249   2.536  25.554  0.0388 -0.0164 -0.2086
38885W        W47685   8.252   4.965  13.731  0.0624 -0.0010 -0.0109
38886W        W47686   1.967   2.796  13.227  0.0186 -0.2469 -0.3286
38887W        W47687   5.175   1.783  26.341 -0.1628  0.1506 -0.1626
38888W        W47688  19.844   4.581  21.388 -0.0373  0.0754 -0.1351
38889W        W47689   4.847   3.923  15.400 -0.2880  0.1644  0.0694
38890W        W47690  23.544   0.675   9.743  0.1622  0.0386  0.0276
38891W        W47691  15.293   2.547  24.003  0.1704  0.0944  0.0993
38892W        W47692   3.443   3.697   7.084  0.0359  0.0264  0.0844
38893W        W47693   6.503   5.748   4.689 -0.0400 -0.0850  0.0202
38894W        W47694  12.726   3.932  27.028 -0.0232  0.0434 -0.1332
38895W        W47695  25.202   1.468   0.406  0.0676 -0.3116  0.2682
38896W        W47696   5.528   4.857   5.963 -0.0855  0.2557  0.3588
38897W        W47697   2.558   5.010   4.074  0.0105  0.3779  0.0192
38898W        W47698   6.122   4.333   5.403  0.0763 -0.0789  0.1282
38899W        W47699   8.495   0.853   0.694 -0.2997 -0.0998  0.2347
38900W        W47700  13.149   5.641  22.100  0.0594  0.2052 -0.1989
38901W        W47701  14.223   0.748  21.131 -0.1726 -0.0671  0.1525
38902W        W47702  21.241   4.445  28.217  0.1304  0.0462 -0.0016
38903W        W47703  25.755   6.076  25.713 -0.0564  0.1536 -0.1172
38904W        W47704   5.024   4.161  25.812  0.0807  0.0803  0.1624
38905W        W47705   9.634   1.551  34.210  0.0992  0.1007  0.0980
38906W        W47706  24.747   3.293  29.575 -0.0673  0.0000  0.2556
38907W        W47707  19.861   4.934  23.295 -0.1891 -0.0420 -0.5025
38908W        W47708  13.620   0.058   0.223  0.1486 -0.1856  0.0830
38909W        W47709   5.376   6.047  28.853 -0.0007  0.0452  0.1236
38910W        W47710  13.298   3.077  31.628 -0.0095 -0.4602 -0.0624
38911W        W47711   4.965   6.379   8.490 -0.1473  0.1514 -0.2932
38912W        W47712  16.398   5.399  14.307 -0.2890 -0.4599 -0.0488
38913W        W47713   5.375   0.527  15.189  0.1140 -0.0521 -0.1436
38914W        W47714   4.895   5.953  32.721  0.0655 -0.0054 -0.0536
38915W        W47715   4.351   1.383  12.791 -0.3105 -0.1449 -0.3515
38916W        W47716  14.184   1.534   2.832 -0.0637  0.0254  0.4108
38917W        W47717   8.808   0.205   5.477 -0.3256 -0.0816  0.0472
38918W        W47718   5.799   2.245  31.990  0.0124 -0.0166 -0.2029
38919W        W47719   6.405   3.311  29.801  0.0662 -0.1427  0.1723
38920W        W47720  18.115   4.148  28.855  0.1781  0.0464  0.3103
38921W        W47721   5.082   0.734  30.706 -0.5397 -0.0168 -0.0278
38922W        W47722  12.341   5.634  22.173  0.0716  0.0683 -0.0319
38923W        W47723   4.893   4.672   1.686 -0.0060 -0.0224  0.2008
38924W        W47724   1.569   3.136   3.421  0.1737  0.2468 -0.3394
38925W        W47725  13.990   4.578  29.387 -0.2983 -0.2680 -0.1296
38926W        W47726  17.097   5.623  10.082 -0.1913  0.0767 -0.1299
38927W        W47727  17.920   1.544  33.816  0.2486 -0.0365  0.0827
38928W        W47728  15.890   5.551   9.536  0.1000  0.1752 -0.0166
38929W        W47729  23.820   2.276  35.137  0.0009 -0.2345 -0.1677
38930W        W47730  13.327   2.978  29.009  0.1154  0.0875 -0.1711
38931W        W47731  20.934   1.839  25.227 -0.0055  0.3155  0.0379
38932W        W47732  10.469   5.198  26.207 -0.5715  0.0028  0.2601
38933W        W47733  24.974   1.486  33.288 -0.1125 -0.0777  0.3843
38934W        W47734  10.565   3.188  24.995  0.0695  0.0189 -0.2222
38935W        W47735  22.016   6.127   2.529  0.1108  0.3102  0.1248
38936W        W47736  22.330   5.640  31.359  0.1210 -0.1141  0.0935
38937W        W47737   9.308   2.814  36.132 -0.2136  0.2425 -0.0945
38938W        W47738   8.433   1.851   0.187  0.1334 -0.0562 -0.2666
38939W        W47739  12.347   6.248  25.737 -0.0422 -0.0058  0.0319
38940W        W47740   4.193   2.448  31.884 -0.0358  0.1892 -0.0768
38941W        W47741  13.593   3.925  26.621  0.0622 -0.0010 -0.2905
38942W        W47742   5.720   6.528   4.892 -0.2138 -0.0228 -0.2700
38943W        W47743  18.930   2.001  24.662  0.1080 -0.4728 -0.2188
38944W        W47744   2.473   5.349   0.926  0.0723 -0.1155  0.0517
38945W        W47745   3.496   2.948  22.395 -0.1527  0.1424  0.4195
38946W        W47746   8.620   0.308   4.474  0.1363 -0.0535  0.0155
38947W        W47747  13.848   4.988   4.080  0.1903 -0.0119 -0.4453
38948W        W47748   6.537   0.642   0.564 -0.2593 -0.0031  0.0259
38949W        W47749  19.225   6.222   4.367  0.0070 -0.2076  0.3276
38950W        W47750  22.258   3.886   9.276 -0.0351 -0.1619 -0.0537
38951W        W47751   9.476   6.081  32.093  0.1766  0.0710  0.2931
38952W        W47752   6.535   0.418  33.767  0.0983 -0.0237  0.0546
38953W        W47753   8.782   3.594  10.653  0.0839  0.1409  0.1582
38954W        W47754  25.642   4.622  27.128  0.0512  0.0477  0.1340
38955W        W47755  12.510   0.089   3.759 -0.0850  0.2941 -0.2033
38956W        W47756   1.467   2.164  14.029 -0.0461 -0.1287 -0.1486
38957W        W47757  18.452   4.210   8.307 -0.0745 -0.1258  0.3406
38958W        W47758  11.330   5.682  30.778 -0.0685  0.0571  0.0961
38959W        W47759   4.495   2.812   6.374 -0.0161  0.1080 -0.0615
38960W        W47760  24.506   1.402   6.179 -0.2732 -0.0633  0.0399
38961W        W47761  22.199   4.131  31.207 -0.0857  0.1044 -0.0233
38962W        W47762   5.145   0.485   0.512 -0.0234 -0.3497  0.1337
38963W        W47763  19.856   1.192  13.953 -0.0542 -0.0132 -0.0720
38964W        W47764  13.422   0.269   4.127 -0.2552  0.1685 -0.1185
38965W        W47765   2.639   2.038  25.445 -0.0613  0.1222  0.0554
38966W        W47766  21.795   5.516  23.260 -0.1537 -0.3129  0.0109
38967W        W47767  21.865   5.774   8.956 -0.1631  0.1353  0.0247
38968W        W47768  23.279   1.321  29.045  0.1249  0.1047 -0.1966
38969W        W47769   8.083   6.469  23.574  0.2367  0.1265 -0.0247
38970W        W47770  18.039   4.115   0.101 -0.0327 -0.1515  0.1925
38971W        W47771  17.690   3.027  30.687 -0.1590  0.2856 -0.5031
38972W        W47772  13.830   0.920   4.038  0.1281 -0.1393 -0.2013
38973W        W47773  21.933   4.253  13.827 -0.2151  0.0953  0.1499
38974W        W47774  21.875   3.189  34.828 -0.0012 -0.1018  0.0891
38975W        W47775  10.290   0.347  27.583  0.0431 -0.0190 -0.1156
38976W        W47776  12.704   4.386  26.417  0.0380 -0.0632 -0.0878
38977W        W47777  18.715   1.258  11.204  0.0580 -0.2428 -0.0394
38978W        W47778  11.183   1.593  13.209 -0.0172  0.1655  0.0445
38979W        W47779  19.960   5.131   7.479  0.1597  0.1083 -0.0808
38980W        W47780   5.442   1.371  25.721 -0.3360  0.0667  0.0768
38981W        W47781  24.378   2.341  10.466  0.1800  0.2409  0.0166
38982W        W47782   1.047   4.746   6.847 -0.1385  0.0040  0.0085
38983W        W47783  23.560   0.751  14.054  0.0909 -0.1630  0.0807
38984W        W47784  25.741   5.145  31.994 -0.0010  0.0579  0.1330
38985W        W47785   3.021   2.375  25.166 -0.6102  0.0072 -0.0633
38986W        W47786  26.036   4.402   9.245  0.0411 -0.1213  0.2618
38987W        W47787   5.835   6.149  29.582 -0.1497  0.0518  0.3714
38988W        W47788   9.440   1.996   6.866  0.1582  0.1631  0.1893
38989W        W47789   9.698   5.708  12.775 -0.1634 -0.3462  0.0833
38990W        W47790   7.185   2.200  24.234 -0.4562  0.1101 -0.0497
38991W        W47791  10.925   0.204   2.714 -0.1025 -0.1890  0.0503
38992W        W47792   2.046   3.668   7.119 -0.2615  0.0332  0.0671
38993W        W47793  22.436   3.937  28.609  0.1547 -0.1739  0.1479
38994W        W47794  15.419   2.682   9.098  0.1173 -0.0791 -0.0590
38995W        W47795  17.028   4.495  12.230  0.1028 -0.0529 -0.1707
38996W        W47796  12.605   4.644  35.291 -0.0196 -0.0441  0.0110
38997W        W47797   4.623   5.772  30.558 -0.1271  0.0621 -0.0241
38998W        W47798  18.881   1.789  34.889  0.2812 -0.1496 -0.2133
38999W        W47799  20.661   4.719  22.939  0.0616 -0.0420 -0.0545
39000W        W47800  10.081   0.204  30.588  0.0130  0.1338 -0.0822
39001W        W47801  11.788   1.270  30.972 -0.2307 -0.0038 -0.5108
39002W        W47802   7.419   5.545  28.958 -0.1088 -0.2429  0.2484
39003W        W47803   6.853   2.067  34.289  0.0015  0.0906 -0.2264
39004W        W47804  21.117   0.088  28.843 -0.0566  0.1813  0.2091
39005W        W47805   3.649   3.921  30.425 -0.0529 -0.0939  0.0038
39006W        W47806   0.641   2.101  15.243  0.0009 -0.0534  0.0620
39007W        W47807  22.520   2.462  26.191 -0.2424 -0.0929 -0.2311
39008W        W47808  26.238   0.301  13.847  0.0844 -0.3572  0.1964
39009W        W47809  10.743   2.534  25.374 -0.0683  0.1239 -0.2383
39010W        W47810  15.463   5.831  35.366  0.1075  0.0287 -0.0927
39011W        W47811  18.597   5.223  13.245  0.0863 -0.2340 -0.1903
39012W        W47812   0.581   3.213   9.310  0.1750 -0.3599 -0.0501
39013W        W47813  23.569   4.348  12.593  0.0436  0.1607 -0.2124
39014W        W47814  15.029   4.232  24.539  0.0950 -0.0270  0.3735
39015W        W47815   9.732   1.521  28.782  0.1484 -0.1024  0.0153
39016W        W47816  21.825   2.114   9.759 -0.3038  0.1430  0.2789
39017W        W47817  21.949   5.128  10.107  0.2658 -0.0980  0.1679
39018W        W47818   2.651   2.723   4.204  0.0998 -0.2168  0.0654
39019W        W47819  23.966   2.608  28.476  0.0146 -0.0119  0.2277
39020W        W47820  11.463   4.410  10.212  0.0685 -0.1201 -0.0776
39021W        W47821  25.574   4.160  12.185  0.0376  0.2053 -0.1448
39022W        W47822   5.301   5.760   6.733  0.0563 -0.0328 -0.1992
39023W        W47823  25.877   5.429   1.959 -0.1664  0.0522 -0.2459
39024W        W47824   8.383   1.314  11.609 -0.1209 -0.0647  0.0603
39025W        W47825  23.129   2.281  25.687 -0.0692 -0.2314 -0.0360
39026W        W47826  24.817   3.535  12.320  0.3999 -0.1567  0.2106
39027W        W47827   4.691   1.055   0.205  0.0873 -0.1795 -0.1515
39028W        W47828   1.324   4.504  11.153 -0.0977  0.1638  0.0132
39029W        W47829  12.518   5.265  21.885 -0.0700 -0.0022 -0.1379
39030W        W47830   8.493   6.404  22.703 -0.3382 -0.0116  0.1557
39031W        W47831  25.820   1.999   3.821  0.0461  0.2954  0.1768
39032W        W47832  22.106   0.366  25.887  0.1070 -0.0254  0.0334
39033W        W47833   5.087   2.664  25.178 -0.1770  0.0990 -0.2284
39034W        W47834   8.961   5.493   1.730  0.1312 -0.0997 -0.5329
39035W        W47835  14.109   3.035  29.165 -0.0369  0.1187 -0.1245
39036W        W47836  22.697   6.407  29.219 -0.0876 -0.1255  0.0457
39037W        W47837  14.328   5.032  22.110 -0.2191  0.0478  0.1061
39038W        W47838  10.729   0.664  28.669  0.1897 -0.1251 -0.2572
39039W        W47839   5.362   5.013   8.464 -0.1744 -0.0337  0.0218
39040W        W47840  25.498   3.898  31.208 -0.3006 -0.1344  0.0896
39041W        W47841   2.981   5.553  32.267 -0.1697  0.1057  0.0714
39042W        W47842  12.173   0.289  33.979  0.1445  0.1793  0.1815
39043W        W47843  12.434   0.114   2.765 -0.3420  0.1080  0.2472
39044W        W47844  20.776   5.994   8.173 -0.4803 -0.2334  0.0329
39045W        W47845  24.311   5.447  21.977 -0.0452 -0.2263 -0.1338
39046W        W47846  16.746   5.815  30.962  0.0632 -0.0111 -0.0005
39047W        W47847  11.571   1.494  25.197 -0.1903 -0.2239  0.1215
39048W        W47848  25.742   4.801  13.079  0.0756  0.5714  0.1042
39049W        W47849  23.833   2.495  30.201 -0.0798 -0.1051 -0.2729
39050W        W47850  11.605   5.691  13.089 -0.1603  0.0410  0.2814
39051W        W47851  21.091   2.082   8.666 -0.0710 -0.1848  0.1795
39052W        W47852   7.232   3.765   9.591 -0.0730  0.2466 -0.0979
39053W        W47853  13.031   5.971   9.831  0.0273  0.2429 -0.1050
39054W        W47854   9.053   3.312   3.243 -0.0811 -0.0771  0.1651
39055W        W47855  12.975   5.558  29.107  0.1934  0.0137  0.0996
39056W        W47856   3.093   0.505  27.943  0.0977  0.1801  0.0865
39057W        W47857  16.010   5.358  35.566  0.0667 -0.1612 -0.2741
39058W        W47858  20.848   1.950  25.729  0.0931  0.1051  0.2444
39059W        W47859  17.930   0.406  11.806 -0.4508  0.0260  0.1402
39060W        W47860  24.536   0.847  12.942 -0.1392 -0.3929 -0.0269
39061W        W47861   5.374   4.784  24.143  0.0912 -0.1914 -0.2182
39062W        W47862  12.548   4.409  34.044 -0.0363  0.0522 -0.3830
39063W        W47863   0.154   6.129  23.106  0.1976  0.0609 -0.1424
39064W        W47864   2.149   6.074   9.440  0.0611  0.0985 -0.3775
39065W        W47865   8.391   5.421  11.670  0.0285  0.0250 -0.0544
39066W        W47866   9.964   5.536   9.811 -0.0032 -0.0617 -0.0030
39067W        W47867   0.373   5.701  26.627 -0.1078  0.1016 -0.1378
39068W        W47868  10.438   0.174  28.784 -0.0560  0.1610  0.3647
39069W        W47869  18.990   2.763  23.548 -0.0017  0.0661 -0.1068
39070W        W47870  13.719   0.757  11.339 -0.1839 -0.2100 -0.0211
39071W        W47871  14.747   3.759  21.666 -0.0597 -0.0445 -0.0761
39072W        W47872  20.968   6.018  26.442  0.2601 -0.1223 -0.0075
39073W        W47873  14.869   1.565  10.165 -0.3872 -0.2487 -0.0529
39074W        W47874   9.196   3.082  29.296  0.1546 -0.0728  0.0660
39075W        W47875   4.828   5.414  27.520  0.2081  0.2356 -0.0850
39076W        W47876  18.237   1.234  34.010 -0.1135 -0.1373  0.2075
39077W        W47877   0.313   3.610  10.197  0.0185  0.0409 -0.0363
39078W        W47878  24.938   1.887  22.073  0.0078  0.0534  0.1182
39079W        W47879  13.541   5.443  10.192  0.2073  0.1120  0.1475
39080W        W47880   8.468   4.016  34.133  0.0491 -0.0360 -0.1062
39081W        W47881   7.547   1.630  12.769 -0.0724 -0.1742 -0.1232
39082W        W47882  13.795   4.615   9.420 -0.1009 -0.1014 -0.0285
39083W        W47883  11.567   4.873  10.568 -0.1028 -0.1761 -0.1918
39084W        W47884  14.161   1.006  27.706  0.1322  0.5035  0.1116
39085W        W47885   8.354   3.559   8.291  0.0122  0.1816  0.3091
39086W        W47886  22.348   5.796  10.590 -0.0323 -0.1717 -0.1017
39087W        W47887  22.908   5.935   2.630  0.0829 -0.2223  0.2830
39088W        W47888  21.813   2.827  27.469  0.0147 -0.1143  0.0538
39089W        W47889  18.870   3.217   6.813 -0.0763 -0.1859 -0.0056
39090W        W47890   3.876   2.023  26.133 -0.0482  0.0722  0.0156
39091W        W47891  12.549   2.981   1.726 -0.0237  0.2120  0.3348
39092W        W47892  13.896   2.552  26.690 -0.0638 -0.3345 -0.0242
39093W        W47893  16.458   4.736   4.234 -0.2429  0.1002  0.0743
39094W        W47894   7.325   6.457  32.527  0.2416 -0.0134 -0.0192
39095W        W47895  22.845   5.647   7.905 -0.2440  0.0286 -0.1113
39096W        W47896  25.004   2.596  24.911  0.1428  0.1082  0.0178
39097W        W47897  14.190   3.463  32.247 -0.3284 -0.1636 -0.0915
39098W        W47898   5.513   2.927  14.493 -0.1884 -0.1040  0.1476
39099W        W47899  10.983   0.499  14.005 -0.2699  0.3518 -0.2704
39100W        W47900  19.263   5.475   6.963 -0.1780  0.1724 -0.1509
39101W        W47901  10.098   2.232  13.751 -0.1166 -0.3552 -0.0208
39102W        W47902   3.177   1.047  25.188  0.1188  0.1212 -0.0090
39103W        W47903   3.013   2.872  27.939  0.3137  0.1278 -0.3068
39104W        W47904   3.550   1.047   9.217 -0.0203 -0.1809 -0.0314
39105W        W47905  23.185   4.575   2.515 -0.0344 -0.2031 -0.1092
39106W        W47906   5.975   1.909  27.003  0.2330  0.1125 -0.3830
39107W        W47907  15.419   0.976  22.120 -0.1289 -0.0627  0.0612
39108W        W47908   5.299   0.452   3.072  0.1723 -0.0090 -0.1255
39109W        W47909  17.245   1.546   9.775 -0.1008  0.1187 -0.3537
39110W        W47910  21.531   5.934   4.843  0.2615 -0.0009 -0.1645
39111W        W47911  19.616   6.393  32.221 -0.0621 -0.3299  0.2577
39112W        W47912  20.294   3.465  32.044  0.0024  0.1272 -0.1455
39113W        W47913  16.354   5.024  23.730  0.0268  0.0708 -0.0407
39114W        W47914  17.008   5.510  20.856  0.1690 -0.2128  0.1334
39115W        W47915  17.617   3.433  23.441 -0.0121 -0.0045 -0.0759
39116W        W47916  19.214   6.312  30.116 -0.5198 -0.2203  0.0493
39117W        W47917  22.105   4.513  20.008 -0.1873  0.0627 -0.2114
39118W        W47918   1.955   5.685  32.925 -0.0995  0.2195  0.2675
39119W        W47919   7.508   4.738  26.628 -0.0210  0.0952 -0.1102
39120W        W47920   6.195   2.886  35.938  0.1966  0.3661 -0.1907
39121W        W47921   0.876   5.325   9.502 -0.0195 -0.0124  0.0812
39122W        W47922   1.596   2.509   5.352 -0.3984  0.1873  0.1752
39123W        W47923   4.358   0.697  26.051 -0.1104 -0.3064  0.2042
39124W        W47924   8.299   1.397  33.315 -0.1199  0.0430  0.1732
39125W        W47925  15.090   4.787  24.575 -0.0338  0.1633  0.1570
39126W        W47926  20.602   1.442   4.413  0.0378 -0.0531 -0.0765
39127W        W47927  21.435   0.821  34.089  0.1195  0.1007 -0.0581
39128W        W47928   8.646   4.505  14.560 -0.2082 -0.3033 -0.0408
39129W        W47929   9.834   5.672   4.837 -0.0094  0.0521  0.0814
39130W        W47930  10.886   3.262  15.009 -0.4387 -0.1223 -0.1447
39131W        W47931  11.862   5.751  10.960  0.4542  0.3462 -0.0016
39132W        W47932  10.831   3.548  21.143 -0.2135  0.2632 -0.3024
39133W        W47933   9.062   4.664  30.335  0.3246 -0.0239  0.1684
39134W        W47934   7.846   4.022   8.891 -0.1180 -0.1261 -0.3463
39135W        W47935  16.297   1.939   3.759 -0.0529  0.1154  0.4026
39136W        W47936  15.398   0.359  12.501  0.2726 -0.3821 -0.0521
39137W        W47937   7.675   4.972   5.952  0.3010 -0.0718 -0.0069
39138W        W47938  13.860   2.882  24.031 -0.0573 -0.0368 -0.1280
39139W        W47939  13.772   5.986   5.781  0.1930  0.1921 -0.0664
39140W        W47940   5.809   1.503  26.683  0.0816 -0.3184 -0.1006
39141W        W47941  20.756   6.372  11.433  0.1029 -0.3511  0.0405
39142W        W47942   9.109   6.393  33.758 -0.0537  0.0487 -0.2698
39143W        W47943  25.949   1.373  33.844 -0.0313 -0.2381 -0.2900
39144W        W47944  13.653   1.783  16.239  0.2544  0.2980 -0.1161
39145W        W47945  25.911   2.757  31.212  0.3700  0.1272  0.0335
39146W        W47946  22.068   0.782   9.265  0.1282  0.0915  0.1574
39147W        W47947  25.787   4.563   0.647 -0.1435 -0.0663  0.0603
39148W        W47948  25.532   1.335  35.411 -0.2574  0.0375 -0.0719
39149W        W47949  20.392   5.627  27.816 -0.2295 -0.0224 -0.0032
39150W        W47950   7.825   1.202  30.810  0.0959  0.1468 -0.6334
39151W        W47951  22.243   1.513   8.134  0.0016  0.0394  0.3106
39152W        W47952   3.072   0.337  27.068 -0.1738  0.4595  0.0556
39153W        W47953  14.193   1.261   4.032  0.2042  0.1337 -0.1689
39154W        W47954  22.317   0.564  28.526  0.0068  0.0816 -0.0832
39155W        W47955   6.144   1.474  14.708  0.1643  0.1348  0.1077
39156W        W47956   4.432   2.968   1.395  0.1728  0.0404 -0.0050
39157W        W47957   0.640   3.049   4.348  0.0351 -0.0099  0.0726
39158W        W47958  12.220   3.195  34.321 -0.0894  0.1344 -0.1068
39159W        W47959   7.700   0.730  31.031 -0.3163 -0.1804 -0.1642
39160W        W47960  12.753   2.247  29.286  0.2064  0.0073  0.2318
39161W        W47961  19.466   4.136  25.201  0.0643 -0.1758  0.0770
39162W        W47962  10.435   6.067  29.368  0.3151 -0.2532  0.3786
39163W        W47963   1.109   1.434  34.725  0.1511  0.1813  0.0477
39164W        W47964  24.733   1.936  11.418 -0.0938  0.0545 -0.0698
39165W        W47965   7.146   4.680  26.194 -0.0776  0.0826  0.0286
39166W        W47966  16.956   2.754  14.986  0.0400  0.0301 -0.1636
39167W        W47967   2.318   3.134  27.446 -0.0727 -0.1505 -0.2811
39168W        W47968  18.324   4.467  12.732  0.1378 -0.2136 -0.1510
39169W        W47969  24.993   6.450  27.093  0.0898  0.0350  0.0146
39170W        W47970  17.558   2.193  13.041  0.1332 -0.2841  0.2007
39171W        W47971  24.025   6.189  13.899 -0.2089 -0.0985 -0.2504
39172W        W47972  18.568   2.099  24.210  0.0789 -0.0643  0.4292
39173W        W47973  14.633   0.436   5.725  0.0913 -0.2033  0.0888
39174W        W47974  10.786   4.880   1.275  0.2522 -0.0018 -0.0452
39175W        W47975   9.718   0.985   3.975  0.0589  0.2015 -0.0668
39176W        W47976  12.043   6.243  31.859 -0.0935  0.1204 -0.1978
39177W        W47977   2.523   2.830  21.075 -0.2135  0.0115 -0.0099
39178W        W47978  12.298   3.889  28.901  0.0877 -0.2868 -0.1459
39179W        W47979  24.484   4.060  13.296  0.2282  0.0447 -0.0847
39180W        W47980   4.745   4.707   5.818 -0.4595  0.0235 -0.0033
39181W        W47981  25.958   3.056   8.693  0.2125  0.1718 -0.0945
39182W        W47982  19.536   4.271   4.766  0.0724 -0.3474  0.0274
39183W        W47983  24.164   3.303  32.092  0.1836  0.1945 -0.0026
39184W        W47984  12.518   0.766  33.629  0.2242  0.2968  0.3061
39185W        W47985  17.673   4.031  34.919 -0.1434  0.0350  0.1404
39186W        W47986   6.365   6.052  12.936 -0.2519  0.0442 -0.2919
39187W        W47987  11.868   5.547  26.117 -0.1129 -0.1824 -0.0050
39188W        W47988  13.548   5.540  30.173 -0.2927 -0.0086  0.0751
39189W        W47989  22.975   2.830  33.112 -0.2356 -0.3413 -0.1068
39190W        W47990  24.334   5.254  34.651 -0.3138  0.0280 -0.0881
39191W        W47991  18.214   4.718  35.405 -0.0383  0.2416 -0.2636
39192W        W47992   2.952   5.005  25.733  0.2685  0.1179  0.1600
39193W        W47993  17.430   3.868  23.560 -0.1748 -0.3282 -0.5493
39194W        W47994  21.137   1.272   5.218  0.3047 -0.1093  0.0678
39195W        W47995   1.673   4.200   4.151  0.3460  0.0689 -0.1066
39196W        W47996   7.165   5.287  32.794 -0.0733 -0.3338  0.1494
39197W        W47997  18.425   2.500  22.128 -0.0370 -0.2602  0.2341
39198W        W47998  13.539   1.923   7.132 -0.2804  0.1457 -0.0116
39199W        W47999   8.177   4.026  20.500 -0.3231  0.1739  0.2385
39200W        W48000  10.204   3.382  35.255 -0.1241 -0.3617 -0.3538
39201W        W48001  13.096   3.398  25.873  0.0365  0.0979 -0.2555
39202W        W48002   4.626   5.857   4.920  0.3527 -0.3137  0.3238
39203W        W48003  21.815   5.895  30.892 -0.0417  0.0535  0.1260
39204W        W48004   6.034   6.601  23.511 -0.0903  0.3134  0.1096
39205W        W48005   6.275   2.322   7.179  0.2665 -0.0867 -0.2460
39206W        W48006  11.394   1.130  24.398  0.0607  0.1220  0.1053
39207W        W48007   1.108   2.285   2.458  0.1830 -0.0250 -0.1736
39208W        W48008  24.393   5.962  21.060  0.0401 -0.3753  0.1689
39209W        W48009  12.970   1.792  28.375 -0.0012  0.1000 -0.3422
39210W        W48010   7.713   0.890  30.476 -0.2618  0.0759  0.0693
39211W        W48011  25.289   1.848  20.350 -0.0426 -0.2068 -0.2175
39212W        W48012  26.404   1.019   6.673  0.2556  0.0507 -0.1470
39213W        W48013  15.971   4.432  26.315  0.2146  0.2728  0.0363
39214W        W48014  21.884   2.616   4.075  0.0047 -0.0423  0.1666
39215W        W48015   5.713   2.382  10.069 -0.1234  0.1230  0.2332
39216W        W48016  22.223   1.632  10.805 -0.2277 -0.3354  0.1806
39217W        W48017  22.134   6.492   7.865  0.3161 -0.2327  0.1251
39218W        W48018   9.267   6.093  26.562 -0.2181  0.1020  0.1368
39219W        W48019  22.416   3.415   6.155  0.0036 -0.0676  0.1874
39220W        W48020  23.406   3.584   6.525  0.0359  0.0316 -0.0232
39221W        W48021   7.157   0.602  29.764  0.1950  0.2520 -0.1633
39222W        W48022  22.328   2.012  29.398  0.1125  0.0021  0.0449
39223W        W48023  26.261   3.552  21.245 -0.0539  0.2781 -0.2255
39224W        W48024  19.645   3.870  10.329  0.1201 -0.0981 -0.2259
39225W        W48025   7.507   1.575   0.179 -0.0734 -0.2308  0.0764
39226W        W48026   0.807   6.405  29.198 -0.0648  0.1519 -0.2042
39227W        W48027  18.728   5.789   0.763 -0.1741  0.4172  0.0264
39228W        W48028  22.431   3.518  29.501  0.0284 -0.2120 -0.2589
39229W        W48029   0.255   5.739  31.627 -0.2867 -0.0345 -0.0505
39230W        W48030  23.543   5.775  12.957 -0.0785  0.0882  0.2459
39231W        W48031  15.830   3.626   3.778 -0.0222 -0.2601 -0.0632
39232W        W48032   1.656   0.023  22.818 -0.1412 -0.0839 -0.3627
39233W        W48033   3.492   0.486  31.151 -0.0387  0.0743 -0.0398
39234W        W48034  13.465   4.693   4.614  0.0447  0.4286  0.2119
39235W        W48035  24.090   2.763  23.657  0.2450 -0.2691 -0.0549
39236W        W48036  25.489   4.015  14.303 -0.1520  0.0591 -0.3594
39237W        W48037  19.898   2.757  21.685  0.0527 -0.2937 -0.3401
39238W        W48038   2.601   2.445  31.705  0.0515  0.0808  0.0632
39239W        W48039  17.083   1.781  13.650 -0.1382  0.2528 -0.0418
39240W        W48040  14.251   2.197   8.031  0.1583  0.1497  0.0504
39241W        W48041  17.952   1.810  30.293 -0.1403  0.0089 -0.2573
39242W        W48042  22.956   4.000  28.445 -0.0580  0.0514 -0.0553
39243W        W48043  22.637   0.635  24.012 -0.0099 -0.1122  0.3363
39244W        W48044   0.575   4.656  24.285  0.2365  0.1628 -0.1223
39245W        W48045   1.829   3.910  26.630  0.0052  0.4261 -0.3470
39246W        W48046   9.977   5.520   3.086 -0.2644 -0.0388 -0.2300
39247W        W48047   6.073   5.210   7.104  0.2851  0.1116  0.0181
39248W        W48048  17.228   0.112   5.227  0.2260 -0.0016  0.0775
39249W        W48049   1.972   1.849  10.450  0.2964 -0.0667 -0.0897
39250W        W48050  25.065   2.848   2.161 -0.0449  0.1202 -0.5452
39251W        W48051  21.571   5.320   6.242 -0.2692 -0.0359  0.1370
39252W        W48052  22.270   5.729  35.405  0.0859  0.1081 -0.0913
39253W        W48053  15.147   1.420  35.990  0.0805 -0.3265  0.0413
39254W        W48054  15.615   6.137  14.332  0.0929 -0.0992 -0.1091
39255W        W48055  11.726   4.500  25.925 -0.1162 -0.1405 -0.2239
39256W        W48056   7.305   5.652  31.940 -0.0257 -0.2163  0.3512
39257W        W48057   0.940   3.551   0.358  0.1600 -0.0451  0.0528
39258W        W48058  16.664   3.004  27.624 -0.0772  0.1757 -0.0632
39259W        W48059   1.784   2.099  14.767  0.0351  0.3555  0.4184
39260W        W48060  17.016   3.314   7.540 -0.0855  0.1429  0.2218
39261W        W48061  19.873   3.985   2.731  0.2084  0.2375 -0.1008
39262W        W48062  17.595   0.218   3.231  0.2634 -0.2175  0.3089
39263W        W48063  23.531   2.987   1.882  0.0768  0.2393 -0.1308
39264W        W48064   6.289   1.835  21.995 -0.2066 -0.2509 -0.0568
39265W        W48065  24.409   6.587  31.294  0.1855  0.0735 -0.0065
39266W        W48066  15.241   4.010   1.169 -0.3174 -0.0792 -0.1047
39267W        W48067   0.744   2.630  22.629 -0.0844 -0.0821 -0.1999
39268W        W48068  24.119   5.132  23.573  0.1252  0.1106 -0.1856
39269W        W48069  12.461   5.414   8.276 -0.0839  0.1412  0.0752
39270W        W48070  19.263   2.458   4.543 -0.0142  0.3842 -0.1308
39271W        W48071  17.271   0.786  29.568  0.3171 -0.1355 -0.4293
39272W        W48072   6.681   2.042  30.080 -0.0624 -0.0723 -0.1472
39273W        W48073  12.432   5.506  15.853 -0.1889  0.0780  0.1951
39274W        W48074   3.842   0.176  23.939 -0.2039  0.0217  0.0374
39275W        W48075   1.361   3.380  27.438 -0.1357  0.1346 -0.3622
39276W        W48076  16.828   3.576   5.864  0.3421 -0.0139  0.0083
39277W        W48077  10.138   3.043  10.575  0.0766  0.2625 -0.1160
39278W        W48078   3.513   5.550  21.720 -0.2221 -0.0584 -0.0640
39279W        W48079  23.616   0.229  30.469  0.0323 -0.0555 -0.1078
39280W        W48080  26.132   4.300   2.618  0.1729  0.3836  0.1397
39281W        W48081  14.710   5.259  21.256  0.2080  0.0239  0.1704
39282W        W48082   0.826   1.521   4.133  0.3998 -0.0279  0.1302
39283W        W48083  26.378   4.009   4.100 -0.0747 -0.2309  0.2215
39284W        W48084  25.198   3.163  10.830  0.1549 -0.0168 -0.0973
39285W        W48085  16.932   0.602   5.326  0.1256  0.0382 -0.0931
39286W        W48086  10.762   5.735  32.050  0.0948  0.1520 -0.0202
39287W        W48087   0.396   2.250  10.939 -0.0698 -0.0557  0.2272
39288W        W48088  10.872   4.141   5.820  0.1113 -0.0975  0.0585
39289W        W48089  25.808   3.629  24.789 -0.0708  0.1206 -0.2336
39290W        W48090   0.463   0.055  35.765 -0.3032  0.1442  0.0501
39291W        W48091  23.537   2.075  27.481  0.0082  0.1628 -0.0151
39292W        W48092  17.189   2.570  13.008  0.3028  0.0409  0.3712
39293W        W48093  18.478   5.215  21.667 -0.1101 -0.0295  0.0337
39294W        W48094  16.382   3.997   7.037  0.0038  0.0155 -0.0534
39295W        W48095  20.819   5.455  31.269  0.1291  0.1837  0.1275
39296W        W48096  22.497   5.261   1.310  0.0011 -0.1670 -0.1083
39297W        W48097  21.097   1.046   7.783  0.1101  0.2674 -0.1702
39298W        W48098  26.262   1.320  30.991 -0.1423  0.0671  0.2600
39299W        W48099  16.447   4.375  13.028  0.0794  0.2001  0.3115
39300W        W48100  13.869   2.802  15.441 -0.0193 -0.0719  0.2430
39301W        W48101   2.939   1.218  31.353  0.0141 -0.2729  0.0529
39302W        W48102  25.606   1.065  27.456  0.0851  0.0855  0.1605
39303W        W48103  24.118   0.298  11.581  0.3523  0.1318  0.1946
39304W        W48104   1.057   1.704  25.305  0.0769  0.1349  0.2521
39305W        W48105   9.275   4.400  23.900  0.1135  0.2561 -0.1212
39306W        W48106  10.878   2.326  33.579 -0.1112 -0.2474  0.3934
39307W        W48107  12.891   2.113  23.598 -0.2484 -0.2567 -0.1950
39308W        W48108  24.150   5.099  13.107 -0.1406 -0.1418 -0.3775
39309W        W48109  25.504   5.465   9.714 -0.1028  0.0067  0.0636
39310W        W48110   8.897   6.136  31.950  0.0077 -0.0765 -0.1257
39311W        W48111  23.583   2.724  23.577  0.0146 -0.0037  0.0058
39312W        W48112   2.382   4.820  33.006  0.0510  0.1906  0.0237
39313W        W48113   3.052   5.618   5.713 -0.0607  0.2774 -0.1321
39314W        W48114  21.996   3.426  33.810  0.0312  0.0274 -0.0857
39315W        W48115  17.771   3.785  27.001  0.2618 -0.0350 -0.0649
39316W        W48116   6.989   0.445   9.483 -0.3497  0.0980 -0.1715
39317W        W48117   2.833   4.807  34.768 -0.1524 -0.0042  0.1471
39318W        W48118   6.129   2.563  28.720 -0.1403 -0.2284 -0.0269
39319W        W48119  24.320   4.816  15.043 -0.0676 -0.0041 -0.2049
39320W        W48120   1.568   1.572  33.198 -0.2846  0.2471  0.1825
39321W        W48121   8.064   5.930  12.845  0.5114  0.3315 -0.1614
39322W        W48122  17.687   6.463  28.954 -0.0708 -0.3093 -0.1812
39323W        W48123  24.311   4.685  24.077  0.0928  0.4484 -0.2294
39324W        W48124   6.184   5.622  11.908 -0.0558  0.1503 -0.0278
39325W        W48125   0.722   0.929  32.581  0.4954  0.2091  0.0529
39326W        W48126  15.322   3.421  24.283 -0.0056 -0.0373  0.2272
39327W        W48127  16.287   2.691  12.442  0.0981  0.2014  0.2265
39328W        W48128  14.225   3.480   8.085  0.1554  0.2153 -0.0701
39329W        W48129   9.589   0.384   6.706 -0.2152 -0.1849  0.0829
39330W        W48130  23.602   0.110  11.331  0.0390  0.0033 -0.0553
39331W        W48131   5.903   5.314  30.534  0.1866  0.1551  0.0577
39332W        W48132  14.108   5.212   4.399  0.0565  0.0425 -0.1194
39333W        W48133  13.557   0.984  21.055  0.1363  0.1386 -0.2969
39334W        W48134  11.634   6.313   2.654 -0.1712 -0.2929  0.0374
39335W        W48135  11.275   5.540  23.151 -0.1458 -0.1737 -0.0051
39336W        W48136   3.462   1.824  23.092 -0.0382 -0.0388 -0.0828
39337W        W48137   8.305   3.172  31.012  0.0198 -0.1694 -0.2329
39338W        W48138   6.935   5.400   9.614 -0.2892 -0.1298 -0.1304
39339W        W48139   3.513   2.152  26.472 -0.0916 -0.1383  0.1731
39340W        W48140  13.597   3.295  35.020 -0.0834  0.1283 -0.0078
39341W        W48141  12.891   3.887  25.284 -0.1200 -0.2167  0.2027
39342W        W48142   1.771   4.017  29.124 -0.1361  0.1106  0.0044
39343W        W48143   4.116   5.331   5.074  0.1202  0.0852  0.3862
39344W        W48144  12.028   4.498  28.301 -0.0645 -0.2331 -0.2825
39345W        W48145  16.400   1.682   0.521  0.0245  0.0839  0.1323
39346W        W48146   7.190   2.372  10.605  0.0302 -0.0215  0.2173
39347W        W48147   8.629   6.406  32.378 -0.0143 -0.1550 -0.0227
39348W        W48148   0.689   0.886  35.600 -0.0284  0.3958 -0.0928
39349W        W48149   7.047   6.505  23.224  0.2675  0.2020  0.2026
39350W        W48150   6.114   0.231  23.085  0.0286  0.1220 -0.0031
39351W        W48151   3.653   4.569  33.344  0.0923  0.2017 -0.0796
39352W        W48152  18.357   3.359  14.320  0.2250  0.3202 -0.1428
39353W        W48153  24.501   1.141  34.718 -0.2803 -0.0944 -0.0706
39354W        W48154  13.685   2.577  31.865 -0.1639 -0.0891  0.1678
39355W        W48155  12.929   4.715   2.250  0.1263  0.0497 -0.1683
39356W        W48156   2.078   4.834  20.746 -0.0807 -0.0692 -0.2160
39357W        W48157   7.526   5.734  23.491  0.0384  0.1286 -0.3330
39358W        W48158   3.271   6.244   1.017  0.3721  0.0471  0.1950
39359W        W48159   0.121   2.665   7.456  0.1129 -0.1196  0.1211
39360W        W48160  12.643   5.116  29.938 -0.1021  0.1699 -0.0371
39361W        W48161   1.104   5.286  12.715  0.1186  0.2310 -0.0108
39362W        W48162  10.245   3.963   6.258 -0.0994 -0.1225  0.0258
39363W        W48163  11.893   5.615  10.139 -0.2506 -0.0082 -0.0258
39364W        W48164   0.709   6.304   8.196 -0.1448  0.0751 -0.1466
39365W        W48165  23.142   0.671   7.267 -0.1411 -0.1942  0.2035
39366W        W48166   1.314   3.831   4.925  0.1114 -0.2123  0.2553
39367W        W48167  13.042   4.581  31.705 -0.3116  0.1122  0.0914
39368W        W48168  13.579   1.842  32.734 -0.0675  0.0374  0.0442
39369W        W48169  13.221   1.054  32.817 -0.0197 -0.1437  0.1347
39370W        W48170  11.566   4.604   7.994 -0.1745 -0.1515  0.1837
39371W        W48171  17.919   6.017   9.509  0.2031 -0.0590 -0.1637
39372W        W48172  12.766   3.198  25.586  0.3342 -0.0327  0.1235
39373W        W48173  15.707   1.708  25.222  0.1615  0.2077 -0.3314
39374W        W48174   8.946   4.118  23.509 -0.0878 -0.2587  0.1168
39375W        W48175   9.683   5.255  12.531 -0.1215 -0.2680  0.0456
39376W        W48176  17.207   1.075  24.437  0.3107 -0.0993 -0.1435
39377W        W48177  21.913   4.515  32.193  0.1619 -0.0389  0.1490
39378W        W48178   1.598   3.873   5.850  0.0963 -0.1839  0.2092
39379W        W48179  25.963   4.471   4.585  0.1980 -0.0102 -0.1578
39380W        W48180   3.960   1.438  23.160  0.0464 -0.0045  0.4478
39381W        W48181   6.283   3.258   5.743  0.0274  0.1798  0.0778
39382W        W48182   1.371   0.802  13.987 -0.3679  0.1264 -0.0271
39383W        W48183  13.746   3.329   0.030  0.1303  0.3539  0.1266
39384W        W48184   3.803   0.480   0.402  0.0383  0.1815 -0.1240
39385W        W48185  16.577   2.595  14.646 -0.0729  0.1762  0.0641
39386W        W48186   7.617   2.718  28.655 -0.1766  0.1699  0.2138
39387W        W48187   0.920   3.283  22.250  0.2588  0.1166  0.1504
39388W        W48188  15.792   1.160   7.039  0.0446  0.1075  0.1585
39389W        W48189   0.956   1.102  21.635  0.0166 -0.0735 -0.0230
39390W        W48190  17.936   5.808  30.755 -0.0449 -0.0587 -0.0988
39391W        W48191  23.072   5.772  20.893 -0.1108 -0.0614  0.2918
39392W        W48192  14.488   0.910  10.708  0.0839  0.0113 -0.1931
39393W        W48193  26.183   6.101   9.319 -0.1156 -0.3111  0.2426
39394W        W48194  22.859   6.031  10.475  0.0527 -0.2063 -0.0699
39395W        W48195  23.570   4.397  10.276  0.1031  0.2626 -0.2499
39396W        W48196   9.712   4.994   5.587  0.0863 -0.0415 -0.2884
39397W        W48197   9.699   0.784   5.316  0.1401  0.0811  0.4053
39398W        W48198   5.427   3.042  26.673  0.1413 -0.0933 -0.0816
39399W        W48199   4.556   6.174  15.238 -0.1353  0.1192  0.0339
39400W        W48200  10.204   1.859  23.917 -0.1503 -0.4315 -0.5200
39401W        W48201   0.175   5.987  12.424 -0.0093  0.2995  0.0202
39402W        W48202  10.390   1.145  24.085  0.0577 -0.1700 -0.0024
39403W        W48203   7.387   4.933  21.489  0.1286 -0.2690 -0.2929
39404W        W48204  18.446   4.996  23.174 -0.0910  0.0518  0.1962
39405W        W48205  25.621   4.843   9.982 -0.2104  0.3861  0.2856
39406W        W48206   3.220   3.910  10.936 -0.1685 -0.2831 -0.0268
39407W        W48207   1.144   4.815   8.892  0.0119 -0.0228 -0.0195
39408W        W48208   8.918   2.375  12.840  0.0118  0.0780 -0.0168
39409W        W48209  23.267   1.551  23.073 -0.1347 -0.1910 -0.1814
39410W        W48210  25.122   1.905  33.665 -0.5440  0.0399 -0.0011
39411W        W48211  20.666   0.863  12.965 -0.1753  0.1325 -0.0337
39412W        W48212   1.692   2.264  23.236  0.2597  0.0921  0.1462
39413W        W48213   8.139   0.294  14.902 -0.1163 -0.1466  0.1156
39414W        W48214  16.166   6.004  31.942  0.1289  0.1325  0.1829
39415W        W48215  15.424   4.197  15.346  0.2376 -0.2468  0.1612
39416W        W48216  24.783   3.545  30.617  0.3223  0.0679  0.1946
39417W        W48217   7.918   1.531  21.172  0.1969 -0.0475  0.0393
39418W        W48218  19.377   6.533   0.547 -0.1000 -0.0838  0.1900
39419W        W48219  22.371   3.761  33.729 -0.3147 -0.1228 -0.1988
39420W        W48220   3.594   6.518   7.749  0.1285  0.1003 -0.2854
39421W        W48221   1.932   0.203  34.966 -0.1156  0.0102  0.0216
39422W        W48222  22.026   0.601  12.795  0.2084  0.0531  0.0605
39423W        W48223   3.046   6.134   4.414 -0.2363 -0.2204 -0.4086
39424W        W48224  23.985   4.075  27.958  0.3754  0.0993  0.0693
39425W        W48225  11.925   2.482  35.172 -0.0585  0.2187  0.0506
39426W        W48226  21.063   5.263  33.522 -0.0027  0.0175  0.0046
39427W        W48227  14.100   5.731  20.401  0.4666 -0.1808  0.1444
39428W        W48228  19.637   0.697  23.885  0.1854  0.0251 -0.4003
39429W        W48229  21.667   4.314   2.644  0.1730 -0.1632 -0.1529
39430W        W48230  13.751   0.948   8.209 -0.0525 -0.0301  0.2492
39431W        W48231   9.659   1.064   9.380 -0.1048 -0.1309  0.2443
39432W        W48232  26.017   0.978  24.827  0.0234  0.0253  0.1662
39433W        W48233   5.348   5.305  29.853 -0.1062  0.2980 -0.3267
39434W        W48234  10.004   2.831  31.916  0.1521  0.1624  0.0251
39435W        W48235  19.893   5.210   6.328  0.0279 -0.1632 -0.0071
39436W        W48236   9.850   6.248  15.301  0.1283  0.1034 -0.2165
39437W        W48237  11.970   0.655  31.484  0.1256 -0.1913  0.3378
39438W        W48238  24.269   4.527   1.476  0.1562 -0.1428 -0.0678
39439W        W48239   3.727   0.182  10.607 -0.2501 -0.0258 -0.0705
39440W        W48240  26.305   0.258   6.837 -0.0727 -0.0530  0.1160
39441W        W48241   0.006   3.493  33.922  0.3562 -0.3555 -0.0279
39442W        W48242  17.584   1.056   2.895  0.3216  0.0167 -0.0163
39443W        W48243   1.971   6.430  32.096  0.2053  0.0933  0.2555
39444W        W48244  24.935   5.855   9.949 -0.0718 -0.1089  0.1800
39445W        W48245  18.844   6.079  28.991 -0.1584 -0.1248  0.0238
39446W        W48246  21.511   0.334  32.821 -0.3159 -0.0478 -0.0912
39447W        W48247   6.219   2.232   7.781 -0.0585  0.0840 -0.0426
39448W        W48248  10.147   6.582  15.522 -0.0666 -0.2393  0.0655
39449W        W48249  23.843   1.100   1.339 -0.1944  0.0062 -0.1498
39450W        W48250   6.104   4.332  28.105  0.2856 -0.2188  0.2588
39451W        W48251  14.365   4.609  31.109  0.1620  0.1551  0.1688
39452W        W48252   6.441   3.504  12.869 -0.1024 -0.1946  0.3084
39453W        W48253  17.108   2.723  26.506 -0.1337 -0.4078  0.0547
39454W        W48254  21.776   4.043  32.325 -0.0477  0.1991  0.1137
39455W        W48255  11.816   4.527   6.837 -0.3790  0.2325 -0.1582
39456W        W48256  17.290   3.803  21.304 -0.1874 -0.0704  0.0967
39457W        W48257  24.018   3.041  14.922  0.2475 -0.0379 -0.2091
39458W        W48258  26.390   5.236  27.576  0.0770 -0.1168 -0.0723
39459W        W48259   3.470   4.482   8.983 -0.2803 -0.0602  0.0365
39460W        W48260  10.167   2.883  14.356 -0.0427 -0.0838  0.0262
39461W        W48261  18.400   0.336  14.854  0.1485 -0.2130 -0.0747
39462W        W48262  15.601   5.673   1.414 -0.1865 -0.0067  0.4223
39463W        W48263  13.666   0.343  12.863 -0.1142  0.3617 -0.1511
39464W        W48264  20.124   4.356  32.747 -0.1267 -0.0889 -0.0297
39465W        W48265  26.007   3.242  29.947  0.1723 -0.2332 -0.1060
39466W        W48266   4.343   5.852  13.511 -0.0219  0.1288 -0.2739
39467W        W48267   1.348   5.088  24.456  0.0930 -0.0925  0.2916
39468W        W48268   0.072   6.223  25.153 -0.0632 -0.2312 -0.1734
39469W        W48269  17.461   6.010  13.170  0.1583 -0.1105 -0.0041
39470W        W48270   2.240   6.156  23.345 -0.0495  0.0381 -0.0824
39471W        W48271  15.666   1.253  21.219  0.3616  0.1884  0.1548
39472W        W48272  20.980   6.318   9.508 -0.0603 -0.1910  0.0303
39473W        W48273  23.917   6.049  20.959 -0.2004 -0.1996  0.0738
39474W        W48274  20.013   5.633  35.264 -0.1524 -0.1065  0.1197
39475W        W48275  24.760   4.796   5.132 -0.3258  0.2129  0.3793
39476W        W48276  11.970   4.149  15.384  0.2132  0.2712 -0.2438
39477W        W48277  16.988   1.792  33.295  0.0218 -0.1992  0.0446
39478W        W48278   2.539   4.105  10.321 -0.1017 -0.2954  0.1363
39479W        W48279  18.680   0.792  15.007  0.2351 -0.0044 -0.0677
39480W        W48280  16.162   6.062  27.925  0.1340 -0.1195  0.1870
39481W        W48281   7.126   2.120   5.618 -0.1345  0.2326 -0.0689
39482W        W48282   9.499   6.265   0.867  0.0445  0.0067  0.0324
39483W        W48283  10.094   3.288  11.978 -0.0641  0.2777  0.0770
39484W        W48284   4.748   6.374   0.163  0.0542  0.0771 -0.2629
39485W        W48285   3.932   4.279   0.702  0.1263 -0.1550  0.4065
39486W        W48286   6.540   4.040  33.341 -0.0539 -0.5539  0.0939
39487W        W48287  18.138   6.480   9.225 -0.0535 -0.0281  0.0022
39488W        W48288  23.524   3.466  14.114 -0.1915 -0.4333 -0.0593
39489W        W48289  15.338   5.215  36.153  0.2389  0.2126 -0.3792
39490W        W48290  18.387   3.457   2.793  0.6202  0.0512 -0.2365
39491W        W48291  20.390   3.240   4.564 -0.4423  0.0556  0.1498
39492W        W48292  19.452   5.444  31.948 -0.1079  0.3801 -0.3841
39493W        W48293  11.773   4.205  22.006  0.0255 -0.2334  0.0393
39494W        W48294  14.490   0.824  28.125  0.0494 -0.0317 -0.0778
39495W        W48295  11.794   0.609  22.242 -0.1365 -0.0960 -0.2153
39496W        W48296  21.084   0.720   3.816 -0.0620 -0.0243  0.2957
39497W        W48297  16.607   0.993  32.908  0.0457  0.0668 -0.2532
39498W        W48298  21.782   5.620  10.785 -0.0687  0.3040  0.1946
39499W        W48299   6.209   1.145  11.985 -0.0990 -0.0118 -0.1710
39500W        W48300  13.077   5.246  25.339 -0.0090  0.0297  0.0500
39501W        W48301   1.545   3.212  24.271 -0.0875 -0.0420  0.1393
39502W        W48302  14.358   6.182  14.096  0.0216  0.1185  0.0586
39503W        W48303   0.793   3.060   3.050 -0.0753  0.1081 -0.1279
39504W        W48304  10.329   6.133   1.982  0.0741 -0.3502  0.2084
39505W        W48305   1.427   0.101  35.657  0.0589 -0.1148 -0.3036
39506W        W48306   0.590   6.184   5.415  0.1056 -0.0949 -0.0688
39507W        W48307   8.457   2.680   1.289 -0.1917 -0.3746 -0.0269
39508W        W48308  14.450   3.003  34.926 -0.0802  0.1440 -0.0595
39509W        W48309   7.815   6.201  26.759 -0.1908  0.2788  0.5167
39510W        W48310  11.877   2.679  28.152  0.0015 -0.0790 -0.1040
39511W        W48311  10.230   6.073   5.895 -0.0597 -0.1550 -0.1728
39512W        W48312  23.078   5.972  24.773 -0.3134  0.1656 -0.2473
39513W        W48313  23.338   0.513   4.163  0.0367 -0.0842  0.0028
39514W        W48314   8.937   6.440  13.021 -0.2649  0.0611  0.1586
39515W        W48315  14.398   1.414  29.286 -0.1011 -0.0526  0.1656
39516W        W48316   8.169   0.646  12.550 -0.1510 -0.0908 -0.0535
39517W        W48317  25.180   1.465  11.187 -0.1371  0.0432  0.1666
39518W        W48318  24.131   0.903  20.608  0.2839  0.0304  0.0478
39519W        W48319   4.533   4.450   4.443  0.0612 -0.1335 -0.1530
39520W        W48320   2.107   3.546   4.595 -0.2257  0.2860  0.2390
39521W        W48321  22.940   3.451  28.318 -0.1168  0.0632  0.2795
39522W        W48322   1.699   3.815   8.085  0.2332  0.3509 -0.0317
39523W        W48323  15.610   1.723   5.781  0.1316 -0.2163 -0.1013
39524W        W48324  26.236   1.577  32.887  0.0246 -0.0275  0.1305
39525W        W48325  18.941   3.287  28.492 -0.0002  0.0472  0.0102
39526W        W48326  16.546   3.125  27.088  0.1057  0.0134  0.0328
39527W        W48327  19.271   4.319  24.429 -0.0785 -0.0312 -0.1624
39528W        W48328  16.173   2.871   3.891 -0.0904  0.2887 -0.0809
39529W        W48329   2.531   5.350  32.124 -0.0691 -0.1592  0.0143
39530W        W48330  14.468   2.517  22.856  0.0327 -0.2220 -0.0883
39531W        W48331  11.927   3.199   9.227 -0.0538 -0.3206 -0.2694
39532W        W48332  22.214   4.355  30.246  0.0140 -0.0264 -0.2916
39533W        W48333   6.180   2.446   8.429  0.0124  0.2279 -0.5135
39534W        W48334   4.697   3.567  24.018  0.0671 -0.0870 -0.1010
39535W        W48335  14.178   2.633  33.364  0.1305 -0.1030  0.0797
39536W        W48336  20.861   3.033  12.476  0.0681 -0.1709  0.0415
39537W        W48337  19.465   6.479  14.501  0.1331 -0.2599 -0.0852
39538W        W48338  22.508   4.326   7.342 -0.0508 -0.1153  0.0315
39539W        W48339  19.227   5.894  24.082 -0.3482  0.0433 -0.1198
39540W        W48340  25.667   4.339  25.945 -0.1262 -0.0876  0.3677
39541W        W48341  10.206   2.213   9.560  0.0780  0.0819  0.2225
39542W        W48342  18.860   0.628  25.853 -0.2298  0.0599 -0.0846
39543W        W48343  10.167   0.258   8.963 -0.0259 -0.2250  0.0903
39544W        W48344  17.780   2.778  24.757 -0.3467  0.0322 -0.1455
39545W        W48345  15.370   2.769  25.687  0.0618 -0.0053 -0.4162
39546W        W48346  15.277   5.621  26.286 -0.1779 -0.0526 -0.4480
39547W        W48347  12.851   3.770  34.696  0.1075 -0.1636 -0.1913
39548W        W48348  23.564   5.925  22.441 -0.1326  0.0820 -0.1478
39549W        W48349  19.299   0.033  11.690  0.1721  0.1370  0.2782
39550W        W48350   1.069   1.192  27.415  0.0760 -0.1146 -0.2458
39551W        W48351  11.515   3.778   2.821  0.0607 -0.0918 -0.2081
39552W        W48352  11.371   5.691   4.850 -0.2114 -0.1183 -0.0652
39553W        W48353  19.109   1.563  34.501 -0.0526 -0.2845 -0.0285
39554W        W48354   0.558   3.401  28.018  0.0437  0.2055  0.2757
39555W        W48355  25.818   0.805  32.235 -0.0338  0.0385 -0.0596
39556W        W48356  26.211   2.896  34.677  0.0224  0.0075  0.0063
39557W        W48357   1.854   6.483   6.319 -0.0660 -0.2325  0.2208
39558W        W48358  17.132   6.002   9.103  0.0749 -0.0390 -0.0366
39559W        W48359  18.850   3.447  31.915  0.0925  0.2297  0.2419
39560W        W48360  22.058   1.182  27.909 -0.1176 -0.1075  0.0409
39561W        W48361  19.345   2.811  35.910 -0.0355  0.2567  0.2326
39562W        W48362  16.674   2.080  28.461 -0.3157 -0.0029 -0.0059
39563W        W48363  14.099   2.558   0.253  0.0107 -0.0009  0.3283
39564W        W48364   1.688   4.049   8.597 -0.1413  0.0953  0.1484
39565W        W48365   2.128   0.686  20.198 -0.1014  0.4678  0.2328
39566W        W48366  12.967   2.564   1.752  0.1595  0.0701  0.1160
39567W        W48367   6.928   2.330  20.926 -0.0448  0.0780  0.1807
39568W        W48368   2.935   2.617  34.996  0.3291  0.1411  0.0690
39569W        W48369   2.153   6.003  25.808  0.2193 -0.0025  0.2258
39570W        W48370  16.967   3.486  11.409  0.0858  0.1518  0.2169
39571W        W48371   0.214   4.066  30.241 -0.1429  0.0723  0.0891
39572W        W48372  13.706   2.432  26.239 -0.1195 -0.0247 -0.0821
39573W        W48373   1.371   3.596  26.594  0.1310  0.0228  0.1039
39574W        W48374   1.402   3.064  12.656  0.0154  0.4486  0.1206
39575W        W48375   9.529   4.635   4.713  0.1202  0.1294  0.0238
39576W        W48376   3.109   2.475   0.815  0.3499 -0.1058  0.0841
39577W        W48377   5.876   1.300   8.902  0.0614 -0.4430 -0.0838
39578W        W48378   6.191   5.931   2.650  0.1627 -0.2751  0.1085
39579W        W48379  11.328   4.611  30.286 -0.2527  0.0069 -0.3528
39580W        W48380   4.671   0.394  24.959 -0.1592  0.0551  0.3707
39581W        W48381   6.137   0.979  34.993  0.1675 -0.4805  0.1738
39582W        W48382   9.806   2.531  30.841 -0.1371  0.1694  0.0563
39583W        W48383  23.355   0.306  23.323  0.2048 -0.1058 -0.0601
39584W        W48384  25.841   3.972   4.277 -0.0682  0.3573 -0.1691
39585W        W48385  19.182   5.029  33.413 -0.0119  0.1056  0.0175
39586W        W48386   5.163   0.873  26.380 -0.3431 -0.0451 -0.0642
39587W        W48387   2.440   4.618   7.457  0.2974 -0.0675  0.1643
39588W        W48388  26.163   5.345  35.033 -0.0224  0.0557  0.0264
39589W        W48389   2.091   3.664  32.838 -0.0315  0.0019  0.1088
39590W        W48390   1.756   3.608  21.134 -0.1066  0.1608 -0.2629
39591W        W48391  15.869   0.580  24.742  0.0275 -0.2622 -0.1199
39592W        W48392   6.712   1.800  29.624 -0.0853 -0.0508  0.0321
39593W        W48393   6.043   5.071  13.747  0.2075  0.2468 -0.0795
39594W        W48394  26.410   1.557  10.640  0.1860 -0.2424  0.0677
39595W        W48395   0.205   3.601  23.509  0.1216  0.1038  0.0703
39596W        W48396  18.355   5.383  36.114  0.1087 -0.1457  0.1914
39597W        W48397   7.050   0.848  23.636 -0.2914 -0.0694  0.0635
39598W        W48398  20.342   4.311   3.967 -0.2227  0.0426 -0.1456
39599W        W48399   1.008   5.984  24.653  0.2625  0.0007 -0.2574
39600W        W48400   4.652   1.476  25.074 -0.0608  0.2659 -0.2517
39601W        W48401  12.068   0.762   8.293 -0.4176 -0.2404 -0.1276
39602W        W48402   5.818   2.354  25.724  0.0137  0.2219  0.2438
39603W        W48403  21.250   3.659  27.671 -0.1273  0.1222  0.3923
39604W        W48404   2.832   0.724  35.032  0.0950 -0.1385  0.0778
39605W        W48405  18.087   5.984  10.486  0.0717 -0.1256 -0.0775
39606W        W48406  15.166   1.199  23.907  0.1318 -0.1569  0.0034
39607W        W48407   1.311   1.570  30.097  0.1725 -0.0505  0.0621
39608W        W48408  11.054   0.329   0.852  0.1066 -0.1714 -0.0862
39609W        W48409  18.700   1.986  34.418  0.2175 -0.1684 -0.3546
39610W        W48410   9.297   0.844   4.849 -0.1198  0.2620  0.0100
39611W        W48411  23.109   3.096  23.750 -0.0045  0.1002  0.0045
39612W        W48412   2.583   1.874  35.561  0.1075  0.1238 -0.2896
39613W        W48413  17.129   4.742   2.272 -0.0042 -0.1606 -0.1070
39614W        W48414  17.076   2.433   5.131 -0.2043 -0.1478 -0.0769
39615W        W48415  11.409   0.261  31.852  0.1925  0.0454  0.0997
39616W        W48416  21.408   5.018  24.953  0.2402 -0.1018  0.0286
39617W        W48417  15.113   1.805   1.095 -0.0735 -0.0355 -0.0800
39618W        W48418   7.564   1.307  32.685 -0.0824  0.1076 -0.0352
39619W        W48419   4.383   4.353  20.645 -0.1308  0.0466  0.1180
39620W        W48420   6.422   2.194   6.634 -0.3330 -0.0882  0.1065
39621W        W48421  12.509   2.017   4.397  0.2586 -0.1121 -0.3960
39622W        W48422  12.141   2.415  11.864 -0.1437 -0.1980 -0.1679
39623W        W48423   0.959   0.932   8.686 -0.0284  0.1946  0.1077
39624W        W48424  18.828   4.893  30.942 -0.6190  0.1891 -0.1904
39625W        W48425   4.544   5.975   1.998  0.3780  0.0775  0.1339
39626W        W48426  24.751   4.185  21.365 -0.2068  0.2606  0.2474
39627W        W48427   6.795   6.095  23.474  0.1551 -0.4519 -0.0895
39628W        W48428  23.365   4.395  14.035  0.0156  0.2557  0.1004
39629W        W48429  18.220   1.595  29.904  0.1567  0.2957  0.1824
39630W        W48430   0.517   4.286  23.032  0.3208 -0.3704 -0.1679
39631W        W48431  14.392   3.077  30.077 -0.0911 -0.3717  0.0394
39632W        W48432   5.441   3.469   2.441 -0.2062  0.3196 -0.0139
39633W        W48433  15.632   2.637  29.895  0.1575  0.3032 -0.0663
39634W        W48434   8.130   0.291  26.562 -0.0410  0.1054  0.2363
39635W        W48435  11.000   3.551  12.986 -0.1286 -0.0765 -0.2863
39636W        W48436  22.809   2.470  30.849  0.3437  0.1864 -0.2234
39637W        W48437   9.298   3.463  25.399 -0.2240  0.0352 -0.0549
39638W        W48438   3.766   1.598  34.000 -0.0345 -0.0098 -0.1552
39639W        W48439   4.649   3.486   5.650  0.2563 -0.0893  0.1544
39640W        W48440   6.266   3.628  14.228  0.0401 -0.0169 -0.3780
39641W        W48441  14.555   1.899   0.335  0.1774  0.2152 -0.1407
39642W        W48442  16.580   1.114  10.408  0.2776  0.0054  0.3111
39643W        W48443   8.968   1.918   8.296 -0.1612  0.1438  0.1228
39644W        W48444   1.965   2.155   8.148 -0.2782  0.1785  0.2343
39645W        W48445  13.250   5.738   8.882 -0.0832 -0.1831 -0.2619
39646W        W48446   4.899   2.850   4.087  0.0838 -0.2132 -0.2268
39647W        W48447  22.991   4.233  34.069 -0.0984  0.0509 -0.1412
39648W        W48448   7.091   0.723  20.448  0.0285 -0.1655 -0.4024
39649W        W48449  12.577   1.968  30.400  0.0455 -0.5091 -0.2502
39650W        W48450  11.511   0.684   9.332 -0.2719 -0.2835  0.1099
39651W        W48451   1.700   3.169   9.666  0.1163 -0.0622  0.0673
39652W        W48452  22.303   4.252  32.350  0.1475  0.0075  0.2578
39653W        W48453  17.364   6.508   9.033  0.2127  0.2486  0.3580
39654W        W48454   9.998   4.160  13.888  0.0859 -0.2111 -0.0527
39655W        W48455  12.490   0.676   9.394  0.1997  0.1224 -0.0054
39656W        W48456  10.429   5.709  10.470 -0.2812  0.0991  0.2487
39657W        W48457  12.286   2.420  33.388  0.2510  0.0976 -0.2111
39658W        W48458   9.311   6.356  32.882 -0.2523  0.1831  0.1075
39659W        W48459  17.788   6.141   6.961 -0.2478 -0.1104  0.1883
39660W        W48460  21.601   1.349  22.066 -0.1168 -0.1603 -0.0477
39661W        W48461  10.250   4.531  31.626 -0.1508 -0.2000  0.3255
39662W        W48462  11.683   4.033  21.526  0.1694  0.4404 -0.1724
39663W        W48463   5.869   6.071  25.143 -0.3262 -0.0939 -0.0496
39664W        W48464   8.248   1.885  21.815  0.2283 -0.1006  0.0475
39665W        W48465  24.162   2.727  35.068  0.0185 -0.1160 -0.3047
39666W        W48466  23.411   5.844  11.684  0.1466  0.1413 -0.3138
39667W        W48467  23.904   5.290   2.874  0.2181  0.1645 -0.1916
39668W        W48468  10.879   2.843  20.809  0.0619  0.0173  0.2110
39669W        W48469   8.048   6.330  29.743  0.2810 -0.0874  0.2736
39670W        W48470  23.580   5.503   8.545 -0.0194 -0.0839 -0.1228
39671W        W48471  12.858   6.058  16.328 -0.4508 -0.1849 -0.2402
39672W        W48472   5.118   2.953   1.320 -0.0898 -0.0620 -0.0239
39673W        W48473  22.113   0.574  12.250 -0.2358 -0.0424  0.1861
39674W        W48474  17.689   1.024  33.721 -0.1562 -0.1489  0.0132
39675W        W48475   1.417   4.533  26.679  0.3543  0.3591  0.4918
39676W        W48476  25.026   1.883  14.341  0.0998 -0.0521 -0.4686
39677W        W48477  10.293   0.407   7.748 -0.1475  0.1341 -0.1188
39678W        W48478   1.373   2.346  33.034 -0.2478  0.1049  0.1561
39679W        W48479   5.743   0.200  28.792 -0.0761 -0.2080  0.5460
39680W        W48480  23.183   4.011  31.001 -0.3112 -0.2102 -0.1055
39681W        W48481  18.422   0.437  21.585  0.2977  0.1270 -0.0736
39682W        W48482  10.662   4.211  29.154 -0.2400  0.0096  0.2334
39683W        W48483  19.827   1.795   0.150 -0.0607  0.0256  0.0476
39684W        W48484  14.053   2.752  30.301  0.1107 -0.0657 -0.0457
39685W        W48485   8.495   2.837  22.109  0.0548  0.3392 -0.1958
39686W        W48486  20.685   2.988   1.779  0.0006  0.0092  0.0271
39687W        W48487  12.909   3.112  22.228 -0.1319 -0.1395 -0.1629
39688W        W48488  20.156   2.846   7.214 -0.1683 -0.0215  0.1628
39689W        W48489  15.949   4.058  12.085  0.1077  0.0776 -0.2479
39690W        W48490   4.002   0.459  34.238 -0.1302 -0.0431 -0.3708
39691W        W48491  21.182   1.262   6.497 -0.2911 -0.1044  0.2414
39692W        W48492   4.705   3.220   9.070 -0.2424 -0.1429  0.2685
39693W        W48493  10.929   1.231  11.365 -0.0905  0.0848  0.1944
39694W        W48494   7.475   4.152   1.962 -0.1236 -0.0766  0.0729
39695W        W48495   9.550   2.507   7.119  0.0899 -0.1841 -0.1643
39696W        W48496  16.571   4.931  21.391 -0.0291 -0.4129  0.0702
39697W        W48497   8.031   5.675  28.113 -0.0108 -0.2701  0.1526
39698W        W48498  15.849   2.384  33.991  0.0827  0.3346  0.1058
39699W        W48499   9.684   2.872  14.629  0.3617  0.0336 -0.2111
39700W        W48500  15.565   4.868  11.129 -0.0516 -0.0081  0.0213
39701W        W48501  10.693   2.924  34.439  0.0513  0.4266  0.3131
39702W        W48502   4.747   3.456  34.245  0.2166 -0.0099 -0.1465
39703W        W48503   7.674   1.034   9.527 -0.0986  0.0529  0.0819
39704W        W48504   4.408   2.689  22.536  0.1443  0.2198  0.0519
39705W        W48505  15.676   4.595  29.303  0.1806 -0.2395 -0.0970
39706W        W48506   0.100   4.819   5.640 -0.1543  0.0788  0.1677
39707W        W48507   7.045   3.987  33.378  0.1478 -0.0791  0.0173
39708W        W48508   6.688   5.937  32.095 -0.0487  0.2061  0.0724
39709W        W48509  10.964   5.396   4.592 -0.0522 -0.3853 -0.3769
39710W        W48510  25.413   4.858  10.994  0.0029 -0.0291  0.4444
39711W        W48511  20.909   3.476  34.847 -0.1813  0.0770  0.1833
39712W        W48512  25.860   2.837  35.562 -0.0621 -0.1230  0.2553
39713W        W48513  25.583   1.155   0.138 -0.1613 -0.0714  0.0943
39714W        W48514   7.442   0.450  14.078 -0.1184  0.0272  0.0287
39715W        W48515  14.811   4.073   9.774  0.0715  0.2526 -0.1229
39716W        W48516   4.116   2.795  29.313 -0.1698 -0.1203  0.2999
39717W        W48517   5.394   3.911   0.040 -0.1383 -0.1133  0.1323
39718W        W48518   6.125   1.356  28.834  0.1186 -0.0092  0.2072
39719W        W48519   3.784   0.473   5.566  0.1940  0.1090 -0.0026
39720W        W48520  13.631   5.085   2.786  0.0453  0.0880 -0.2251
39721W        W48521  14.731   6.448  12.042 -0.1905  0.1754  0.0034
39722W        W48522   3.491   2.940  28.668 -0.0473 -0.0543 -0.2164
39723W        W48523   1.365   5.681   4.418 -0.0474  0.0690 -0.0066
39724W        W48524   2.558   1.836   0.803 -0.3036 -0.0429 -0.0525
39725W        W48525  15.061   2.081   0.282 -0.1687 -0.0717  0.2000
39726W        W48526  11.339   1.279  23.881 -0.0212  0.3040 -0.0827
39727W        W48527   6.738   2.083   3.295 -0.0091 -0.2210 -0.0741
39728W        W48528  25.924   4.599  33.917 -0.1060 -0.2476  0.1171
39729W        W48529  25.655   1.314  24.612  0.0671  0.2524  0.2384
39730W        W48530   1.040   6.352   1.365 -0.0330 -0.0491 -0.0136
39731W        W48531   0.770   1.043  20.319 -0.2215  0.0428 -0.1136
39732W        W48532  22.516   4.029  10.202 -0.1090 -0.2250 -0.4310
39733W        W48533  24.431   4.914  21.902 -0.0368 -0.4190  0.1065
39734W        W48534  20.119   5.717  33.232  0.1506 -0.0722  0.1548
39735W        W48535   0.946   3.480  25.758  0.0230 -0.0017  0.1356
39736W        W48536  23.748   3.524   4.345 -0.2776 -0.0781  0.0365
39737W        W48537  18.628   2.087   8.907 -0.0237  0.0689  0.4239
39738W        W48538  15.810   2.423  12.526  0.2335 -0.0550  0.0303
39739W        W48539   1.812   0.486  29.359  0.0859  0.4463  0.0022
39740W        W48540   3.438   2.612   9.143  0.0322  0.0472 -0.1953
39741W        W48541   8.189   2.387   7.225  0.0355 -0.2663 -0.1285
39742W        W48542   0.267   3.852  12.821  0.2640 -0.0967 -0.1034
39743W        W48543   2.864   4.740   4.381 -0.3007 -0.1520  0.1473
39744W        W48544  12.821   1.347  22.516 -0.2227  0.0798  0.0004
39745W        W48545  16.919   5.943  25.762  0.0278 -0.0141  0.1608
39746W        W48546  20.311   5.035  32.020  0.0482  0.0900  0.0030
39747W        W48547   5.077   2.877  21.320 -0.0085 -0.1312  0.0308
39748W        W48548   4.798   4.228  13.738  0.1682  0.1650  0.0651
39749W        W48549   8.864   2.891  25.850  0.2578 -0.0586 -0.1475
39750W        W48550  19.726   4.762   6.113  0.2171  0.0463  0.0181
39751W        W48551  15.406   2.086  24.390 -0.0585 -0.3287  0.1102
39752W        W48552  11.583   4.386  33.483  0.4154  0.2586  0.0669
39753W        W48553   6.457   0.759  21.185 -0.0593  0.1845  0.0574
39754W        W48554   7.687   0.405  22.837 -0.1935 -0.0105  0.2628
39755W        W48555   0.168   3.084   8.807 -0.2576  0.2863  0.2102
39756W        W48556   8.695   2.407  30.310 -0.1579  0.1390 -0.1722
39757W        W48557   1.957   3.047  32.246  0.1039 -0.0590 -0.1239
39758W        W48558  14.949   5.004   4.465  0.0484  0.5350 -0.1084
39759W        W48559  23.676   1.968   3.860 -0.2668  0.1163 -0.3293
39760W        W48560  24.237   6.547   2.123  0.2528  0.1418  0.1221
39761W        W48561   7.590   5.196   3.506  0.0038 -0.1766  0.0849
39762W        W48562   0.014   2.096  28.256  0.1702  0.1995  0.3046
39763W        W48563  14.628   5.578  24.270 -0.0690  0.2601  0.1024
39764W        W48564   6.666   5.971  29.642  0.1960  0.2195  0.1160
39765W        W48565   5.911   3.425  24.836  0.2491  0.0772  0.1211
39766W        W48566  18.268   2.426  29.509 -0.0621 -0.3127 -0.0511
39767W        W48567  14.138   3.981  26.998  0.1034 -0.1747 -0.0609
39768W        W48568   0.342   0.634   8.260 -0.2026 -0.1283 -0.0581
39769W        W48569  22.700   6.216  35.314  0.0565  0.1028  0.0557
39770W        W48570  18.851   5.653  32.799  0.1815  0.6223  0.4203
39771W        W48571  25.366   1.088  35.002 -0.4156 -0.3839  0.2750
39772W        W48572  23.080   4.194  30.515  0.0755  0.1768 -0.0506
39773W        W48573   8.036   2.149  33.690 -0.1003 -0.0558 -0.3850
39774W        W48574  12.775   1.270  11.361 -0.0266  0.3191  0.0062
39775W        W48575   4.035   1.691   7.946 -0.0272  0.1105 -0.0778
39776W        W48576  23.360   1.600  28.655  0.0882 -0.2175  0.0365
39777W        W48577   5.512   4.280  32.601 -0.1074  0.0265  0.0648
39778W        W48578  18.227   5.610   3.023 -0.0061  0.0163 -0.1756
39779W        W48579  25.035   1.729   9.988  0.1758 -0.0976 -0.1796
39780W        W48580   8.093   0.911  27.639 -0.0321 -0.0486  0.2277
39781W        W48581  17.352   1.445  31.374  0.2350  0.3158 -0.2065
39782W        W48582  21.655   4.534  26.089  0.3251  0.0049 -0.0726
39783W        W48583   1.977   6.066  11.053 -0.1710  0.2344  0.0146
39784W        W48584   4.301   3.292   4.701 -0.0713  0.2772  0.2135
39785W        W48585   5.906   6.126  12.111  0.0977  0.2849  0.0198
39786W        W48586  12.975   3.616  13.261 -0.0662 -0.0704 -0.0643
39787W        W48587   9.848   2.590   1.670 -0.2332  0.3387  0.0728
39788W        W48588   8.030   3.572  32.574 -0.1716  0.1023 -0.1368
39789W        W48589   7.782   1.949  32.734  0.0019  0.0182 -0.0780
39790W        W48590  20.843   2.114  11.290 -0.0496 -0.0029  0.0167
39791W        W48591   9.664   5.836  13.817 -0.0432 -0.2750 -0.2496
39792W        W48592  14.249   4.422  11.539 -0.1745 -0.0248  0.0117
39793W        W48593  12.109   1.938   3.751 -0.1019  0.0261  0.1332
39794W        W48594  14.830   5.307  30.665 -0.0462  0.0964  0.0921
39795W        W48595  24.076   4.152  10.150 -0.0940  0.1484  0.3218
39796W        W48596  22.992   5.594   8.382 -0.4030 -0.1361 -0.0613
39797W        W48597   6.439   0.349  35.585  0.0333 -0.1803  0.1786
39798W        W48598  12.021   0.993   0.334 -0.0315 -0.1485 -0.2220
39799W        W48599   8.987   4.193  11.836 -0.0296  0.1004  0.0770
39800W        W48600   8.763   6.324  28.926  0.1357  0.0147  0.3698
39801W        W48601  20.869   5.699  27.991  0.2330 -0.3684 -0.1228
39802W        W48602  15.380   2.885  30.890  0.3287  0.1714  0.1637
39803W        W48603  10.262   4.928  34.797 -0.0783 -0.0171 -0.1237
39804W        W48604   7.677   5.519   1.722  0.1915  0.3903  0.1612
39805W        W48605  17.557   0.448  14.791 -0.0316  0.2527 -0.1564
39806W        W48606   6.307   4.910  31.460  0.3689  0.2926  0.2151
39807W        W48607  18.848   6.079  21.226  0.1837  0.1643 -0.1100
39808W        W48608   2.995   4.045  12.519 -0.2473  0.0451 -0.4643
39809W        W48609   9.438   4.420  30.000 -0.2374  0.2395 -0.1525
39810W        W48610   3.530   2.998   0.338  0.1315 -0.1062  0.0167
39811W        W48611  21.977   3.378   6.489  0.0490 -0.0973 -0.1358
39812W        W48612  25.057   3.660  26.923  0.2829  0.0147  0.1796
39813W        W48613   2.685   0.527  33.756  0.1588  0.2058 -0.1358
39814W        W48614   3.475   2.643   4.819  0.0243  0.2645  0.0477
39815W        W48615   2.730   5.350   4.464  0.0804 -0.1541 -0.0390
39816W        W48616   5.450   4.571  23.051 -0.0241  0.0258 -0.2426
39817W        W48617  18.658   1.771  11.296 -0.0628 -0.4208 -0.0916
39818W        W48618  10.897   0.755  12.169 -0.1164  0.1733  0.3247
39819W        W48619  13.388   0.452  30.612  0.1184 -0.0097  0.1068
39820W        W48620  11.753   3.552  28.271  0.1715  0.0467 -0.1384
39821W        W48621  25.689   1.933  30.800 -0.1150 -0.2839 -0.2172
39822W        W48622   3.232   4.247   6.864 -0.0637 -0.0267  0.0114
39823W        W48623   6.448   6.239   5.836 -0.1617  0.1604  0.1234
39824W        W48624   8.606   3.984  12.070 -0.0654  0.1224  0.0988
39825W        W48625  10.146   2.037  14.658 -0.1689 -0.2436 -0.0027
39826W        W48626   3.465   4.901  23.053  0.0343 -0.0608 -0.1022
39827W        W48627  18.778   4.397   5.934  0.2158  0.1440  0.1336
39828W        W48628   0.150   0.926  35.914  0.1299 -0.0430  0.1007
39829W        W48629  13.428   5.599   5.500 -0.0373 -0.0302 -0.0852
39830W        W48630  18.172   1.720  29.413 -0.0121 -0.0189  0.0994
39831W        W48631  10.640   5.608  26.520 -0.2586  0.0598 -0.4091
39832W        W48632  20.555   4.902   5.580 -0.0016  0.1748  0.1367
39833W        W48633  15.986   3.152   2.422 -0.1138 -0.0600 -0.1712
39834W        W48634   4.984   3.113   8.229  0.0752  0.2063 -0.2039
39835W        W48635  13.103   1.485  28.034 -0.2291 -0.1889 -0.0393
39836W        W48636  21.015   3.818   5.901 -0.0881 -0.1769 -0.3581
39837W        W48637  11.430   4.237  34.415 -0.2050 -0.2483  0.1343
39838W        W48638  12.979   3.567   3.721  0.0743  0.0571 -0.0157
39839W        W48639   8.455   1.265  27.706  0.1737 -0.1146 -0.0820
39840W        W48640   7.586   6.183  33.941  0.1755 -0.3436 -0.3000
39841W        W48641   4.146   0.059  10.250  0.2116  0.1233 -0.1815
39842W        W48642   5.882   4.516  31.188  0.5087 -0.4405  0.1342
39843W        W48643  10.849   3.406  35.804  0.0418 -0.0636  0.0874
39844W        W48644   1.560   6.298   2.187  0.0601 -0.1312  0.0874
39845W        W48645   8.447   1.592   1.401  0.1371  0.0617 -0.1668
39846W        W48646   8.587   3.063  25.426 -0.0695 -0.3193  0.4415
39847W        W48647  25.429   5.968  10.947 -0.2744  0.0940 -0.0841
39848W        W48648  10.325   6.295  26.683 -0.1189 -0.0899 -0.2584
39849W        W48649  18.047   2.929   4.902  0.0789  0.0319  0.1296
39850W        W48650  18.626   3.862  14.274 -0.3231  0.1250  0.0329
39851W        W48651   3.473   5.564   7.217 -0.0114 -0.1368  0.0014
39852W        W48652   6.990   3.262  22.268 -0.0360 -0.0156 -0.1100
39853W        W48653  17.216   5.436  30.205  0.1231  0.3298 -0.0483
39854W        W48654  16.175   6.498  27.482  0.1590  0.0767  0.1792
39855W        W48655  20.291   4.678   2.933 -0.0547  0.0351  0.4790
39856W        W48656  23.947   2.627  27.972 -0.0279  0.0838 -0.2816
39857W        W48657   0.847   0.717  13.304 -0.3921  0.1268  0.3340
39858W        W48658   2.448   5.495  22.691  0.0926 -0.1796  0.0448
39859W        W48659  21.687   3.096   1.898 -0.0605  0.0505 -0.0674
39860W        W48660  21.825   3.221   4.131 -0.0232 -0.1223 -0.2789
39861W        W48661  15.738   2.515  30.368 -0.1746 -0.0357 -0.1531
39862W        W48662  26.148   1.926  30.322 -0.2183 -0.3662 -0.4769
39863W        W48663  11.865   5.954   7.781 -0.0291 -0.0809 -0.2198
39864W        W48664  17.655   5.968  15.447 -0.0500 -0.1343  0.0728
39865W        W48665   3.494   0.069  13.305  0.4080 -0.1836 -0.2377
39866W        W48666  16.356   4.655  28.056 -0.2024 -0.3520 -0.0270
39867W        W48667   9.295   4.805  32.762 -0.2108  0.0835  0.1802
39868W        W48668  11.895   4.057  14.770  0.0121  0.0808 -0.2140
39869W        W48669  26.355   5.270  20.798  0.2867  0.2048 -0.0481
39870W        W48670  10.396   1.609   5.996  0.2108 -0.3576 -0.1032
39871W        W48671  17.426   3.857  28.972 -0.0549  0.0205 -0.1301
39872W        W48672   1.949   4.198  25.807  0.3634 -0.3158 -0.0027
39873W        W48673   7.807   4.924  34.867  0.1906  0.1581  0.1965
39874W        W48674   4.582   5.101  32.760  0.2292  0.0591  0.1069
39875W        W48675  18.954   6.284  11.444 -0.1403 -0.0699 -0.3112
39876W        W48676   8.907   2.306   1.977 -0.2389 -0.0180 -0.2227
39877W        W48677   1.010   2.522  30.051 -0.0395  0.0329  0.2356
39878W        W48678   4.662   5.090   1.529  0.1369  0.0740  0.0549
39879W        W48679   3.589   5.733  31.564  0.0633 -0.0539  0.0584
39880W        W48680   6.541   4.234  32.126 -0.0842 -0.0199 -0.2945
39881W        W48681  17.264   3.114  23.150  0.2816 -0.1221  0.1496
39882W        W48682  18.781   1.197  22.302 -0.0014 -0.3175 -0.1584
39883W        W48683  19.231   4.449  34.233  0.2749  0.4118 -0.3365
39884W        W48684   4.773   2.789  25.814  0.2290  0.2290  0.1686
39885W        W48685  24.962   1.617  10.734  0.1746 -0.2691  0.2639
39886W        W48686   3.307   4.371  30.456  0.2042 -0.0325 -0.4062
39887W        W48687  20.764   6.481   2.980 -0.3038 -0.0219  0.1185
39888W        W48688   4.712   6.499  35.770  0.0149  0.1822  0.1911
39889W        W48689  16.590   2.189  30.333  0.2469 -0.0404 -0.1348
39890W        W48690  10.577   6.174  10.788  0.1283  0.4082 -0.0459
39891W        W48691  24.515   6.357  20.715  0.2872 -0.0786  0.2520
39892W        W48692   9.882   3.371  14.827 -0.1996 -0.0022  0.2351
39893W        W48693  13.657   1.915  15.699  0.0414 -0.2687 -0.0970
39894W        W48694   1.009   5.102  27.381 -0.0262  0.0385  0.0416
39895W        W48695  19.969   5.418  31.755  0.0722  0.0618  0.1087
39896W        W48696   1.308   5.658  13.540  0.1362 -0.2251  0.1076
39897W        W48697   3.093   5.179   9.411 -0.0485 -0.1433 -0.2417
39898W        W48698  12.513   1.475   8.805 -0.1651 -0.0981  0.0793
39899W        W48699  16.099   0.687  12.098 -0.0762  0.0473 -0.3965
39900W        W48700   0.558   1.071   9.290  0.2522 -0.0938 -0.1168
39901W        W48701  24.336   0.052  23.394 -0.0829  0.0920 -0.3839
39902W        W48702  15.597   1.965  31.179 -0.1596 -0.0431  0.0144
39903W        W48703  24.043   6.498   2.741  0.0464 -0.0445 -0.1365
39904W        W48704  20.296   5.325   4.510 -0.0046  0.0443 -0.0129
39905W        W48705  24.074   0.867  30.952  0.4013  0.1125 -0.0671
39906W        W48706   3.161   4.898  31.517  0.0352  0.0645  0.1532
39907W        W48707   6.034   1.211  29.314 -0.0004  0.2334 -0.0261
39908W        W48708   4.912   2.607   7.956 -0.0730  0.1496 -0.2677
39909W        W48709  20.231   2.294   3.487 -0.3616 -0.3648 -0.1366
39910W        W48710  11.464   0.306  26.669  0.2600 -0.4163  0.1556
39911W        W48711  17.315   0.595  23.550 -0.0305  0.1283 -0.1376
39912W        W48712  22.435   3.739   7.405 -0.0524  0.1491 -0.1066
39913W        W48713  12.277   4.876  27.972  0.3608  0.0291  0.1164
39914W        W48714  22.092   2.980  34.170  0.2774  0.3365 -0.2042
39915W        W48715  14.266   5.044  31.431  0.1817  0.2668 -0.0857
39916W        W48716   1.223   2.529  25.716  0.1112 -0.3246  0.0624
39917W        W48717  20.261   5.745  12.945 -0.5149  0.0226 -0.1342
39918W        W48718   1.692   6.239  27.816  0.3225  0.0659  0.1810
39919W        W48719   5.083   1.747   0.012  0.2550  0.1321 -0.1098
39920W        W48720  14.919   2.477  29.101 -0.0974  0.0633  0.0507
39921W        W48721  13.943   4.304  10.980 -0.1375 -0.0053 -0.2305
39922W        W48722  10.238   5.030  29.614  0.0638  0.0748  0.2713
39923W        W48723  19.556   2.287  34.635 -0.3522  0.1256  0.1289
39924W        W48724  24.107   0.368  23.694 -0.3548  0.1136  0.0131
39925W        W48725  18.696   3.574   8.295  0.2578  0.1698 -0.3379
39926W        W48726   0.581   0.332  20.789  0.0200  0.0708 -0.1221
39927W        W48727   0.406   1.984  35.018 -0.3297 -0.0057  0.1080
39928W        W48728  25.974   2.234   4.231  0.0573  0.0887 -0.2508
39929W        W48729  15.491   3.800   5.806  0.0138 -0.2323 -0.0960
39930W        W48730   2.767   3.798   0.741  0.2745  0.1990 -0.0198
39931W        W48731   8.338   1.639  26.252  0.0014  0.1745  0.0986
39932W        W48732  24.592   0.629  25.277  0.0166  0.1658  0.1507
39933W        W48733  11.092   6.329  15.655 -0.0517  0.0193 -0.2070
39934W        W48734   6.954   4.241  14.237  0.0598 -0.1679  0.2852
39935W        W48735  13.760   1.253   8.795 -0.0005 -0.0908  0.0764
39936W        W48736  12.138   1.094   2.343 -0.0735 -0.2313 -0.0344
39937W        W48737  15.268   0.209  21.916  0.0215 -0.2003  0.1517
39938W        W48738   9.170   0.431  32.039  0.0858  0.1097  0.2379
39939W        W48739  22.268   2.730   1.261 -0.0710  0.2635  0.0946
39940W        W48740  12.326   1.341  25.203  0.1636 -0.0594 -0.0622
39941W        W48741  16.307   1.615  35.672  0.0098 -0.0889 -0.1783
39942W        W48742  17.271   1.178   5.200  0.1688  0.3721  0.2063
39943W        W48743  20.614   4.090   6.359 -0.2185  0.2011  0.2706
39944W        W48744   7.885   2.833  20.336 -0.2328  0.0638 -0.3417
39945W        W48745  10.256   2.439  13.286 -0.0135  0.4504 -0.1180
39946W        W48746  10.264   0.818  15.761  0.1051  0.0430 -0.3742
39947W        W48747   5.124   2.898  14.783 -0.2207 -0.1138  0.1284
39948W        W48748  21.271   0.332  26.459 -0.0072 -0.4451  0.2117
39949W        W48749   6.371   3.301   3.425 -0.4853  0.1691 -0.0372
39950W        W48750  26.041   2.601  15.139 -0.1561 -0.1938 -0.2017
39951W        W48751   6.572   4.952   9.006  0.0207 -0.2271 -0.0112
39952W        W48752   0.784   6.408   0.503  0.2321 -0.0241  0.1522
39953W        W48753   0.830   6.132  10.097  0.0507 -0.1004  0.0356
39954W        W48754  18.047   1.963  27.303  0.2762  0.0375  0.3443
39955W        W48755  12.734   0.202   2.013  0.0524 -0.0658 -0.1593
39956W        W48756   6.377   4.912   6.769 -0.2796  0.1606  0.0265
39957W        W48757  25.720   5.157  32.969 -0.1145  0.4031  0.1886
39958W        W48758   5.844   6.488  25.908 -0.2263  0.0552  0.0835
39959W        W48759  15.912   6.393  34.308  0.2913  0.0004 -0.2490
39960W        W48760   3.915   5.918  21.688  0.1238 -0.1956 -0.0383
39961W        W48761  22.574   1.889  24.897 -0.1191  0.3388 -0.0503
39962W        W48762  10.746   2.849  30.690 -0.0182  0.0706 -0.2123
39963W        W48763  13.194   0.919   5.307 -0.0068  0.1137 -0.0814
39964W        W48764  17.055   2.175   2.993 -0.0390 -0.1619 -0.3998
39965W        W48765   9.763   4.945   0.363  0.1404  0.1158 -0.4120
39966W        W48766  26.304   1.574   0.705  0.0129 -0.0172 -0.1544
39967W        W48767  24.216   6.076   4.692 -0.2440  0.1872 -0.1677
39968W        W48768  10.275   0.180  22.638 -0.0728  0.0858 -0.3379
39969W        W48769   1.936   0.780  32.134  0.2515 -0.2314 -0.0197
39970W        W48770  17.580   1.866  35.903  0.1974  0.0910 -0.0663
39971W        W48771   0.905   4.708  29.380 -0.0442  0.1040  0.2407
39972W        W48772  21.274   0.165  34.715  0.1149 -0.0002 -0.1409
39973W        W48773  14.634   3.118  20.526  0.0912  0.2780  0.0197
39974W        W48774   9.032   1.444  14.587  0.0421 -0.0288 -0.1294
39975W        W48775  21.655   1.927  28.285  0.3562 -0.1759 -0.0376
39976W        W48776  10.659   3.237  28.591 -0.1206 -0.1308  0.0631
39977W        W48777  12.394   2.513   6.456  0.0413 -0.2832 -0.4207
39978W        W48778   4.965   5.632  11.204 -0.1127 -0.2972 -0.0818
39979W        W48779  23.682   1.643  28.254  0.0687  0.1579  0.0789
39980W        W48780   5.329   1.226  13.250  0.2774 -0.5021  0.1165
39981W        W48781   5.638   0.847   0.162  0.4133 -0.4320 -0.0807
39982W        W48782  19.035   4.465  21.642 -0.0349  0.2567  0.1593
39983W        W48783  17.853   3.163  31.129 -0.0839 -0.2613 -0.0074
39984W        W48784  20.792   0.920  26.825  0.1048  0.0713 -0.1373
39985W        W48785  20.478   1.300   2.140 -0.0114 -0.3014 -0.4573
39986W        W48786  10.203   4.176   5.180 -0.2692 -0.0744  0.1182
39987W        W48787   9.320   0.757  33.251  0.1379 -0.1331  0.1190
39988W        W48788  14.850   6.578  26.949 -0.1299  0.1473  0.4651
39989W        W48789   7.596   5.611   8.108 -0.0049  0.0303  0.1614
39990W        W48790   9.017   4.978  33.107 -0.0216  0.0046 -0.0695
39991W        W48791  25.932   3.852   7.439 -0.0148  0.1156 -0.1292
39992W        W48792   4.700   1.271   2.777  0.1862  0.0630  0.0680
39993W        W48793  20.913   4.303  32.409 -0.0452 -0.1065 -0.0094
39994W        W48794   7.695   3.162  31.791  0.0212 -0.0662 -0.0499
39995W        W48795   8.609   2.002   7.218 -0.0406 -0.2592  0.3004
39996W        W48796   2.641   4.359  11.372 -0.2995  0.1569 -0.0849
39997W        W48797  20.438   4.907  34.763 -0.2455  0.1410 -0.1460
39998W        W48798  23.658   1.507  13.651  0.2556 -0.0402 -0.3567
39999W        W48799   1.134   0.124   5.220 -0.0987 -0.0082  0.1477
40000W        W48800  23.045   6.579  35.471 -0.0089 -0.2561  0.0730
40001W        W48801  26.338   4.027  33.169  0.1321 -0.1547 -0.0717
40002W        W48802   2.019   0.216  12.738  0.1732 -0.0621 -0.1591
40003W        W48803  19.740   1.450   8.388  0.1976  0.2030 -0.2357
40004W        W48804   6.944   5.118  12.783 -0.3331  0.1407 -0.4323
40005W        W48805  23.972   6.485  13.482 -0.0065  0.0160 -0.3164
40006W        W48806  21.501   1.580   3.385  0.2733 -0.0861 -0.0166
40007W        W48807  10.368   5.450  22.070 -0.1100  0.0082  0.1112
40008W        W48808   6.848   5.697  31.716  0.1080 -0.0506  0.3589
40009W        W48809   1.139   4.805  33.526  0.0699  0.3268 -0.0661
40010W        W48810  26.115   5.873  12.134  0.0411 -0.0748 -0.1014
40011W        W48811  21.636   2.745  21.153  0.0134  0.0559 -0.3122
40012W        W48812  24.395   3.522  22.577  0.3124  0.2067 -0.0763
40013W        W48813  14.891   1.243   8.689 -0.1833 -0.0513 -0.0161
40014W        W48814  19.294   3.810  24.783  0.2447  0.0639 -0.0167
40015W        W48815  19.378   3.955  35.887 -0.1327 -0.3470 -0.0763
40016W        W48816   2.156   0.548  20.691  0.0738  0.2455 -0.1315
40017W        W48817  13.107   5.268  27.992 -0.1349  0.0908 -0.0637
40018W        W48818  15.833   1.818  29.423  0.0212 -0.1238 -0.1797
40019W        W48819  22.934   5.794  34.379  0.0032 -0.1932  0.2247
40020W        W48820   7.359   3.641   4.584 -0.0335 -0.0729  0.2888
40021W        W48821  13.091   2.669  29.352 -0.1342  0.1874 -0.0837
40022W        W48822   1.895   1.678   6.953 -0.6785 -0.3220 -0.0368
40023W        W48823   9.525   5.950  29.818  0.0462 -0.0874  0.0072
40024W        W48824   0.053   0.246  35.940 -0.0976  0.2838 -0.1921
40025W        W48825  19.260   1.784   4.551 -0.0951 -0.1023  0.2287
40026W        W48826   5.740   2.895  22.010 -0.1809 -0.3393  0.1784
40027W        W48827  11.132   1.014  10.277 -0.4515 -0.0443 -0.0371
40028W        W48828   3.910   5.042  35.139 -0.0892  0.0331 -0.2458
40029W        W48829   6.044   1.831   1.437 -0.3816 -0.0135  0.4533
40030W        W48830  25.747   1.865  12.045 -0.1148 -0.0857 -0.0686
40031W        W48831  16.894   2.230  11.961 -0.2456  0.0050 -0.3012
40032W        W48832   7.374   1.435  12.303  0.0563  0.0340  0.1797
40033W        W48833  25.802   3.861  24.166 -0.1845  0.2869 -0.1068
40034W        W48834  24.832   6.499   5.794 -0.0252  0.2323  0.0881
40035W        W48835  17.368   4.107   5.481 -0.1124 -0.3723 -0.0366
40036W        W48836  12.329   5.277  13.220 -0.1743 -0.1483  0.1526
40037W        W48837  19.637   4.056  32.125 -0.0353  0.2125 -0.2223
40038W        W48838  20.442   5.082   4.066 -0.0634 -0.0446  0.0796
40039W        W48839   1.273   2.448  24.668 -0.3933  0.1008  0.2057
40040W        W48840  19.277   3.855   4.923 -0.0859  0.1964 -0.1024
40041W        W48841  16.381   1.297   6.395  0.3770  0.3440  0.0986
40042W        W48842   4.875   6.510  23.006 -0.2489 -0.4515  0.3271
40043W        W48843  16.840   0.404  21.892  0.1859 -0.0437 -0.1649
40044W        W48844  20.923   3.931   0.722 -0.1260 -0.1789  0.1503
40045W        W48845  16.810   3.531  12.542 -0.1388 -0.0321 -0.0985
40046W        W48846  24.612   3.693  35.301 -0.0133  0.3031 -0.0233
40047W        W48847  25.388   1.483  33.765  0.0900 -0.2534  0.1421
40048W        W48848   3.134   5.535   2.555  0.1781  0.1027 -0.1194
40049W        W48849  21.068   3.193  28.671 -0.0367  0.1621  0.0188
40050W        W48850   1.176   0.859   6.861  0.1834  0.0973  0.2760
40051W        W48851  20.214   4.533  11.645  0.2133 -0.2312  0.0682
40052W        W48852  23.779   1.761  21.313  0.1474  0.0062  0.1393
40053W        W48853   0.804   5.196  35.222  0.0990 -0.2715 -0.1058
40054W        W48854   3.668   5.093  31.589 -0.1133  0.1843 -0.1845
40055W        W48855   7.809   1.107  22.189 -0.1128  0.0255 -0.0330
40056W        W48856  24.190   0.509  26.830  0.2372  0.0937  0.2513
40057W        W48857  17.497   5.454   3.325  0.0389  0.1979  0.1978
40058W        W48858   1.528   5.675  27.449  0.1131  0.1745 -0.1154
40059W        W48859  11.276   5.740  32.129 -0.2312 -0.2205 -0.0726
40060W        W48860   6.985   2.720   9.939  0.0218 -0.1969  0.0729
40061W        W48861  21.714   5.830   0.837 -0.1026  0.1503 -0.0536
40062W        W48862   3.005   0.240   0.005  0.1355  0.0040 -0.1739
40063W        W48863   1.747   0.407  23.577  0.0354 -0.0024 -0.0927
40064W        W48864  13.640   0.965   9.516 -0.0197 -0.4858  0.0316
40065W        W48865  12.764   4.172  14.488  0.0021  0.1189  0.0957
40066W        W48866  13.058   1.641  26.288 -0.0761  0.1231 -0.1412
40067W        W48867  16.248   6.502  28.207 -0.2919  0.0260 -0.2592
40068W        W48868   1.047   5.834   3.054 -0.4256 -0.2564  0.2587
40069W        W48869  25.994   1.370  33.354  0.0380  0.1463 -0.1913
40070W        W48870  16.270   2.858   1.445  0.1196 -0.2543  0.0187
40071W        W48871  24.750   3.687   3.178  0.4141  0.0238  0.3987
40072W        W48872   0.079   1.666  28.536  0.0738 -0.2822  0.1210
40073W        W48873   2.166   6.115  33.201 -0.3278  0.2549  0.1121
40074W        W48874  15.351   2.663  21.791 -0.1766  0.1788  0.1528
40075W        W48875   6.454   1.310   4.269 -0.3094  0.2101  0.2016
40076W        W48876   6.415   1.236   0.540  0.2001 -0.1165  0.0158
40077W        W48877   4.680   5.034  29.316 -0.3585  0.1659 -0.0557
40078W        W48878   3.516   4.519   0.844  0.3530  0.0759 -0.0471
40079W        W48879  21.662   0.419  26.178 -0.0829 -0.2674  0.1177
40080W        W48880  22.751   6.455  23.396  0.1769  0.2416  0.0352
40081W        W48881  21.791   6.531   5.678  0.0923 -0.0401  0.0550
40082W        W48882  21.534   5.069  27.136  0.3033 -0.1721  0.1037
40083W        W48883   6.746   5.648  27.592 -0.0695  0.0989 -0.1817
40084W        W48884   8.925   3.732  34.277  0.1581 -0.0052  0.1639
40085W        W48885   7.883   0.160  25.871 -0.0026 -0.0676 -0.2896
40086W        W48886   7.442   6.519  33.025  0.0893  0.0148  0.2154
40087W        W48887  20.759   0.140   2.542 -0.1933  0.0068  0.0486
40088W        W48888  17.635   0.673  12.525 -0.1278  0.2514 -0.3310
40089W        W48889  17.512   6.080  21.014 -0.1973 -0.0483  0.2577
40090W        W48890   6.412   6.327   2.833 -0.1319 -0.1564 -0.0054
40091W        W48891  11.195   1.232  15.443 -0.1942 -0.0554  0.1411
40092W        W48892  20.820   4.020  14.296 -0.2979 -0.1182 -0.1974
40093W        W48893  15.540   4.077  24.686 -0.0437 -0.0743 -0.0996
40094W        W48894   6.786   1.884  26.821 -0.0091  0.3053 -0.2353
40095W        W48895   3.874   2.121  35.279  0.0109  0.0871 -0.0345
40096W        W48896  22.606   1.613  34.534  0.0928  0.1834 -0.0555
40097W        W48897   6.084   0.528   2.445  0.2159  0.5275 -0.1747
40098W        W48898   0.072   4.526  29.586 -0.0670 -0.0101 -0.4755
40099W        W48899   1.613   4.757   0.601  0.0716  0.3086 -0.0678
40100W        W48900  18.295   5.039   6.001 -0.1645  0.0750 -0.3159
40101W        W48901  22.106   3.211  22.267  0.0376 -0.1934 -0.0100
40102W        W48902   3.390   4.120  34.088 -0.0758  0.1181  0.1189
40103W        W48903  10.043   3.703   3.958  0.1236  0.0821 -0.2576
40104W        W48904  11.710   1.175  10.435 -0.1158  0.2203  0.1013
40105W        W48905   6.197   6.601   5.177 -0.0849 -0.1436  0.0638
40106W        W48906  19.976   2.494  31.209 -0.1971  0.0017 -0.0541
40107W        W48907  19.764   6.063  21.467 -0.0411  0.2751 -0.0699
40108W        W48908  19.602   3.505   3.098  0.0684 -0.1544 -0.0449
40109W        W48909  12.723   1.308  14.037 -0.1074 -0.2972 -0.1868
40110W        W48910   9.298   1.554   0.242 -0.1541  0.1335  0.1235
40111W        W48911  25.319   4.995  23.774 -0.1996 -0.2695 -0.3328
40112W        W48912  23.021   3.515   7.789  0.3363 -0.1483 -0.0276
40113W        W48913  10.192   0.420  21.759 -0.2187 -0.3976  0.2955
40114W        W48914   5.274   2.885   3.643 -0.1378 -0.2948 -0.1027
40115W        W48915  20.001   2.197  27.750  0.2183 -0.1486  0.0119
40116W        W48916  12.326   2.362  32.370 -0.2586  0.0345 -0.1781
40117W        W48917   3.220   2.438  28.911  0.0690  0.1983 -0.1660
40118W        W48918  21.272   3.864   9.041  0.0177 -0.1164 -0.0628
40119W        W48919   6.332   1.948   2.989 -0.0897  0.0474  0.1435
40120W        W48920  24.725   2.310  28.074 -0.1934 -0.0542 -0.2946
40121W        W48921  18.982   2.797  21.560 -0.0170  0.2697  0.0341
40122W        W48922   3.959   4.133  35.859 -0.2684 -0.1971 -0.1057
40123W        W48923  19.156   0.784   3.460  0.0197  0.1375 -0.0827
40124W        W48924   9.635   2.637  22.443 -0.0134 -0.1289 -0.0016
40125W        W48925  24.420   1.021  22.707  0.0838 -0.1130  0.2631
40126W        W48926  25.463   4.752  22.169  0.0474 -0.0561  0.1369
40127W        W48927   4.562   2.551  28.115  0.1111 -0.0692  0.0896
40128W        W48928   8.926   5.242  24.289  0.0436 -0.4224 -0.1393
40129W        W48929  21.337   1.808  26.729 -0.1538 -0.0561 -0.0685
40130W        W48930  26.279   0.407  15.081 -0.0809  0.3224 -0.0119
40131W        W48931  20.166   5.748   5.056  0.0973 -0.2752  0.3091
40132W        W48932   1.242   2.322  12.258  0.0250 -0.0949  0.4412
40133W        W48933  22.205   2.599   3.237  0.2527 -0.0781 -0.0710
40134W        W48934   8.319   2.010   7.588 -0.2777  0.1689  0.2007
40135W        W48935   0.130   0.826   5.633 -0.0082 -0.1338 -0.1852
40136W        W48936  19.599   4.842  11.179 -0.3046 -0.0165  0.0697
40137W        W48937  25.251   3.464   7.158 -0.0775  0.1573  0.0480
40138W        W48938   7.560   0.217  11.860  0.1176  0.0662 -0.0659
40139W        W48939  16.707   3.403  30.526 -0.2138  0.3121 -0.0669
40140W        W48940  23.281   3.792  29.650 -0.0058 -0.1638  0.2542
40141W        W48941  25.604   5.316   2.415 -0.0407 -0.0847 -0.4997
40142W        W48942   6.311   3.119  14.466 -0.0099 -0.0552 -0.1945
40143W        W48943  25.249   6.199  35.989 -0.0866 -0.2289 -0.2424
40144W        W48944  16.224   5.324  33.870  0.1635 -0.1086 -0.0902
40145W        W48945  14.266   3.451  31.730 -0.2695 -0.1693  0.0903
40146W        W48946  19.521   4.462  22.683 -0.2663 -0.1465  0.2282
40147W        W48947   7.739   6.045  32.421 -0.4163  0.1507  0.2547
40148W        W48948  15.516   4.788  23.839 -0.0543 -0.3925 -0.0593
40149W        W48949  11.910   6.231   1.049  0.1330 -0.0773 -0.3352
40150W        W48950   4.695   2.726   8.393 -0.1346  0.2061 -0.1099
40151W        W48951  16.704   0.279   8.827 -0.2371  0.3276 -0.1371
40152W        W48952   6.126   1.109  25.181  0.1861  0.0467  0.0862
40153W        W48953  12.592   5.732   2.809 -0.0165  0.0273 -0.0316
40154W        W48954  22.959   0.864   5.028 -0.1505  0.2402  0.0625
40155W        W48955  19.095   4.225   0.877 -0.1465  0.1456 -0.0763
40156W        W48956   0.631   4.776   3.818 -0.1296 -0.0233  0.1567
40157W        W48957   0.542   0.051   7.887 -0.0425 -0.2706  0.0294
40158W        W48958  12.515   6.384  27.532  0.1380 -0.0723 -0.1624
40159W        W48959  19.210   1.484  31.976 -0.1350  0.0262  0.0135
40160W        W48960  18.534   3.534  26.027 -0.3475 -0.1641  0.4260
40161W        W48961  16.520   5.959   4.248  0.0129 -0.2331  0.6035
40162W        W48962  22.203   4.589   7.629 -0.2024  0.1235 -0.3991
40163W        W48963  14.116   0.747   9.797  0.3697 -0.0240 -0.0290
40164W        W48964   8.835   5.961   1.029 -0.2893 -0.1618  0.1571
40165W        W48965   7.861   1.832   0.839  0.3579  0.1191 -0.3263
40166W        W48966   9.578   3.642  15.171  0.2564 -0.3238 -0.2018
40167W        W48967   3.569   2.184   1.535  0.0555 -0.0975 -0.2069
40168W        W48968  13.176   3.561  31.749 -0.1075  0.0803  0.0233
40169W        W48969   7.753   3.850  34.782 -0.0501  0.0639  0.0690
40170W        W48970   6.925   6.412  26.679  0.0924 -0.1213 -0.0155
40171W        W48971  12.934   3.337   9.557  0.0450  0.0769 -0.2677
40172W        W48972   9.774   1.283  10.593 -0.1000 -0.0694 -0.3200
40173W        W48973  21.545   1.004  21.682 -0.2829  0.0067  0.1754
40174W        W48974  10.965   2.958  24.040  0.0628 -0.2039  0.1239
40175W        W48975  22.852   0.912  11.144 -0.2270 -0.2387  0.0820
40176W        W48976  25.880   2.816  26.655 -0.1100  0.0516 -0.0375
40177W        W48977  18.650   5.335   9.559  0.0333 -0.0149 -0.2849
40178W        W48978  12.020   1.807   6.922  0.0887 -0.0924 -0.2101
40179W        W48979  10.046   3.187   8.511 -0.0538 -0.3594 -0.3175
40180W        W48980   0.953   2.234   0.987  0.0423  0.0185  0.0660
40181W        W48981   3.833   1.409  14.289 -0.0398  0.0622 -0.0060
40182W        W48982  15.697   6.286   7.413  0.1147  0.2384 -0.1612
40183W        W48983  10.141   5.181  23.794  0.1654 -0.3926  0.0485
40184W        W48984   5.868   2.195   8.742  0.0316 -0.0014  0.1725
40185W        W48985  25.561   4.537   1.838  0.1887  0.0248 -0.2671
40186W        W48986  14.417   6.306  12.913 -0.0803 -0.0836 -0.0052
40187W        W48987   5.056   5.581   9.538  0.3467  0.0395  0.1622
40188W        W48988  17.178   2.882  10.804 -0.0158  0.2521 -0.0109
40189W        W48989  19.705   2.760  29.548  0.0501  0.2255 -0.2497
40190W        W48990   7.035   3.769   6.246  0.0000 -0.1336 -0.3024
40191W        W48991   2.900   5.858  11.296 -0.0778 -0.1532  0.2382
40192W        W48992  15.452   2.241   1.177 -0.0151 -0.3782 -0.1757
40193W        W48993  12.511   5.715  14.543 -0.2400 -0.2578 -0.1261
40194W        W48994   9.591   0.259  22.152  0.2828 -0.3791 -0.2581
40195W        W48995   7.205   2.096  15.244 -0.0388 -0.0182 -0.0771
40196W        W48996  23.301   0.374   3.029  0.1427  0.1322  0.0348
40197W        W48997  24.165   5.319  35.709  0.0875  0.1449 -0.0175
40198W        W48998  18.439   2.282  25.779 -0.2359 -0.2752 -0.0424
40199W        W48999  13.831   0.489  29.143  0.0646  0.0688  0.0303
40200W        W49000  22.977   6.269  24.063 -0.0471 -0.1902 -0.1507
40201W        W49001  11.879   5.741   0.210  0.3114 -0.0399  0.0124
40202W        W49002  17.190   6.522  13.741 -0.3368 -0.2341  0.1972
40203W        W49003  22.498   2.028   2.355 -0.0875 -0.0771  0.2369
40204W        W49004   2.808   0.110  29.908 -0.1602  0.1668 -0.0568
40205W        W49005  22.814   1.100   4.487 -0.1713 -0.1555 -0.0071
40206W        W49006   9.061   2.982  21.370  0.0701 -0.3615 -0.0284
40207W        W49007  11.405   5.377   5.794 -0.0272 -0.2127  0.0736
40208W        W49008   9.331   4.639  12.074 -0.1513  0.3431  0.0434
40209W        W49009   8.550   2.831  33.386  0.1913 -0.3556  0.2238
40210W        W49010  15.956   6.388   4.882  0.2351 -0.3753 -0.2139
40211W        W49011  15.867   5.410  12.216  0.1927 -0.0536  0.0395
40212W        W49012  24.985   6.487   1.302 -0.0417 -0.0554  0.3359
40213W        W49013   4.020   5.663  31.777 -0.0806  0.0954 -0.0093
40214W        W49014  19.617   4.426  27.579 -0.1581 -0.0194  0.2546
40215W        W49015  21.096   4.006  13.547 -0.0461  0.2279  0.0920
40216W        W49016   0.661   5.062  25.759  0.1478 -0.0175 -0.0011
40217W        W49017   7.887   4.417   3.996 -0.1134  0.1455 -0.0335
40218W        W49018  23.348   6.572   0.134  0.1560 -0.1354 -0.0542
40219W        W49019  18.748   5.143  33.700 -0.1797  0.2259  0.3910
40220W        W49020  25.737   1.539   7.081 -0.4883  0.1855  0.0322
40221W        W49021  23.508   3.443  26.027  0.0250 -0.1740  0.0071
40222W        W49022   7.070   2.464  24.647 -0.0760  0.0722 -0.1096
40223W        W49023  16.466   1.364   7.764 -0.0500  0.0435 -0.0715
40224W        W49024   1.732   4.926  22.416 -0.3265  0.1306  0.2362
40225W        W49025   2.482   3.978   9.797 -0.1493 -0.0803 -0.2048
40226W        W49026   2.046   4.678   4.295  0.0866 -0.3316  0.0090
40227W        W49027   5.403   0.841   5.005 -0.2650 -0.1078 -0.1400
40228W        W49028  12.304   3.142  33.088  0.4515 -0.0404  0.0125
40229W        W49029   1.968   5.286  35.741  0.1653  0.0307  0.1866
40230W        W49030  17.906   2.011   8.542 -0.1919 -0.0454  0.0565
40231W        W49031   1.257   6.079  22.309  0.0305  0.2629 -0.2181
40232W        W49032  17.202   5.850   4.232 -0.1151 -0.1234  0.1626
40233W        W49033  25.421   5.943   3.312 -0.0184 -0.3095 -0.0532
40234W        W49034   4.269   2.254   7.548 -0.3313  0.2950  0.2194
40235W        W49035   6.520   5.840   3.643 -0.0018  0.0055  0.1973
40236W        W49036  19.767   1.132  34.178 -0.0204 -0.3169  0.0121
40237W        W49037  21.953   4.454  15.018 -0.1431 -0.0273  0.4703
40238W        W49038   7.044   2.522   3.489 -0.0194 -0.0592  0.1051
40239W        W49039  24.356   2.620  12.193  0.0994  0.1825  0.0598
40240W        W49040  14.730   1.863  31.118 -0.0148  0.1658  0.1465
40241W        W49041  21.780   1.297  20.774 -0.0848  0.1360 -0.2394
40242W        W49042  17.320   4.547   7.234 -0.1903  0.0045  0.0022
40243W        W49043   7.304   5.249  35.634  0.1152  0.1058 -0.0890
40244W        W49044   1.104   1.061  30.908 -0.0637 -0.1408 -0.0515
40245W        W49045  11.317   3.072  29.032 -0.0031  0.0644 -0.0103
40246W        W49046   6.911   6.161  25.131 -0.2067  0.1453 -0.1022
40247W        W49047  20.469   0.465  21.279 -0.0004 -0.1861 -0.1693
40248W        W49048   9.342   4.000   0.485 -0.0513  0.1483  0.1152
40249W        W49049   1.680   6.509  12.494  0.0180 -0.1439  0.2436
40250W        W49050  20.656   1.495  34.446 -0.2052 -0.0654  0.1149
40251W        W49051  11.234   3.724  23.527  0.1927  0.0947  0.2855
40252W        W49052   3.928   6.544  30.664 -0.1160  0.0324 -0.0281
40253W        W49053   8.088   6.124  15.787 -0.0206  0.0964  0.1675
40254W        W49054  17.690   2.295  31.235 -0.0465 -0.0814 -0.0096
40255W        W49055  22.026   0.900   7.651 -0.0399  0.0347 -0.4495
40256W        W49056  14.024   3.318   8.914 -0.1450  0.0326 -0.1402
40257W        W49057  16.744   3.933  24.283 -0.2151  0.2725  0.1018
40258W        W49058  14.506   4.729  28.694 -0.0185  0.3280  0.2711
40259W        W49059  19.636   0.871   3.941 -0.2113 -0.1188 -0.2883
40260W        W49060  21.006   3.928   7.702 -0.1368  0.1064 -0.0883
40261W        W49061   0.899   4.866  27.806 -0.0667  0.2607 -0.2683
40262W        W49062   5.032   3.303  20.862 -0.1584  0.0837 -0.0513
40263W        W49063   9.821   0.774  22.019  0.0748  0.2232  0.1364
40264W        W49064  10.830   3.375   6.839 -0.1859 -0.1545 -0.1032
40265W        W49065   7.864   0.120   3.976  0.2030 -0.1300  0.0209
40266W        W49066   2.890   6.470  22.728  0.2567  0.0453  0.1993
40267W        W49067  23.707   4.535   5.563 -0.1525  0.0509 -0.0140
40268W        W49068  21.927   4.700  11.377 -0.0514 -0.2987 -0.2694
40269W        W49069  11.310   3.812  13.348 -0.0744  0.1241 -0.1550
40270W        W49070   0.613   3.387  24.082  0.2259  0.2177 -0.2447
40271W        W49071   4.667   5.564  29.063  0.3169 -0.0171 -0.0114
40272W        W49072  21.951   4.500  28.153  0.0841  0.2491 -0.2483
40273W        W49073  11.898   4.863   9.741 -0.1837  0.0403 -0.0669
40274W        W49074  10.874   1.604  30.685  0.1533 -0.0673 -0.3795
40275W        W49075  16.680   4.812  34.528  0.2972  0.0092 -0.1710
40276W        W49076  21.542   3.551  28.480 -0.0656 -0.1452  0.0264
40277W        W49077   1.864   3.006  15.526 -0.1412 -0.3446 -0.0783
40278W        W49078  19.034   4.911  13.191 -0.3020 -0.0104 -0.4435
40279W        W49079  26.339   0.746  34.656 -0.2752  0.0266  0.0602
40280W        W49080   0.205   5.260  30.788  0.3562 -0.1146  0.0004
40281W        W49081  17.652   3.353  12.765  0.2342  0.0302 -0.0782
40282W        W49082  21.210   0.155   7.039 -0.2369  0.0895 -0.0961
40283W        W49083  14.849   3.768  10.444 -0.0221  0.0763 -0.3823
40284W        W49084   2.641   2.412   5.448 -0.0912 -0.0572  0.0054
40285W        W49085   4.434   5.297  25.734 -0.5198  0.1340  0.0189
40286W        W49086  10.810   0.108   5.895  0.1604 -0.0387 -0.2182
40287W        W49087   1.224   0.178   7.142  0.2653  0.1276  0.3478
40288W        W49088  14.545   5.753  23.460 -0.2103  0.2681 -0.2508
40289W        W49089   4.794   1.474  21.035 -0.2527  0.0874 -0.2458
40290W        W49090  11.260   3.874  25.826  0.0917 -0.0779  0.1385
40291W        W49091   1.723   0.674  21.013  0.3393  0.0318 -0.0975
40292W        W49092  13.182   4.609  34.709  0.1651 -0.2285  0.1962
40293W        W49093  11.502   2.317  20.912  0.0542  0.0921  0.1283
40294W        W49094  17.531   1.801  33.572  0.0928 -0.1600  0.1302
40295W        W49095  24.299   4.586  32.541  0.0697 -0.0772 -0.1182
40296W        W49096   1.646   0.164  26.650  0.1798  0.1877  0.0964
40297W        W49097  19.280   1.785  32.377 -0.0398 -0.1824  0.0939
40298W        W49098  22.411   2.687   3.709 -0.0544 -0.1278 -0.2386
40299W        W49099   5.233   1.691  28.739  0.1204  0.0267  0.1545
40300W        W49100   4.551   6.366  32.834 -0.0758 -0.1696 -0.1135
40301W        W49101   2.258   3.738  35.236  0.1140  0.0276  0.2762
40302W        W49102   4.418   1.922   9.849 -0.0515 -0.0668 -0.0332
40303W        W49103  20.405   3.972  26.049  0.0315  0.2462 -0.0716
40304W        W49104  16.544   5.245  12.636  0.0183 -0.2641 -0.0293
40305W        W49105   1.863   2.459   2.244  0.1764 -0.1025  0.0078
40306W        W49106  20.118   4.035  36.121 -0.2957  0.1269 -0.2566
40307W        W49107  19.085   5.104  10.817 -0.1357 -0.0550 -0.0102
40308W        W49108  13.847   4.442  22.312  0.1619 -0.1597 -0.0718
40309W        W49109  13.931   5.575  32.352  0.0175  0.1168  0.3398
40310W        W49110   0.565   0.217   2.117  0.0217 -0.1628 -0.1826
40311W        W49111  25.075   2.613  26.709 -0.1327 -0.2075 -0.3076
40312W        W49112   7.153   2.488  32.451 -0.0789  0.0716  0.4382
40313W        W49113   8.199   0.106  33.643 -0.1329 -0.1999 -0.3110
40314W        W49114  15.109   0.073  33.877 -0.0536 -0.3056 -0.0137
40315W        W49115  11.182   0.230   5.654  0.1238  0.1487  0.4722
40316W        W49116   4.253   0.042  35.770  0.3050  0.2884 -0.1570
40317W        W49117  22.944   6.437   7.214 -0.1154 -0.3392  0.2089
40318W        W49118  17.845   5.157  21.607 -0.1995  0.1372 -0.0993
40319W        W49119   0.872   1.276   9.635  0.1377  0.0866 -0.0057
40320W        W49120  11.011   6.450   4.590  0.0576 -0.2738 -0.2001
40321W        W49121  14.452   5.563  14.025 -0.1626 -0.1901  0.1832
40322W        W49122   5.400   4.278   9.942  0.1220 -0.3164 -0.0609
40323W        W49123  24.476   2.616   4.969 -0.2326  0.2443 -0.1053
40324W        W49124   8.750   5.132  30.414 -0.0789  0.2469  0.1346
40325W        W49125  18.354   1.286  13.032  0.0052 -0.2914  0.2458
40326W        W49126  14.208   1.345  11.501  0.1507  0.2725  0.2357
40327W        W49127  23.541   6.606  14.901  0.1312 -0.1504  0.0045
40328W        W49128   3.559   0.325  34.672  0.1504 -0.1091 -0.0880
40329W        W49129  23.920   5.224  28.782  0.0848  0.1071 -0.1649
40330W        W49130   0.807   1.794  27.961 -0.1386  0.0996 -0.0375
40331W        W49131  21.123   5.804  21.233 -0.2540 -0.0787 -0.0417
40332W        W49132  10.748   0.238  28.382  0.0431 -0.1163 -0.0042
40333W        W49133   0.670   4.929  34.192  0.3105  0.1487  0.1094
40334W        W49134   7.170   4.276  23.418 -0.1980  0.1016  0.0340
40335W        W49135  10.553   4.316  29.654 -0.2608 -0.3496  0.3714
40336W        W49136  12.162   3.340   2.514  0.0734  0.1197  0.1291
40337W        W49137  17.246   3.596   5.587 -0.0762 -0.3084  0.1200
40338W        W49138  12.848   3.403   1.569 -0.2073 -0.2627  0.4029
40339W        W49139  12.902   4.957  22.503  0.0060  0.0982  0.1883
40340W        W49140  25.652   1.868  25.842 -0.0102  0.0902 -0.0151
40341W        W49141  18.851   1.136   7.800  0.1345 -0.3975  0.2205
40342W        W49142   9.304   5.590   4.942  0.1349 -0.2864 -0.1678
40343W        W49143  24.936   0.818   3.906  0.1219  0.1540 -0.0854
40344W        W49144   1.864   4.294   9.425 -0.0727 -0.2411  0.0014
40345W        W49145  10.822   4.839  14.217 -0.0727  0.2247  0.0154
40346W        W49146  11.213   0.085  14.121  0.0479 -0.3602 -0.1320
40347W        W49147   1.882   4.019  31.348  0.1054 -0.1617 -0.0022
40348W        W49148  21.257   5.656   6.652 -0.3931  0.0013 -0.1795
40349W        W49149  17.088   3.504  33.899 -0.0715 -0.0807 -0.0510
40350W        W49150   5.276   2.492  30.580  0.1827  0.2639  0.1947
40351W        W49151  25.518   2.195  22.925 -0.0272  0.1627  0.2046
40352W        W49152   0.758   0.815   4.804  0.0267 -0.2235 -0.3425
40353W        W49153   3.494   2.349  35.903  0.2296 -0.4062  0.3282
40354W        W49154  12.213   1.114   6.199 -0.2138 -0.2499  0.2731
40355W        W49155  16.067   4.473   7.453  0.0133  0.1425  0.2393
40356W        W49156  21.489   4.174   7.599 -0.2670  0.1741 -0.0298
40357W        W49157  20.254   4.970   0.277  0.1826 -0.2127  0.1311
40358W        W49158   4.824   2.633  35.007  0.1928  0.1837 -0.0537
40359W        W49159  25.372   3.221  35.092 -0.1600 -0.1487  0.1894
40360W        W49160  17.516   4.111  35.455 -0.1531  0.2258  0.1555
40361W        W49161  21.750   1.440  13.167 -0.1419  0.1724 -0.0722
40362W        W49162  16.989   4.431  31.571  0.0768  0.1201 -0.2863
40363W        W49163   6.844   3.644  24.261 -0.1927  0.0685  0.0049
40364W        W49164   9.983   4.261   3.433  0.2175  0.0086 -0.0224
40365W        W49165  24.861   3.266  21.665 -0.0906 -0.3866 -0.2116
40366W        W49166   1.999   3.483  21.940  0.4193 -0.0963  0.0074
40367W        W49167   4.119   0.877  33.906  0.0244  0.0694 -0.0760
40368W        W49168   2.141   3.773  30.671 -0.1816  0.0951  0.0437
40369W        W49169   2.190   3.383  24.742 -0.0275 -0.0052  0.4461
40370W        W49170  16.323   3.010  30.340  0.3443  0.0638 -0.0522
40371W        W49171  10.451   2.018  28.280 -0.1685 -0.2778  0.3268
40372W        W49172   7.497   0.589   1.185  0.2282 -0.0231  0.0799
40373W        W49173  19.377   6.575  20.014  0.2066  0.2208  0.4208
40374W        W49174  22.797   1.779  11.460  0.0547  0.1556 -0.1138
40375W        W49175   8.695   0.904  12.546  0.1510 -0.0556 -0.3184
40376W        W49176  25.605   5.165  24.645 -0.1083  0.1005 -0.2118
40377W        W49177  16.108   0.634  32.338  0.1528  0.0285 -0.0540
40378W        W49178   0.332   3.881  22.148 -0.1010  0.0977  0.3998
40379W        W49179   7.509   6.588  10.975  0.1691  0.0588 -0.1712
40380W        W49180  25.724   3.325  29.544  0.0599  0.1962  0.0138
40381W        W49181   4.310   5.540  32.701 -0.1701 -0.0357  0.0356
40382W        W49182  19.515   2.108   4.303  0.1367  0.0280  0.0052
40383W        W49183  21.097   0.144   1.700 -0.0544  0.2248 -0.0199
40384W        W49184  19.825   2.212  24.824 -0.4414  0.0568  0.1085
40385W        W49185  15.347   3.547  29.295 -0.2651  0.1601 -0.1003
40386W        W49186   2.170   3.168  30.587  0.2384 -0.2711 -0.0491
40387W        W49187   0.239   6.101   3.326 -0.2984 -0.1508  0.1538
40388W        W49188  10.547   0.724  35.023  0.0484 -0.0938 -0.2369
40389W        W49189  12.456   2.580  24.569  0.0166  0.0141 -0.1798
40390W        W49190   0.327   2.489  21.853  0.2541  0.0520 -0.1607
40391W        W49191  19.120   3.324   3.597 -0.3157  0.0330 -0.1944
40392W        W49192   3.042   3.229   0.037 -0.0740 -0.2254 -0.1062
40393W        W49193  10.963   0.711   1.213 -0.1701 -0.0404 -0.1352
40394W        W49194  25.983   0.585  12.392 -0.0212  0.1196  0.1143
40395W        W49195   5.298   4.150  24.335  0.1000 -0.2776  0.1067
40396W        W49196   2.334   0.452   8.516  0.2790  0.0538 -0.0044
40397W        W49197  21.699   1.131   2.666 -0.0801 -0.2247  0.1388
40398W        W49198   0.911   1.491  14.661  0.0215 -0.0366  0.1592
40399W        W49199  18.311   3.196  11.731 -0.2440  0.6321 -0.1847
40400W        W49200  13.789   5.259  36.186  0.4159 -0.1957 -0.0328
40401W        W49201  10.355   4.241  15.146 -0.1849 -0.0497 -0.2292
40402W        W49202   1.013   6.135  26.173  0.0616 -0.0009  0.2252
40403W        W49203   4.948   6.000  24.667  0.1340  0.1392  0.1630
40404W        W49204  17.751   6.284   4.906  0.0606 -0.2034 -0.0087
40405W        W49205  11.312   1.597  26.587  0.1074 -0.4112 -0.1758
40406W        W49206   3.920   0.383   4.252 -0.1060 -0.0475 -0.3692
40407W        W49207  15.968   2.008  26.879 -0.1505 -0.1550 -0.1408
40408W        W49208   4.010   5.391   8.818  0.1044 -0.0120 -0.0035
40409W        W49209  10.721   0.248  35.711  0.0391 -0.0477 -0.1257
40410W        W49210   4.647   4.114  27.704  0.0142  0.1739  0.1248
40411W        W49211   4.995   5.693   5.197 -0.0233  0.1635 -0.0805
40412W        W49212  21.223   2.102  29.418 -0.0250 -0.2937 -0.1820
40413W        W49213   0.727   4.413  28.019  0.1676  0.3606  0.0266
40414W        W49214   8.172   1.590  24.529 -0.1479  0.0520  0.2757
40415W        W49215   2.097   3.202   5.296 -0.0713  0.2411 -0.0050
40416W        W49216  25.516   4.459  25.102  0.1971  0.0776 -0.1707
40417W        W49217   0.847   5.692  35.328 -0.3609  0.0426  0.0575
40418W        W49218   0.367   4.185  33.411  0.1467 -0.1634 -0.3082
40419W        W49219  21.477   5.926   4.170  0.1691 -0.1285  0.0159
40420W        W49220   3.493   5.877  28.252 -0.1428  0.2126 -0.1203
40421W        W49221  11.228   5.492  30.292  0.4225 -0.0401 -0.1124
40422W        W49222  10.150   1.717  27.369 -0.0178  0.0860 -0.2041
40423W        W49223   0.225   2.418  31.609 -0.5509 -0.0437 -0.0732
40424W        W49224  17.957   5.869  27.389  0.1522 -0.2378  0.0660
40425W        W49225  25.279   5.788  21.067 -0.1054 -0.0255 -0.2594
40426W        W49226  13.822   3.412  22.561  0.0019 -0.1409 -0.1067
40427W        W49227  15.570   5.618  29.595  0.2080 -0.3715 -0.0731
40428W        W49228  15.890   1.425   9.339 -0.2432  0.0551 -0.2767
40429W        W49229  10.414   2.256   5.516  0.0989  0.0206 -0.1291
40430W        W49230  24.216   0.275  13.579 -0.1461 -0.1271 -0.5535
40431W        W49231  13.920   1.926  30.533 -0.0920  0.0557  0.2373
40432W        W49232   7.528   0.802  25.246  0.0066  0.2652 -0.2522
40433W        W49233   8.638   5.571  21.330  0.2791 -0.3642 -0.0572
40434W        W49234  11.677   5.797  27.032  0.0308 -0.1599  0.0999
40435W        W49235   3.543   0.455  34.046 -0.1264 -0.0445 -0.2079
40436W        W49236   1.021   1.745   3.321  0.2972  0.0314 -0.1069
40437W        W49237  20.704   1.479  27.634  0.2564 -0.1226 -0.0765
40438W        W49238   0.097   6.275  13.205 -0.0958 -0.0537  0.1448
40439W        W49239  22.682   2.841  28.395 -0.2824  0.0932 -0.1443
40440W        W49240  14.333   1.434  33.725  0.0756  0.1291 -0.0997
40441W        W49241  11.837   5.729  22.243 -0.1202 -0.1557  0.0978
40442W        W49242   4.718   5.224   5.463  0.1927 -0.1793 -0.3199
40443W        W49243  20.352   6.235  13.190 -0.1191  0.1449 -0.3223
40444W        W49244  20.977   1.373  23.789  0.0254 -0.1151 -0.0580
40445W        W49245  14.725   5.667  21.752  0.1429  0.2105 -0.0311
40446W        W49246  24.492   1.155  13.326  0.1972 -0.2010 -0.0211
40447W        W49247  24.148   1.815  31.335 -0.0467  0.4391  0.0718
40448W        W49248   4.116   1.011   6.967 -0.1061 -0.0431 -0.0561
40449W        W49249   9.951   6.433  21.715 -0.1014 -0.1334 -0.0181
40450W        W49250   6.510   3.934  22.733  0.0372 -0.1598 -0.0104
40451W        W49251  20.558   5.851  29.797  0.2018 -0.0801 -0.0461
40452W        W49252   7.999   3.161  14.999 -0.3385  0.1940  0.2018
40453W        W49253  14.384   0.752   4.675 -0.2167 -0.0142  0.0928
40454W        W49254  24.114   3.800  32.132  0.0481  0.2221 -0.1779
40455W        W49255   2.099   1.648   0.705  0.1171 -0.2992 -0.0355
40456W        W49256   8.467   3.457  33.401  0.0603 -0.1147 -0.1382
40457W        W49257  16.397   5.048  35.427 -0.1799  0.0238  0.1623
40458W        W49258  19.050   3.568   1.977 -0.0025  0.1102  0.0715
40459W        W49259  19.249   4.201  32.875 -0.1546  0.3142 -0.2274
40460W        W49260  20.439   1.281   8.905  0.1242  0.2063  0.0845
40461W        W49261  12.824   5.451   7.250  0.2829 -0.0038  0.1714
40462W        W49262  21.186   5.455  15.670 -0.0264 -0.1412 -0.0474
40463W        W49263   1.698   3.051   8.744  0.2975 -0.2222 -0.1122
40464W        W49264   4.002   2.839   5.443  0.2146 -0.0943  0.0245
40465W        W49265   8.266   0.907   8.651  0.1577  0.0242 -0.3854
40466W        W49266   4.977   1.240  34.786 -0.1001  0.1047 -0.1355
40467W        W49267  15.451   1.289  14.735  0.1693  0.1940  0.2759
40468W        W49268   2.400   6.345   9.109 -0.3090 -0.0605  0.1756
40469W        W49269   5.402   3.592   5.396 -0.0441  0.0863 -0.1336
40470W        W49270   0.180   5.842  35.018 -0.0438 -0.0593  0.2129
40471W        W49271   8.025   0.696   1.129 -0.0175 -0.2000  0.2400
40472W        W49272   6.596   3.103   3.840 -0.0936 -0.0532 -0.4449
40473W        W49273  17.237   3.922   4.633 -0.1882  0.3957  0.2414
40474W        W49274  11.245   1.023  30.121  0.0450 -0.0043  0.0167
40475W        W49275   3.137   5.830  11.805 -0.2660 -0.1111 -0.3297
40476W        W49276  16.940   5.234  21.783 -0.3078 -0.2705  0.0476
40477W        W49277  12.750   6.191   5.896 -0.0384  0.1861  0.0688
40478W        W49278  22.633   4.785   7.738 -0.0588  0.1588  0.2221
40479W        W49279   1.955   5.251  31.938 -0.3767 -0.0140 -0.1259
40480W        W49280   6.970   5.853  35.094  0.0868  0.2633  0.0412
40481W        W49281   1.768   3.583  34.073 -0.4236  0.0155 -0.0674
40482W        W49282  10.399   2.463  33.185  0.1791  0.0515 -0.1079
40483W        W49283  10.066   5.537  31.874  0.1675  0.2208  0.2656
40484W        W49284  12.471   2.993  22.018  0.1265 -0.0029 -0.3792
40485W        W49285   8.218   2.613  20.704  0.1410 -0.0773 -0.3277
40486W        W49286   5.818   6.323  33.473 -0.1335 -0.2015  0.2797
40487W        W49287  17.552   3.242   8.828  0.2700 -0.0225 -0.0271
40488W        W49288   9.559   0.057   0.563 -0.4066 -0.0274  0.1708
40489W        W49289  12.216   4.435   8.336  0.0143 -0.2315 -0.0410
40490W        W49290   9.386   5.398  32.825  0.0499 -0.1976 -0.0300
40491W        W49291   0.488   2.203  20.310 -0.0815 -0.0010 -0.2209
40492W        W49292  22.530   5.676  33.068  0.2964 -0.0310  0.0331
40493W        W49293   7.368   2.305  26.370  0.0247  0.1023 -0.0190
40494W        W49294  21.577   1.125   1.438  0.0228  0.1704  0.1441
40495W        W49295  15.169   3.446  11.926 -0.1388 -0.1746 -0.1406
40496W        W49296  23.935   0.721   2.115  0.1134 -0.0725  0.1655
40497W        W49297   2.365   5.133  24.177 -0.2180  0.0705 -0.2241
40498W        W49298  19.108   0.196  31.488 -0.3456 -0.0028  0.0658
40499W        W49299  18.637   3.569   9.500 -0.3284 -0.1102 -0.1868
40500W        W49300  25.027   2.209   5.523  0.0351 -0.1430 -0.1106
40501W        W49301  25.067   0.791  10.611  0.1120 -0.0191 -0.1516
40502W        W49302  18.431   4.133  26.916 -0.0107 -0.3245 -0.0970
40503W        W49303   1.248   3.603  33.357 -0.1703  0.0758 -0.1990
40504W        W49304  25.427   4.006  27.648 -0.0488  0.1448  0.0219
40505W        W49305   2.833   5.465  30.569 -0.0213 -0.3489  0.0046
40506W        W49306   8.952   3.190  33.383  0.0277  0.1471 -0.0572
40507W        W49307  11.529   3.709  14.599  0.1932 -0.1064 -0.4619
40508W        W49308  22.593   3.915  32.047 -0.1565  0.3440  0.0554
40509W        W49309  12.554   3.266  24.062 -0.0890 -0.0848 -0.3539
40510W        W49310  24.868   0.362  14.180 -0.2188 -0.2039 -0.1285
40511W        W49311  23.975   0.600  27.852 -0.0198 -0.2492 -0.0524
40512W        W49312  12.748   5.255  12.645 -0.0991 -0.0227  0.1589
40513W        W49313  13.470   1.671   8.745  0.0378 -0.2673  0.0934
40514W        W49314   8.479   2.661   2.816 -0.0052 -0.1239  0.2532
40515W        W49315   4.701   4.113   8.114  0.2446  0.0926 -0.2339
40516W        W49316  18.204   2.814   9.098  0.0478 -0.2305 -0.0217
40517W        W49317  14.277   1.775  25.013  0.0823  0.0225  0.2279
40518W        W49318  13.405   6.307  29.581  0.1709  0.3180  0.0908
40519W        W49319   6.461   0.396   9.692  0.1091  0.2637  0.0896
40520W        W49320   8.151   3.301  25.911  0.1608  0.2530  0.0405
40521W        W49321   7.113   2.371  31.435  0.3761  0.1976 -0.0159
40522W        W49322   7.116   3.769  22.379 -0.1125 -0.0290  0.3539
40523W        W49323  11.956   3.085   7.204 -0.0117  0.5453  0.0583
40524W        W49324  22.122   5.506   2.619 -0.0010 -0.0832 -0.1448
40525W        W49325   8.151   1.544   9.245  0.1020  0.0754  0.2791
40526W        W49326  25.102   5.383   2.295 -0.1857 -0.0767  0.2082
40527W        W49327   1.804   2.491  33.322 -0.0126 -0.2830  0.3225
40528W        W49328   8.327   2.305  15.825  0.1099 -0.2377 -0.0656
40529W        W49329  22.869   1.231   9.307  0.0507  0.3487  0.1178
40530W        W49330  22.437   4.511  30.974  0.2470  0.3891  0.0488
40531W        W49331  12.552   5.282  25.167 -0.1815  0.1701  0.0269
40532W        W49332  12.965   5.012  10.334 -0.0297 -0.0092 -0.3520
40533W        W49333   0.834   0.771  27.292 -0.1643 -0.0601 -0.0772
40534W        W49334   6.652   1.753   1.512  0.1615  0.2109  0.1654
40535W        W49335  21.870   0.735  13.767 -0.0435  0.1573  0.1986
40536W        W49336  25.238   5.598  23.162 -0.2072  0.0029  0.2028
40537W        W49337   4.769   5.451  24.719  0.1970  0.1948 -0.1597
40538W        W49338  14.228   0.650   9.240 -0.1691 -0.0610  0.0775
40539W        W49339  25.909   3.720   6.938  0.0613 -0.0286  0.0431
40540W        W49340   0.775   2.979   8.659  0.0943 -0.0032 -0.2041
40541W        W49341   9.967   1.735  28.339  0.1780  0.0566  0.1680
40542W        W49342  12.232   3.540  11.429  0.1163 -0.2771 -0.0281
40543W        W49343  24.666   0.191   1.562  0.1931 -0.0531 -0.0280
40544W        W49344  18.775   2.549  10.654  0.0925 -0.1369  0.4433
40545W        W49345  24.127   3.079   8.417 -0.0802  0.0992  0.0856
40546W        W49346  18.294   5.541  10.589 -0.1355  0.0515  0.3292
40547W        W49347  12.597   5.924  29.349  0.0994  0.2705 -0.1928
40548W        W49348   3.033   5.872  12.844 -0.2340 -0.1798 -0.0522
40549W        W49349   3.840   5.757  28.977  0.1666 -0.0064  0.1476
40550W        W49350   0.153   0.794  23.840 -0.1400 -0.0761  0.1480
40551W        W49351   0.657   6.171   4.617  0.0020 -0.1600 -0.0675
40552W        W49352  11.959   3.607   1.885  0.1714  0.0397 -0.0558
40553W        W49353   6.422   2.534  21.085  0.1311 -0.0321  0.0411
40554W        W49354   8.795   1.031  29.109  0.0509  0.2252 -0.0868
40555W        W49355  21.677   0.915   1.847  0.0344 -0.0091 -0.0827
40556W        W49356  17.507   5.886   0.314  0.0499  0.0372  0.4172
40557W        W49357  17.491   1.457   5.609  0.1748  0.2761 -0.1887
40558W        W49358  14.754   4.020  27.036 -0.1358  0.2170 -0.0207
40559W        W49359   7.099   5.530  34.710 -0.3617 -0.0992 -0.0620
40560W        W49360  23.614   0.203  12.841  0.1284  0.0378 -0.5590
40561W        W49361  23.126   6.097  13.847  0.0016 -0.0712  0.0126
40562W        W49362  13.738   2.441  11.990  0.0311 -0.0049  0.1650
40563W        W49363  16.414   0.925   0.964  0.0419 -0.0033 -0.0562
40564W        W49364  17.255   5.165  28.633 -0.0479  0.0399  0.0239
40565W        W49365  10.841   2.577  31.131 -0.3236  0.0252 -0.1534
40566W        W49366   6.571   4.181   0.702 -0.0425  0.0437 -0.0771
40567W        W49367  20.875   1.117  30.337 -0.2490  0.1349  0.0912
40568W        W49368  15.039   4.541  28.811  0.1177 -0.0542 -0.0388
40569W        W49369  18.085   0.539  27.261  0.0815 -0.0821 -0.2717
40570W        W49370  20.930   6.538   0.729 -0.1266  0.1368 -0.1775
40571W        W49371  14.035   3.567  10.089  0.0473  0.1293 -0.1638
40572W        W49372  23.121   2.577  11.960  0.2023  0.0428 -0.0152
40573W        W49373  15.561   1.502  31.443 -0.0876  0.1659  0.3932
40574W        W49374  26.055   3.424  28.163 -0.0455  0.4337 -0.0157
40575W        W49375  11.458   2.641  27.513 -0.0343 -0.0099 -0.1041
40576W        W49376  14.671   4.165   1.258 -0.1562  0.1238  0.4344
40577W        W49377  14.139   4.060   5.073 -0.0037  0.0810  0.1267
40578W        W49378  13.609   5.246   1.977  0.1683 -0.4261 -0.0307
40579W        W49379   6.804   4.512  28.970 -0.0178  0.1083 -0.2987
40580W        W49380  16.265   4.511   1.909  0.1499  0.3161  0.1548
40581W        W49381  23.835   6.074  12.643 -0.2065  0.0892 -0.0312
40582W        W49382  25.504   0.633   3.921  0.1618 -0.1630 -0.2469
40583W        W49383  10.945   6.079   9.175  0.2159 -0.0049 -0.0250
40584W        W49384  25.012   2.076  19.453  0.0685 -0.1936 -0.0680
40585W        W49385  16.972   4.554  32.066  0.1813  0.2046  0.2501
40586W        W49386   7.202   4.906   0.345 -0.1359  0.2346  0.0695
40587W        W49387   5.525   1.677   6.963  0.0113 -0.3039  0.1864
40588W        W49388  22.520   4.229  21.576 -0.2554  0.3561 -0.0801
40589W        W49389  12.533   1.823   8.409 -0.1334 -0.0168  0.0450
40590W        W49390   6.396   2.026  24.960 -0.0338  0.0466  0.0764
40591W        W49391  25.759   4.938  28.498 -0.0313 -0.0698  0.1460
40592W        W49392   7.332   0.487   1.737  0.1907 -0.2145 -0.4204
40593W        W49393  15.880   5.694  25.378 -0.0245 -0.3317  0.0666
40594W        W49394   8.171   0.790  36.015 -0.2540  0.0494 -0.4591
40595W        W49395   4.060   6.572  33.985  0.0885 -0.0290  0.3932
40596W        W49396   0.396   3.076   3.422 -0.0248 -0.2954  0.3542
40597W        W49397   7.345   3.437  21.965  0.3682 -0.0717 -0.1392
40598W        W49398  17.452   5.934   7.361 -0.0427 -0.2708  0.1749
40599W        W49399   7.518   4.965  24.354 -0.0102 -0.3379 -0.1217
40600W        W49400   4.370   1.904  35.161 -0.0382 -0.0346  0.1159
40601W        W49401  17.733   1.328  32.277  0.1223 -0.3240  0.2158
40602W        W49402   3.748   6.113  32.083  0.2456  0.0223 -0.2103
40603W        W49403  18.335   5.922   6.213  0.1447 -0.1696  0.2218
40604W        W49404   6.025   1.346   5.319 -0.1351  0.3274  0.2057
40605W        W49405   1.530   3.661  25.107  0.0378  0.1619  0.2804
40606W        W49406   0.062   1.714  34.700  0.0613 -0.0433 -0.0447
40607W        W49407  20.796   4.883   9.644  0.4016 -0.0967  0.2413
40608W        W49408  16.605   4.751   2.260  0.1555 -0.1926  0.1151
40609W        W49409   2.196   5.181  22.414 -0.0583  0.0867  0.1889
40610W        W49410   4.416   0.278  11.854  0.0140  0.1905 -0.1242
40611W        W49411  25.273   4.948   6.839  0.1666 -0.1236 -0.0718
40612W        W49412  17.751   6.493   9.531  0.1330 -0.0548  0.0319
40613W        W49413  24.158   4.809   6.282 -0.1829  0.0719 -0.1673
40614W        W49414  11.769   6.139  25.657 -0.0895 -0.2951 -0.2620
40615W        W49415  10.975   5.074  30.096 -0.2095 -0.3177 -0.0911
40616W        W49416   0.940   3.000  23.710 -0.0399 -0.1414 -0.1814
40617W        W49417  23.380   2.689  30.222 -0.2789 -0.1646  0.0768
40618W        W49418  10.533   1.157  25.054 -0.2915 -0.0368 -0.0289
40619W        W49419   7.187   3.260   1.024  0.0476  0.1242  0.2644
40620W        W49420  21.864   6.028   0.407 -0.0456  0.3769 -0.0010
40621W        W49421  21.820   1.108  29.369 -0.2986 -0.0447  0.3671
40622W        W49422  22.063   6.201  27.745 -0.3270 -0.0569 -0.2235
40623W        W49423   6.088   3.223   8.765 -0.1639  0.0933  0.2899
40624W        W49424  12.335   6.511  36.092  0.0504 -0.0631 -0.0107
40625W        W49425   8.930   0.889  25.499 -0.3105 -0.1828 -0.1734
40626W        W49426  17.185   5.178   5.155 -0.0072  0.2335 -0.1762
40627W        W49427   8.138   0.818  34.141 -0.3661 -0.0450  0.1053
40628W        W49428   3.973   5.799  32.949 -0.0905 -0.0018  0.0018
40629W        W49429   9.173   2.932  15.272 -0.1704  0.1578 -0.0360
40630W        W49430  14.681   5.328  31.546  0.1507  0.1895 -0.0585
40631W        W49431  21.957   4.588  22.216  0.1754  0.0247 -0.1782
40632W        W49432   1.594   1.918  26.537  0.1158  0.0354  0.3778
40633W        W49433   7.072   5.424   1.819  0.2719 -0.0382 -0.2514
40634W        W49434  19.521   4.925  28.272 -0.0297  0.0661  0.3188
40635W        W49435   7.176   2.204   2.913 -0.1922  0.4531  0.1372
40636W        W49436  17.553   5.122  11.503  0.0718  0.1103 -0.1264
40637W        W49437  13.948   5.711   5.335 -0.1118  0.1178 -0.0717
40638W        W49438   1.336   3.144   2.032  0.0405  0.1530  0.2306
40639W        W49439  19.386   3.066  31.955 -0.0232 -0.0854  0.3969
40640W        W49440  18.155   4.262  29.347 -0.1750  0.0541  0.1191
40641W        W49441  19.726   4.533  13.877 -0.1216  0.0760  0.1880
40642W        W49442  13.324   4.462  30.968  0.1785  0.0096 -0.3020
40643W        W49443   5.094   0.912  31.899  0.1615 -0.1617 -0.2449
40644W        W49444   7.727   0.050  27.647 -0.1016  0.1355  0.0361
40645W        W49445  18.121   1.851   9.113 -0.0190  0.0561 -0.2421
40646W        W49446  13.957   2.396  22.889  0.0421 -0.2775 -0.1375
40647W        W49447  11.196   1.716  21.653 -0.0713 -0.0416 -0.0907
40648W        W49448  13.384   1.936   8.221 -0.4927  0.1789 -0.1814
40649W        W49449  23.650   2.003  26.914  0.0171  0.2781 -0.1394
40650W        W49450   0.362   5.935  28.146  0.0703 -0.3862 -0.0027
40651W        W49451  18.419   2.345   5.610  0.1396  0.0247  0.2622
40652W        W49452  20.641   6.261  21.844  0.1231  0.1169  0.2520
40653W        W49453  18.028   3.655  31.375 -0.1710 -0.1190 -0.0528
40654W        W49454  19.697   5.777   8.533  0.1044  0.1565  0.0309
40655W        W49455  12.041   0.450  13.935 -0.0463 -0.0862 -0.0237
40656W        W49456  21.602   3.352   8.265  0.1700  0.1299 -0.1830
40657W        W49457  19.840   3.071   3.073 -0.0433  0.0592  0.0432
40658W        W49458  25.700   6.078  10.450  0.1784  0.0597 -0.1423
40659W        W49459   7.073   0.080  30.045  0.1112  0.1262  0.0391
40660W        W49460  24.250   5.663  34.154 -0.2070  0.0542  0.0179
40661W        W49461  25.713   0.996  21.219  0.3540 -0.0097 -0.2274
40662W        W49462   7.173   5.659  23.125 -0.5036  0.1657  0.2250
40663W        W49463  26.263   4.042  12.607  0.0188 -0.1105  0.2569
40664W        W49464   9.814   4.965  27.432 -0.0201  0.3186  0.0038
40665W        W49465  13.576   0.036  28.998 -0.1561 -0.0206  0.0329
40666W        W49466   4.921   1.030  21.124  0.3286  0.1338  0.2185
40667W        W49467  14.647   5.749   2.287 -0.1273  0.0278 -0.1640
40668W        W49468   2.790   2.115   5.844 -0.2545  0.0104 -0.2500
40669W        W49469   0.752   1.943  30.726  0.0291 -0.0213 -0.0537
40670W        W49470  19.031   4.898   0.775 -0.2106  0.1327  0.2947
40671W        W49471  23.188   1.835   4.307  0.0445 -0.0313 -0.1158
40672W        W49472  24.115   3.152  30.436 -0.0453 -0.0551 -0.1976
40673W        W49473  26.011   5.734   3.921 -0.0133 -0.1911 -0.0805
40674W        W49474  13.308   4.244   9.334  0.2208  0.1187  0.3017
40675W        W49475   6.483   6.483  29.667  0.1571  0.0323 -0.0655
40676W        W49476   4.355   5.551  27.497  0.0046  0.2507 -0.0859
40677W        W49477  23.247   2.839  35.734  0.0117 -0.0591  0.3217
40678W        W49478   0.381   1.665   6.317 -0.0504  0.0847 -0.1262
40679W        W49479   5.600   2.754  31.901  0.0711 -0.1570  0.1920
40680W        W49480   9.966   5.466  21.335 -0.0131 -0.1474  0.2637
40681W        W49481  17.605   5.078  34.725  0.2568  0.2783 -0.0780
40682W        W49482  22.634   6.228  27.014  0.0636 -0.2310 -0.0100
40683W        W49483   0.120   0.859  30.928  0.0421  0.1249  0.1968
40684W        W49484   7.282   3.086  29.603 -0.1289 -0.1404 -0.0771
40685W        W49485   9.447   2.997   6.923 -0.2323  0.0376 -0.0740
40686W        W49486   1.668   5.646   1.023 -0.1121  0.0271  0.0219
40687W        W49487   2.274   0.417  23.490  0.0038  0.3846 -0.0819
40688W        W49488  15.536   2.038   9.852 -0.1670 -0.3484 -0.1463
40689W        W49489  18.992   4.142  28.356  0.2322 -0.1683  0.3273
40690W        W49490  15.354   1.610   9.982 -0.1050  0.2395  0.0264
40691W        W49491   5.460   4.601   7.740  0.1588 -0.2787  0.2970
40692W        W49492  25.892   6.413   8.620  0.0833 -0.1427 -0.1246
40693W        W49493   2.183   6.440  10.677 -0.1871  0.2455  0.3020
40694W        W49494  12.481   6.188  10.371  0.1156 -0.0296 -0.0041
40695W        W49495   0.240   4.825  30.612 -0.3394 -0.3116 -0.0012
40696W        W49496   8.513   1.463  21.165  0.0634 -0.0433  0.2325
40697W        W49497  20.426   4.744  21.332 -0.1963  0.1884 -0.1968
40698W        W49498  26.347   1.571  28.038  0.0888  0.3457 -0.1278
40699W        W49499   3.823   3.939  12.274 -0.0851  0.0901  0.1078
40700W        W49500   9.587   2.556   0.332 -0.1672 -0.0417  0.0665
40701W        W49501  18.001   1.418  12.703  0.1090  0.0616 -0.2586
40702W        W49502  11.680   4.040  32.971  0.0109 -0.0542 -0.0155
40703W        W49503  14.186   2.166  15.639  0.2288 -0.1134 -0.0758
40704W        W49504   1.221   5.673  31.638  0.2484  0.2019  0.3458
40705W        W49505  24.683   2.259  33.576 -0.0711 -0.0578 -0.3221
40706W        W49506  20.634   3.946  25.169  0.0499 -0.1212 -0.1250
40707W        W49507  22.710   4.868  32.817  0.0671  0.1464 -0.0545
40708W        W49508   9.147   2.250   4.349  0.0901  0.0529  0.0893
40709W        W49509   7.969   1.906  32.213 -0.4743 -0.2010  0.3196
40710W        W49510  18.854   2.089  28.190 -0.3009  0.1849  0.1372
40711W        W49511  16.152   2.152  11.045  0.0429 -0.1616 -0.2379
40712W        W49512  23.537   4.716   7.421 -0.1403 -0.1375  0.1935
40713W        W49513  12.150   5.046   4.888  0.0285  0.3426 -0.0578
40714W        W49514   4.904   4.344   4.097  0.1555  0.0304 -0.1671
40715W        W49515  25.312   3.297  33.289  0.2527 -0.5164  0.1294
40716W        W49516   2.806   5.088  33.050  0.0744  0.1525  0.2127
40717W        W49517   0.480   5.219   4.049  0.0898 -0.2021 -0.1790
40718W        W49518  10.083   1.195  27.542 -0.3666 -0.0414 -0.0753
40719W        W49519   3.420   1.176   6.204  0.0568 -0.2017 -0.0477
40720W        W49520  13.112   4.585  33.335  0.3733 -0.3168  0.3799
40721W        W49521  10.994   6.366  22.163  0.1450 -0.0942  0.0688
40722W        W49522   9.414   5.598   9.540  0.2753  0.0224 -0.0687
40723W        W49523  13.407   5.592   7.306 -0.2538 -0.1524  0.2389
40724W        W49524  18.594   2.232  34.842  0.0866 -0.0797  0.1461
40725W        W49525  25.673   3.865  10.869 -0.1084 -0.1140 -0.0264
40726W        W49526  22.945   4.220  23.835  0.1862  0.0294 -0.1440
40727W        W49527   0.048   4.261   3.624  0.1604 -0.1443 -0.0133
40728W        W49528   7.115   5.079  28.182 -0.0674  0.1035 -0.1593
40729W        W49529   7.124   1.301   2.604 -0.1108  0.0226  0.0758
40730W        W49530  12.606   0.826  12.313 -0.0163  0.1052 -0.0830
40731W        W49531   7.851   0.321  33.322 -0.0152  0.0187  0.0244
40732W        W49532  26.296   3.482   8.741  0.1717 -0.0158 -0.1705
40733W        W49533  10.482   1.109  35.423 -0.0851  0.0886 -0.0819
40734W        W49534  23.409   3.928  14.573 -0.2343  0.1094  0.0625
40735W        W49535  13.690   5.722  30.719  0.1377  0.1707  0.1767
40736W        W49536  14.489   5.047  27.675  0.2237 -0.0204 -0.0882
40737W        W49537  19.071   3.427  35.258  0.3585  0.3617  0.1910
40738W        W49538  25.786   4.673   6.762  0.2597 -0.1759 -0.2435
40739W        W49539  25.902   1.394  20.953 -0.1042 -0.1955  0.0069
40740W        W49540   1.448   6.179   0.292  0.2023 -0.0353  0.4196
40741W        W49541   7.396   1.967  27.660 -0.0603 -0.4383  0.1584
40742W        W49542   8.156   0.477  28.849  0.2976 -0.2078 -0.1530
40743W        W49543  17.279   2.424   3.982  0.0638  0.1639  0.2168
40744W        W49544  14.225   4.132  24.810  0.1337 -0.2134 -0.1626
40745W        W49545  11.419   3.191   8.973  0.2258 -0.0909  0.0957
40746W        W49546  12.660   0.927  11.778  0.3635  0.0020  0.1867
40747W        W49547  11.034   5.030  15.240 -0.0130  0.2057 -0.1058
40748W        W49548  17.649   3.940  30.068 -0.2295 -0.3524  0.1378
40749W        W49549   6.123   3.686   7.343 -0.0959 -0.0585 -0.0260
40750W        W49550   7.740   0.295  30.769 -0.1339  0.1318 -0.2463
40751W        W49551  16.407   3.088  30.896 -0.2223  0.2096 -0.1105
40752W        W49552  10.632   0.519  32.383 -0.0115 -0.0735 -0.0852
40753W        W49553   5.805   5.984   4.936  0.1302 -0.0017 -0.0330
40754W        W49554  22.569   4.457  15.097  0.0419 -0.0617 -0.0929
40755W        W49555  22.161   1.164   5.963 -0.1721 -0.1159  0.1103
40756W        W49556   0.514   2.154   0.180 -0.0488  0.0811 -0.3438
40757W        W49557  25.111   4.735  20.399  0.1541  0.3079  0.1486
40758W        W49558  16.653   3.270  15.064  0.1478 -0.0352  0.0818
40759W        W49559  25.959   0.651  13.631  0.3758  0.3119 -0.0080
40760W        W49560  13.593   1.019   0.850  0.0361 -0.0748  0.0393
40761W        W49561  11.385   4.820  11.075 -0.0392  0.0326  0.2584
40762W        W49562  24.154   3.603  24.629  0.1868  0.1241 -0.1267
40763W        W49563   0.367   1.122  22.635  0.1573  0.0906  0.0663
40764W        W49564  24.484   3.946   8.746  0.0917  0.0222 -0.1367
40765W        W49565  23.546   3.126  32.600 -0.2274 -0.1596  0.1960
40766W        W49566  20.731   4.688  28.273  0.2682 -0.0492 -0.0057
40767W        W49567  11.804   1.716  30.639  0.1454 -0.1442  0.0744
40768W        W49568  21.136   0.304   8.247  0.1270  0.1193 -0.0816
40769W        W49569  24.293   1.222  31.912  0.0119  0.1045  0.0050
40770W        W49570  16.439   0.223  13.844  0.1756 -0.1929  0.2105
40771W        W49571   8.371   5.222   6.563 -0.0855 -0.0433  0.1364
40772W        W49572  21.486   3.934  27.020 -0.0288 -0.0657 -0.1748
40773W        W49573   2.351   3.378   1.468 -0.0195 -0.0158  0.3211
40774W        W49574   5.618   0.939  15.030 -0.1592  0.0847 -0.1142
40775W        W49575  24.506   0.183  11.294 -0.0631 -0.3981  0.0566
40776W        W49576   9.260   5.461  12.814 -0.0520  0.0849  0.2418
40777W        W49577  10.258   0.031  21.409 -0.2312  0.1177  0.0847
40778W        W49578   6.171   5.296  21.860 -0.2428  0.0653  0.1047
40779W        W49579  15.394   0.530  25.230  0.1472 -0.0375 -0.0490
40780W        W49580   5.339   1.991   2.084  0.1350 -0.1678  0.2201
40781W        W49581   0.910   1.370  24.275  0.1776 -0.1026 -0.1413
40782W        W49582  25.944   2.512   9.036  0.2989  0.0793 -0.0673
40783W        W49583  10.068   0.462   0.758  0.3296 -0.3126 -0.1182
40784W        W49584   0.610   2.143  31.421  0.1922  0.1290 -0.0092
40785W        W49585  19.738   1.788  14.222 -0.1732 -0.0826  0.0159
40786W        W49586   2.720   6.028  21.303  0.0150 -0.1448 -0.2444
40787W        W49587   5.352   1.019   7.785 -0.0121 -0.0454 -0.1293
40788W        W49588  21.695   4.787  34.012  0.1142 -0.2130 -0.4202
40789W        W49589   6.521   3.596  33.530 -0.1291 -0.1088 -0.0565
40790W        W49590  10.589   1.846  34.162  0.2968  0.3057 -0.1895
40791W        W49591  14.167   0.272   5.578  0.0321 -0.2764  0.0755
40792W        W49592  12.706   4.476  23.946 -0.0182 -0.1284  0.0322
40793W        W49593  17.927   3.642  29.672  0.2108 -0.3524 -0.1115
40794W        W49594  23.986   4.048   7.189 -0.1506  0.1729 -0.0556
40795W        W49595  20.232   4.114  24.859  0.0572  0.2226 -0.3558
40796W        W49596  10.337   0.183  23.134  0.0005  0.3058  0.2764
40797W        W49597  11.739   3.836  20.990  0.0574 -0.0105  0.0085
40798W        W49598   1.342   1.275  26.598 -0.0931  0.1088  0.1355
40799W        W49599   4.251   1.755  11.114  0.0839 -0.2780  0.1632
40800W        W49600   8.700   3.839   2.467 -0.0150  0.2191  0.0726
40801W        W49601  15.736   2.927  15.083 -0.2718 -0.0128 -0.1714
40802W        W49602  20.893   0.605   1.532  0.0511  0.0618  0.0623
40803W        W49603  23.224   3.646  32.550 -0.2229  0.1561 -0.4123
40804W        W49604   5.035   2.613  32.606 -0.0130 -0.1779 -0.3971
40805W        W49605  23.180   6.046   7.994  0.1466 -0.2007 -0.0580
40806W        W49606  25.589   6.234   4.368 -0.3390  0.0174 -0.2923
40807W        W49607   3.201   1.851   1.435 -0.2410  0.0155 -0.0932
40808W        W49608   9.370   2.982  22.747 -0.2086  0.0156 -0.3020
40809W        W49609   7.378   3.112   9.879 -0.2040  0.1520 -0.0648
40810W        W49610   5.940   0.353  36.086  0.0546 -0.2160  0.0886
40811W        W49611  23.774   2.262  33.697 -0.1784  0.0239  0.1995
40812W        W49612  13.857   4.074  11.525  0.1046 -0.1431  0.0840
40813W        W49613  12.369   1.379  15.681 -0.1478  0.0132 -0.2109
40814W        W49614  15.995   0.172   4.315 -0.0584  0.0065  0.1080
40815W        W49615  16.228   1.836   4.854 -0.0499  0.2106  0.2316
40816W        W49616   1.838   4.871  23.075  0.2122  0.1152  0.1715
40817W        W49617  20.422   4.944   8.254  0.0070  0.1356 -0.1178
40818W        W49618   4.605   6.185  13.851 -0.1355 -0.0819 -0.0193
40819W        W49619  24.282   0.425   4.566 -0.1835 -0.3146 -0.1351
40820W        W49620   5.118   1.613  25.267 -0.2275  0.1793 -0.0654
40821W        W49621  12.035   3.466  31.673  0.2932 -0.1729  0.0742
40822W        W49622   4.246   0.077   0.967 -0.0240  0.1056  0.0565
40823W        W49623  19.089   2.123   6.926  0.2915  0.0615  0.1246
40824W        W49624  19.368   2.248   6.493 -0.0835  0.1527  0.2565
40825W        W49625   7.698   2.909  24.002  0.0320  0.0272 -0.1413
40826W        W49626   5.285   1.784  27.359  0.1566  0.2609 -0.0353
40827W        W49627  15.644   3.761  13.128  0.1269 -0.2624  0.1281
40828W        W49628   6.393   3.136  26.902 -0.2200  0.1302  0.1162
40829W        W49629   8.053   3.283  13.151 -0.2759  0.1212  0.2353
40830W        W49630   8.749   0.072  29.910  0.1821 -0.0681 -0.0978
40831W        W49631  14.930   6.283  10.504  0.3954 -0.0324 -0.1882
40832W        W49632  12.901   3.715  11.645 -0.0644  0.1253 -0.0533
40833W        W49633  21.378   0.760  31.058  0.0262  0.0637  0.3001
40834W        W49634   9.119   1.528  33.075 -0.0181 -0.0104  0.0316
40835W        W49635  19.033   5.862   3.710  0.0180  0.3549 -0.1105
40836W        W49636  25.781   3.543  32.462  0.0172  0.1336 -0.3298
40837W        W49637  19.982   2.283  21.225  0.2381 -0.0954 -0.3589
40838W        W49638  17.774   3.405   0.999  0.2894  0.0583 -0.2479
40839W        W49639   2.414   0.675  22.131  0.0927  0.2932  0.1154
40840W        W49640  14.826   6.011  32.751 -0.1715 -0.1371  0.1365
40841W        W49641  17.850   0.949  29.691  0.1656  0.1825 -0.0423
40842W        W49642   9.733   2.555   1.109 -0.1497 -0.0498 -0.1962
40843W        W49643   3.377   3.720   4.754  0.1843  0.0464  0.3589
40844W        W49644  26.309   2.187   3.863 -0.1012 -0.1845  0.0773
40845W        W49645  20.516   1.285  25.172  0.1790 -0.0422  0.0478
40846W        W49646   4.019   5.711  22.700 -0.1214 -0.3279 -0.0094
40847W        W49647  14.480   1.395  10.504 -0.0032  0.1058 -0.3631
40848W        W49648   0.109   3.101   3.805  0.0700  0.0142  0.0418
40849W        W49649   3.292   4.234  28.336  0.1332  0.2136 -0.0464
40850W        W49650  10.687   4.000  14.037 -0.1245  0.0189  0.2183
40851W        W49651   5.630   2.459   8.323 -0.1888 -0.0035 -0.0827
40852W        W49652  21.999   5.102  31.442 -0.4220  0.2332 -0.0553
40853W        W49653   5.162   4.583   3.691 -0.1054  0.0793  0.0508
40854W        W49654  12.244   1.027   0.883 -0.0610  0.1096 -0.4045
40855W        W49655  25.690   1.811  33.456  0.4115 -0.0286 -0.3180
40856W        W49656  12.788   5.398  22.365 -0.0482 -0.0978 -0.0482
40857W        W49657  21.982   1.949  33.876  0.1891  0.1043  0.1917
40858W        W49658   4.634   2.556  12.070 -0.0301 -0.3344  0.1139
40859W        W49659  21.996   4.959  20.891 -0.1585  0.0908  0.0683
40860W        W49660   1.736   2.041   0.898  0.0345 -0.0483 -0.2338
40861W        W49661   5.605   3.484   7.328 -0.1439  0.1526 -0.0252
40862W        W49662   4.535   2.504  33.146  0.1038 -0.2656  0.0446
40863W        W49663  14.665   0.231  27.783  0.3636  0.2263 -0.0321
40864W        W49664   2.812   2.281   3.200  0.1764  0.2013  0.1711
40865W        W49665   1.465   1.484  25.592  0.0433 -0.2928 -0.0878
40866W        W49666  16.867   3.284  23.964 -0.0939  0.2372  0.1790
40867W        W49667  24.020   4.747   2.839  0.1269 -0.2318  0.0481
40868W        W49668  24.979   4.107  21.887  0.0270  0.2723 -0.0816
40869W        W49669  17.346   3.229  29.932 -0.2010 -0.1700 -0.1771
40870W        W49670  24.905   6.120  32.999 -0.0184 -0.1590 -0.1337
40871W        W49671  20.610   3.005  33.230  0.0488 -0.2756  0.2069
40872W        W49672   2.455   0.207  34.146  0.0952  0.0333 -0.0519
40873W        W49673  15.881   1.567  30.420 -0.2339 -0.4851  0.0770
40874W        W49674   8.468   2.377  15.004 -0.0093 -0.3067 -0.4932
40875W        W49675  12.390   3.948  26.042 -0.1185 -0.0319  0.4257
40876W        W49676  24.399   4.931   0.681  0.0901 -0.1813  0.1742
40877W        W49677   8.272   0.109  12.696  0.2756 -0.0769  0.0430
40878W        W49678  18.085   5.240  13.366 -0.2926 -0.2943  0.1551
40879W        W49679   7.422   0.004  22.076  0.2043 -0.1335 -0.3334
40880W        W49680   0.395   4.430  29.979  0.3606 -0.1403  0.5922
40881W        W49681  20.379   0.160  26.388  0.1620 -0.0363 -0.0816
40882W        W49682  25.849   3.927  28.718  0.0858  0.0040 -0.2080
40883W        W49683  12.510   0.712  32.277 -0.2050 -0.2252 -0.5507
40884W        W49684  20.020   0.618  27.808 -0.2281 -0.0521  0.0634
40885W        W49685  26.072   4.703  13.929  0.0078 -0.1618  0.2197
40886W        W49686  12.396   0.081   7.093  0.0740  0.0673  0.1059
40887W        W49687  23.182   5.276   4.953  0.0148 -0.1073 -0.4995
40888W        W49688  12.307   6.129  26.490 -0.2641  0.1518 -0.0103
40889W        W49689  22.926   6.586   2.549  0.0714  0.5305  0.1622
40890W        W49690  26.001   2.761  29.821  0.1091  0.0776 -0.3737
40891W        W49691  20.005   4.581   4.849 -0.2196 -0.1354  0.2182
40892W        W49692  16.771   0.368  26.405  0.1598 -0.0849 -0.1120
40893W        W49693   1.891   4.711  14.314 -0.1768 -0.0528 -0.1769
40894W        W49694  16.930   1.792  32.597 -0.1657  0.2017 -0.2604
40895W        W49695   3.223   6.380   5.797 -0.2348 -0.0136  0.2045
40896W        W49696  19.960   3.133   4.390 -0.1206  0.1663 -0.1964
40897W        W49697  11.317   5.793  33.378 -0.1563  0.0348  0.0149
40898W        W49698   1.363   6.453  10.065 -0.0294 -0.0973  0.0704
40899W        W49699  25.025   1.015  34.676 -0.0881 -0.1191  0.0207
40900W        W49700  20.518   0.582   6.673 -0.0589  0.0485  0.0307
40901W        W49701   3.630   0.255  29.496 -0.1263 -0.1576 -0.2360
40902W        W49702   2.722   4.453   3.001 -0.1463 -0.1038  0.0076
40903W        W49703  20.686   0.692  27.203  0.3240  0.2079  0.1161
40904W        W49704   9.422   2.661  31.112  0.1525  0.1497  0.2704
40905W        W49705  21.829   0.810  31.237  0.0336  0.1321 -0.1658
40906W        W49706  11.278   6.464  28.745 -0.5827 -0.0006  0.2734
40907W        W49707  11.483   0.448  21.666  0.1698  0.2125 -0.1699
40908W        W49708  20.524   0.665  13.448  0.0699 -0.2545  0.2339
40909W        W49709  23.193   2.750   3.158  0.0879  0.2517 -0.2234
40910W        W49710  15.751   0.086   0.888 -0.1003 -0.2741 -0.0660
40911W        W49711  18.704   1.048  11.982  0.3476 -0.1306 -0.0065
40912W        W49712  12.727   3.415   1.035  0.0388 -0.4544  0.0042
40913W        W49713   0.236   1.141   1.313 -0.1480 -0.2032 -0.1229
40914W        W49714  20.277   1.656  36.086  0.1331  0.0821  0.4483
40915W        W49715   6.005   6.267  35.131 -0.3490  0.2928  0.1115
40916W        W49716   5.788   1.065  35.364  0.0884 -0.2449  0.1245
40917W        W49717  14.432   4.513  15.620  0.0592 -0.2050  0.0680
40918W        W49718  15.274   6.460   9.615  0.0166 -0.0654 -0.3880
40919W        W49719  26.331   2.031  35.152  0.0924  0.2836 -0.0656
40920W        W49720  11.176   3.364  24.290 -0.0627  0.0728 -0.0519
40921W        W49721   6.024   4.825   5.402 -0.4341  0.0756  0.0432
40922W        W49722   8.394   4.925   3.110 -0.1420  0.0571  0.0662
40923W        W49723   9.683   0.424  35.159 -0.3154 -0.0540  0.0959
40924W        W49724  21.253   4.156  30.791  0.0868  0.0969 -0.2595
40925W        W49725   1.645   1.526  33.697 -0.2114  0.0084  0.1788
40926W        W49726  20.544   6.171  23.219  0.1609  0.0067  0.2246
40927W        W49727  13.549   0.469   5.959  0.1708  0.0265  0.0212
40928W        W49728   6.002   4.012  33.462  0.1299  0.2435  0.1044
40929W        W49729  16.513   1.552   1.750  0.1499 -0.2405  0.0941
40930W        W49730  20.249   0.698   8.974  0.2082 -0.1825  0.0817
40931W        W49731   5.449   3.494  27.771  0.2989  0.1342  0.2057
40932W        W49732  14.642   2.520  25.125 -0.4079  0.3894  0.1053
40933W        W49733  19.556   3.383  11.392  0.2480  0.1706  0.0658
40934W        W49734  13.934   1.430  30.497  0.2446 -0.0163 -0.0514
40935W        W49735  20.352   6.331  12.433  0.0955 -0.0620 -0.2791
40936W        W49736  13.244   6.125   1.688 -0.2446 -0.0283 -0.1374
40937W        W49737  22.873   3.973   1.254 -0.1982 -0.0478  0.0294
40938W        W49738  24.969   0.765  10.099 -0.1123 -0.0104  0.1414
40939W        W49739  22.860   2.838  25.074  0.1855 -0.1697 -0.3349
40940W        W49740  12.325   4.857  34.051  0.3980  0.0578  0.2039
40941W        W49741  18.829   2.548  33.920  0.0668  0.1797 -0.2097
40942W        W49742  19.020   4.141  23.976 -0.2012 -0.0436  0.0788
40943W        W49743   1.904   5.133   0.053  0.3488  0.3326 -0.1181
40944W        W49744  16.760   5.031  29.418  0.0693 -0.0250  0.0652
40945W        W49745  10.355   4.241  23.950  0.2608 -0.0346 -0.1211
40946W        W49746  17.093   3.478  26.224  0.3030  0.3790  0.0492
40947W        W49747  24.188   4.812  27.803 -0.0737 -0.3717 -0.1023
40948W        W49748   7.004   1.099  11.550  0.1227 -0.0481  0.0493
40949W        W49749  10.801   3.117  12.623  0.3750 -0.2611 -0.2835
40950W        W49750   4.944   2.936   1.778  0.0577  0.1825 -0.0771
40951W        W49751   5.044   5.551   2.132  0.0226 -0.0390 -0.2289
40952W        W49752   5.486   5.970   3.618 -0.3303  0.1212 -0.1627
40953W        W49753  15.732   2.931  27.373  0.3130 -0.2701  0.0799
40954W        W49754  24.373   3.479  32.523 -0.0018 -0.1780  0.0908
40955W        W49755   1.261   6.374   0.763 -0.0624 -0.0912  0.2228
40956W        W49756  12.613   6.238  34.563  0.2736  0.1750 -0.2764
40957W        W49757   8.870   0.774  31.127  0.3036  0.0137 -0.0307
40958W        W49758  25.946   2.160  32.151  0.0313 -0.1167  0.0569
40959W        W49759  25.976   5.062  31.500  0.2653  0.0796 -0.1587
40960W        W49760  24.558   5.280  13.707 -0.2450 -0.0560 -0.1638
40961W        W49761  13.199   5.341  23.390 -0.0939  0.2757 -0.0175
40962W        W49762  17.955   4.401   4.788  0.0991 -0.0786 -0.0356
40963W        W49763  22.695   1.536   1.878  0.2321  0.3397 -0.1374
40964W        W49764   2.416   3.344  33.216  0.2494  0.1781  0.0903
40965W        W49765  23.526   1.548  33.168  0.0497 -0.0362  0.0003
40966W        W49766  17.744   5.394   9.561 -0.0981  0.0706  0.2219
40967W        W49767   1.976   0.007  27.024 -0.4971  0.0527  0.0831
40968W        W49768   3.459   4.228  23.694 -0.3555  0.0783  0.0215
40969W        W49769   9.432   5.716   4.435  0.1243  0.0806  0.0440
40970W        W49770  12.093   3.200  24.800 -0.1229 -0.0013 -0.3157
40971W        W49771   7.141   4.146  10.335 -0.3035 -0.2212  0.0790
40972W        W49772   8.444   4.382  33.649  0.1280  0.3028 -0.2657
40973W        W49773   8.957   5.602  33.167  0.1196 -0.0761  0.0929
40974W        W49774  14.964   4.838  30.392 -0.1263 -0.0373  0.3043
40975W        W49775  21.214   3.898  32.269 -0.0521 -0.1492  0.0211
40976W        W49776   3.006   1.074  25.753 -0.1133  0.1552  0.0308
40977W        W49777  14.146   5.426  10.002  0.1397 -0.2470 -0.1222
40978W        W49778   7.225   6.008  13.725  0.0253 -0.2832  0.2481
40979W        W49779   8.700   2.711   0.736 -0.0542  0.0522  0.2097
40980W        W49780   9.100   1.055  32.919 -0.5939 -0.2693  0.0014
40981W        W49781   4.759   4.894  28.434 -0.1022  0.0122 -0.1232
40982W        W49782  25.863   5.603  33.807  0.2691 -0.1910 -0.0154
40983W        W49783  16.303   1.778  30.148  0.0135  0.0699 -0.0875
40984W        W49784  15.613   5.710   7.457 -0.0878 -0.0324 -0.0235
40985W        W49785  19.744   4.293   9.245  0.0698  0.1844  0.1864
40986W        W49786  25.035   3.752  27.423 -0.0247  0.0189  0.0205
40987W        W49787   5.488   5.673  22.208  0.0956  0.1810  0.3671
40988W        W49788  19.058   2.385  20.740 -0.2992  0.0424 -0.1736
40989W        W49789  15.981   0.447  21.558  0.1010 -0.1055 -0.1061
40990W        W49790  25.882   2.587  11.400 -0.0283  0.3877  0.1702
40991W        W49791  12.527   0.991   0.268 -0.1707  0.0026 -0.1012
40992W        W49792  25.291   4.320  26.321  0.0048  0.0931  0.1190
40993W        W49793  12.653   2.015   6.148  0.0754  0.3476 -0.1369
40994W        W49794   6.394   3.861  20.499 -0.0102  0.1313  0.2315
40995W        W49795  14.167   6.274   7.395 -0.2749  0.1119  0.1037
40996W        W49796  22.762   5.679  15.347 -0.0273  0.1070 -0.1095
40997W        W49797  19.378   3.558   7.716 -0.3301  0.0153  0.1312
40998W        W49798  13.694   0.318  34.295  0.0053 -0.1036  0.0904
40999W        W49799  19.822   3.042  23.174  0.0140 -0.0234  0.2097
41000W        W49800   0.545   2.570  29.667 -0.2331 -0.2602 -0.0424
41001W        W49801  24.167   0.616   3.320  0.2660  0.1820 -0.1441
41002W        W49802   0.730   2.141  23.464  0.3135 -0.2986  0.0390
41003W        W49803  18.774   1.207  26.084  0.1505 -0.3471  0.1153
41004W        W49804   1.800   1.447   5.497  0.1898 -0.2742 -0.1904
41005W        W49805  10.483   2.121  22.103  0.0901 -0.0474 -0.1372
41006W        W49806  18.747   6.254   7.098 -0.0746 -0.0487 -0.3046
41007W        W49807  11.400   2.310   5.865 -0.0312  0.0213 -0.2384
41008W        W49808   9.954   5.932  14.257 -0.0040  0.1450  0.0311
41009W        W49809  19.484   4.216   1.168 -0.3382  0.0299  0.0959
41010W        W49810  20.465   3.623   7.134 -0.0163 -0.0132  0.0842
41011W        W49811  13.272   5.207   5.803  0.4141  0.2323  0.0325
41012W        W49812  18.104   4.270  27.262 -0.0773  0.2471 -0.1693
41013W        W49813   1.339   6.342   7.344  0.0876  0.0285 -0.2890
41014W        W49814   2.231   0.042   4.228 -0.0513 -0.2761 -0.1103
41015W        W49815  19.156   5.039  14.466 -0.0864  0.0333 -0.0346
41016W        W49816  19.976   1.553   9.002  0.2262  0.1081 -0.1165
41017W        W49817  13.207   2.002  10.438  0.0854 -0.0500 -0.2201
41018W        W49818  18.671   5.916  25.542  0.0668 -0.1887  0.2058
41019W        W49819  18.147   6.535  28.726  0.3700 -0.1184 -0.2839
41020W        W49820  22.808   1.744  21.277  0.0427 -0.1090 -0.1110
41021W        W49821  21.636   6.204   7.811  0.1864  0.0175  0.2967
41022W        W49822   6.543   1.874  22.448  0.0093 -0.1138 -0.0164
41023W        W49823  23.064   3.118  12.146  0.1555 -0.0980 -0.0268
41024W        W49824  15.125   2.447  15.523 -0.1875  0.0249  0.0284
41025W        W49825   0.906   3.308  11.761  0.2183  0.1793 -0.0967
41026W        W49826  19.292   2.213  12.170 -0.0190  0.2933  0.1260
41027W        W49827  22.110   3.948  31.949 -0.2614 -0.2260  0.1404
41028W        W49828   1.849   5.569  20.819  0.1117 -0.0315  0.1452
41029W        W49829  15.221   5.873  11.628 -0.2745 -0.0511  0.1037
41030W        W49830   8.270   1.396   1.884  0.0546  0.1554  0.0345
41031W        W49831  22.466   3.357   1.879 -0.0910 -0.2732  0.2271
41032W        W49832   2.494   6.139   7.813 -0.0691  0.1342 -0.1755
41033W        W49833  15.814   5.345  15.270  0.1913  0.1582  0.4979
41034W        W49834   1.968   4.283  24.288  0.3954 -0.1930  0.0919
41035W        W49835  24.064   0.038  27.008 -0.0123  0.1150 -0.1714
41036W        W49836  26.069   2.123  10.915  0.1123  0.1149 -0.1892
41037W        W49837  12.740   3.040  27.293 -0.0830  0.0372  0.0498
41038W        W49838   4.156   0.587  27.376 -0.0571  0.2580  0.1076
41039W        W49839  23.944   6.589   0.877  0.0804 -0.0192  0.0619
41040W        W49840  12.685   2.372  25.786 -0.3624  0.1695  0.4673
41041W        W49841  12.099   1.120  21.438  0.0994 -0.3628 -0.0915
41042W        W49842  18.927   4.317  32.462  0.2445 -0.0191 -0.0002
41043W        W49843   8.487   4.617   5.235  0.0735  0.0462  0.4084
41044W        W49844   1.275   4.735  25.380  0.0094 -0.3389 -0.1360
41045W        W49845  17.013   5.327   7.077 -0.0366 -0.1088  0.1044
41046W        W49846  22.857   3.674  28.772 -0.1252  0.0716 -0.1479
41047W        W49847  14.081   2.396  21.980  0.1136  0.1074  0.0730
41048W        W49848   0.744   3.914  19.894 -0.0683 -0.1376 -0.0321
41049W        W49849   2.085   5.815  12.089  0.1102  0.1198  0.1142
41050W        W49850  17.553   0.155  12.221  0.0793 -0.0849 -0.0667
41051W        W49851  19.284   3.744  11.014 -0.0550 -0.0739  0.0809
41052W        W49852   3.780   5.215  22.630 -0.0498 -0.1379 -0.0566
41053W        W49853  11.627   3.268   2.025  0.2053  0.0975 -0.2925
41054W        W49854   8.278   1.254  28.939 -0.0156 -0.0894  0.0005
41055W        W49855  25.509   2.067   8.817 -0.2349 -0.1240  0.0502
41056W        W49856  16.062   3.177  25.539  0.2932  0.1318 -0.0901
41057W        W49857  14.256   2.202  22.494  0.0125 -0.1810  0.4488
41058W        W49858   9.548   3.342   0.717 -0.0820  0.0505  0.2371
41059W        W49859   5.801   0.506   6.619  0.0266 -0.0591  0.1221
41060W        W49860   0.227   3.157  12.442 -0.1042 -0.2602  0.1974
41061W        W49861  22.064   1.594  28.824  0.0595  0.0256  0.1320
41062W        W49862  16.104   3.762  14.160 -0.0176 -0.1477 -0.0741
41063W        W49863   0.179   2.302   7.126  0.2511  0.1273 -0.1729
41064W        W49864  20.808   2.739  14.053  0.0647 -0.1292 -0.1007
41065W        W49865  10.017   2.686   5.674 -0.2454  0.1375  0.0024
41066W        W49866  12.982   0.354  31.540  0.0598 -0.0807 -0.1378
41067W        W49867  23.363   2.979   4.231 -0.1383  0.0175  0.0967
41068W        W49868  13.630   3.883   9.209 -0.0117 -0.0265 -0.1827
41069W        W49869  23.935   4.867   0.864  0.0022  0.2305  0.0048
41070W        W49870  16.731   1.865  12.653 -0.1937  0.4929  0.2961
41071W        W49871  18.722   4.107  23.396 -0.0934 -0.1214  0.1761
41072W        W49872   2.686   2.683  31.263  0.1696  0.2424  0.1161
41073W        W49873  14.291   1.439  26.232  0.4256  0.0559 -0.5156
41074W        W49874  24.712   4.537  35.374 -0.1482  0.3171  0.2333
41075W        W49875  16.887   3.260  26.681 -0.2128  0.1072 -0.1111
41076W        W49876  21.345   2.438  27.057  0.2405  0.2063 -0.5266
41077W        W49877   7.689   1.790   3.484 -0.2388  0.2025 -0.1171
41078W        W49878  11.394   3.995   7.162 -0.1454 -0.2977 -0.0347
41079W        W49879  24.915   4.514   5.495  0.1026  0.2784 -0.2761
41080W        W49880  12.137   0.835  30.332 -0.1310 -0.2290 -0.0053
41081W        W49881   5.960   4.835  34.567  0.0692  0.1116  0.1032
41082W        W49882   5.942   2.762   4.331 -0.0574 -0.3720  0.1182
41083W        W49883  16.341   2.046   5.288 -0.0876 -0.2545  0.0779
41084W        W49884   4.403   3.246   6.030 -0.0060  0.1479  0.3430
41085W        W49885   8.747   4.723   9.428  0.0931  0.0323  0.1728
41086W        W49886  15.100   5.439  21.507 -0.1716 -0.2155 -0.0393
41087W        W49887  20.777   5.589   0.328  0.2084 -0.0853  0.2470
41088W        W49888  16.323   6.177  13.133 -0.3427  0.1910 -0.2276
41089W        W49889  15.858   1.768   5.301 -0.0175  0.2746  0.0271
41090W        W49890  24.467   6.224  12.556 -0.2421 -0.2196 -0.0484
41091W        W49891  25.649   6.328  28.760  0.1577 -0.1304  0.3434
41092W        W49892  10.923   3.961  28.701  0.0026  0.1794  0.1256
41093W        W49893  20.854   3.857  30.649  0.0987  0.0084 -0.0507
41094W        W49894  21.203   6.210  14.689  0.2312 -0.1222 -0.0766
41095W        W49895  16.575   5.247  11.198  0.0419  0.0634 -0.0088
41096W        W49896   3.614   2.106  21.702 -0.1693 -0.1483 -0.1120
41097W        W49897  25.014   2.282  12.689  0.1119 -0.0208 -0.0984
41098W        W49898   1.225   0.293  22.728  0.0045  0.0968 -0.1081
41099W        W49899  22.056   5.616  33.224  0.1194  0.2132  0.0564
41100W        W49900  20.556   1.435   1.641  0.3863  0.0160  0.1686
41101W        W49901  17.308   0.220   1.232 -0.0791  0.0892 -0.0783
41102W        W49902  21.931   4.890  30.602 -0.1267  0.1978  0.2150
41103W        W49903  25.560   1.559  31.608 -0.4646 -0.0727  0.0767
41104W        W49904   7.953   3.067  26.476  0.1513  0.1563 -0.0553
41105W        W49905  22.393   5.915   0.534 -0.0114  0.1248 -0.2135
41106W        W49906  24.725   6.182   3.862 -0.0591  0.1040  0.0789
41107W        W49907  26.227   6.605   3.786 -0.1243  0.2631 -0.0997
41108W        W49908  12.327   3.171   6.502  0.0385  0.2629  0.1886
41109W        W49909  24.596   3.828   4.801 -0.2189 -0.0954 -0.0925
41110W        W49910   0.597   0.849   3.085  0.0862  0.2719  0.1375
41111W        W49911  24.092   2.782  27.157 -0.2170 -0.1041 -0.0110
41112W        W49912   3.960   1.472  26.146 -0.0934 -0.2014  0.1586
41113W        W49913  14.201   1.996  31.382  0.2246  0.0013  0.1299
41114W        W49914  12.777   2.662  34.813 -0.2492 -0.0147  0.0467
41115W        W49915   1.383   6.124  10.497 -0.0194  0.0838 -0.0111
41116W        W49916  12.337   0.645  27.922  0.0433  0.1239  0.2322
41117W        W49917  10.180   3.768  14.774  0.0513  0.0918  0.0740
41118W        W49918  16.707   5.062  20.860 -0.1217  0.3226 -0.0885
41119W        W49919  10.249   4.895  28.085  0.2336 -0.0326  0.0467
41120W        W49920  16.188   1.932  13.539 -0.0482 -0.1089 -0.0460
41121W        W49921   9.471   0.938   0.157  0.1656 -0.0386 -0.2539
41122W        W49922   8.254   5.336  11.086  0.0596 -0.0634 -0.3922
41123W        W49923  22.991   5.076   6.170 -0.0316 -0.0310 -0.0512
41124W        W49924  14.259   1.419  35.442 -0.0524 -0.1184 -0.0093
41125W        W49925  14.668   3.742   7.142 -0.0806 -0.1820 -0.0381
41126W        W49926   7.005   0.760   2.638  0.1822 -0.1584 -0.0052
41127W        W49927   3.967   5.530  30.023  0.2371 -0.0152 -0.3321
41128W        W49928   4.646   3.709  28.550 -0.0824  0.0890  0.1065
41129W        W49929  23.697   5.653  11.288 -0.0691  0.0233  0.1469
41130W        W49930  15.000   2.687   5.938 -0.1322  0.0541 -0.1108
41131W        W49931  20.333   4.875   5.141 -0.0198  0.0818 -0.0656
41132W        W49932  16.611   4.645   0.524  0.2011  0.1007  0.1003
41133W        W49933  16.888   4.437   8.863  0.0105 -0.2364 -0.1678
41134W        W49934  19.690   4.290  34.190  0.0198 -0.1613  0.2342
41135W        W49935  15.618   4.988  12.550 -0.0766 -0.0253 -0.0606
41136W        W49936  21.965   4.858   6.178 -0.1299  0.1386 -0.4249
41137W        W49937   0.391   1.381   0.866  0.0705  0.5101 -0.1340
41138W        W49938  17.325   3.333  33.158  0.0614  0.1534 -0.2591
41139W        W49939  10.604   2.204   7.624  0.3256 -0.0963 -0.0496
41140W        W49940   6.797   3.686   3.881 -0.2261 -0.0801  0.2654
41141W        W49941   1.422   0.282  21.825 -0.1076  0.1390  0.0406
41142W        W49942  13.915   5.263  33.191  0.2057  0.3205 -0.1116
41143W        W49943  12.941   3.033  33.872  0.2299  0.0354  0.0310
41144W        W49944  12.473   5.025   5.765  0.0251  0.1700  0.1251
41145W        W49945   2.558   0.962  23.394 -0.0970  0.0296 -0.2540
41146W        W49946  23.984   3.872  32.987 -0.2647  0.0873  0.2260
41147W        W49947  20.791   1.296   6.167 -0.1899  0.0998  0.0673
41148W        W49948  12.878   4.698   4.404  0.1825  0.0359 -0.3393
41149W        W49949  20.493   1.784  25.407  0.4112 -0.0170  0.1197
41150W        W49950   1.258   0.601   8.389  0.4551 -0.0069 -0.0119
41151W        W49951   2.477   0.928  20.513 -0.0613  0.0954  0.0120
41152W        W49952  16.767   6.232  27.072  0.0225 -0.0969  0.1280
41153W        W49953  17.396   3.723  10.308  0.2780  0.2934  0.2760
41154W        W49954   9.582   5.464  12.070  0.0897  0.1970 -0.2378
41155W        W49955  17.861   3.944   6.299 -0.0422  0.1406  0.1637
41156W        W49956  24.401   2.451  14.235 -0.2640  0.3078  0.0856
41157W        W49957  12.689   5.743  34.456  0.0440 -0.1969 -0.2110
41158W        W49958   8.414   3.896  29.604  0.0161 -0.0492  0.1487
41159W        W49959  17.271   4.207  30.555 -0.2620  0.2024  0.2567
41160W        W49960   8.997   2.804  13.373 -0.0826 -0.1451 -0.1702
41161W        W49961  15.520   1.474   0.124 -0.0957 -0.0205  0.0320
41162W        W49962  23.249   2.186  30.999 -0.3259  0.1787 -0.0822
41163W        W49963   9.145   1.503  22.317  0.2062 -0.0543  0.1715
41164W        W49964  25.856   2.269  23.364  0.0542  0.1879  0.2328
41165W        W49965   1.932   2.667  14.572  0.3365 -0.0662  0.2934
41166W        W49966  23.614   4.978   8.341 -0.2437 -0.2450 -0.1513
41167W        W49967  15.361   1.703  31.884  0.3312  0.2137  0.2940
41168W        W49968   3.162   3.487  27.733 -0.0164 -0.0378 -0.2172
41169W        W49969  23.789   2.275  29.429 -0.1400 -0.1959 -0.4070
41170W        W49970  15.211   6.416  35.077  0.0328 -0.0888 -0.0974
41171W        W49971  23.725   0.573  30.790 -0.1721 -0.0708  0.1104
41172W        W49972   0.941   1.800   1.613 -0.2773 -0.2373 -0.1924
41173W        W49973   2.834   0.747  13.451 -0.0068  0.2525  0.0589
41174W        W49974   0.903   2.185  33.695  0.0087  0.0439 -0.1637
41175W        W49975   3.623   2.646  29.129  0.0186  0.0796 -0.1175
41176W        W49976  22.947   2.576  24.208 -0.0899 -0.1503 -0.0015
41177W        W49977  20.834   6.582  32.138  0.0257  0.1310  0.0374
41178W        W49978  25.125   3.152  30.413 -0.0862 -0.3626 -0.0513
41179W        W49979   6.063   5.430  10.913  0.0618  0.2610  0.1824
41180W        W49980   9.266   6.463   3.705 -0.3158  0.0944 -0.1077
41181W        W49981  17.159   5.128   3.036 -0.1329 -0.0474 -0.0737
41182W        W49982  19.281   4.718   3.299  0.0857  0.2341  0.4332
41183W        W49983  14.280   1.598   5.211  0.0682 -0.0542 -0.0541
41184W        W49984  22.211   2.437  29.077 -0.1627 -0.1765  0.1475
41185W        W49985   8.546   5.264  22.249 -0.1406  0.2025 -0.1393
41186W        W49986  21.563   1.805  26.261 -0.1223 -0.0211  0.0486
41187W        W49987  16.915   4.518  23.120 -0.3032 -0.2852  0.2211
41188W        W49988   0.350   3.520  28.535  0.2675 -0.1449 -0.0918
41189W        W49989  21.433   3.416  14.188 -0.0902 -0.0390 -0.0698
41190W        W49990  16.118   1.596  10.882 -0.2386  0.2702 -0.0385
41191W        W49991  18.467   2.533   6.093  0.0168 -0.1063 -0.1972
41192W        W49992  17.553   2.133  25.324  0.1932  0.3445 -0.2717
41193W        W49993  22.306   0.784  28.058  0.0472 -0.4090 -0.0704
41194W        W49994   5.643   6.343  13.619  0.1110 -0.0173  0.0193
41195W        W49995   6.830   4.434  10.069  0.0824  0.1968  0.0339
41196W        W49996  18.068   2.384  11.769 -0.1377  0.0176 -0.1526
41197W        W49997  16.646   6.330  30.099  0.0816 -0.2560 -0.1532
41198W        W49998  18.235   5.798  23.899 -0.3226 -0.2086 -0.0457
41199W        W49999  21.070   6.186  32.290  0.3380 -0.2307  0.4103
41200W        W50000  20.445   2.440  22.413  0.2106  0.0554 -0.0465
41201W        W50001   5.020   0.083  21.355 -0.0624 -0.2012 -0.0141
41202W        W50002   1.985   6.085  34.331  0.1763  0.1611 -0.2429
41203W        W50003  21.698   0.822  14.311  0.0190  0.1795  0.0381
41204W        W50004  14.861   5.823  10.282  0.2281 -0.0397 -0.0606
41205W        W50005   1.322   4.169   3.705  0.3112  0.0608 -0.1379
41206W        W50006   4.613   0.021  21.799 -0.2406  0.1743 -0.0992
41207W        W50007   6.033   3.107  12.721 -0.0519  0.0175  0.1142
41208W        W50008  11.533   0.348  35.844 -0.2636  0.0009 -0.0741
41209W        W50009  20.712   4.372  27.526 -0.0283  0.3431 -0.0092
41210W        W50010   9.604   5.655  33.578 -0.1890  0.2386  0.2255
41211W        W50011  25.772   0.146  12.554 -0.1103 -0.4537  0.1043
41212W        W50012  17.057   1.933  34.251  0.0623 -0.0250  0.0636
41213W        W50013  10.641   0.655  20.459  0.1707  0.0183  0.2206
41214W        W50014   3.111   3.762  15.247  0.2593 -0.1580 -0.3197
41215W        W50015  24.366   6.225   9.970 -0.2715 -0.2561  0.0335
41216W        W50016   2.135   6.449  14.332  0.0429  0.1045 -0.2260
41217W        W50017   1.720   3.741  33.549 -0.0450 -0.2279  0.0702
41218W        W50018  19.927   4.980  24.707 -0.3339  0.2658  0.1997
41219W        W50019   0.339   1.246  25.255  0.3462 -0.0062  0.0735
41220W        W50020   7.069   2.212  29.782 -0.2622 -0.1118 -0.0245
41221W        W50021   3.196   1.357   1.198 -0.1024  0.0874 -0.1441
41222W        W50022   7.969   3.796  21.005  0.1237 -0.0595 -0.1334
41223W        W50023  26.365   0.615  12.022  0.1309 -0.0113  0.0366
41224W        W50024   8.793   5.914  20.767 -0.0931  0.0521 -0.2742
41225W        W50025  21.455   5.020   8.607 -0.0445 -0.0029  0.2844
41226W        W50026  16.177   0.019   7.542  0.1664 -0.0992 -0.2766
41227W        W50027  22.965   5.608  11.702  0.0757  0.2109 -0.3085
41228W        W50028   5.744   1.108  14.189 -0.0112 -0.1506 -0.1589
41229W        W50029  12.164   0.650  23.778  0.2154 -0.0361 -0.2314
41230W        W50030   2.650   5.429   9.223  0.0465  0.1582 -0.1114
41231W        W50031   5.078   2.227  31.317  0.0638 -0.0881 -0.1117
41232W        W50032  16.733   3.442   2.765  0.0674 -0.2349 -0.1217
41233W        W50033   5.707   5.071  13.409 -0.0482  0.2251  0.1904
41234W        W50034  12.932   6.316   2.010  0.1436 -0.0441 -0.0133
41235W        W50035  23.813   6.082  35.774 -0.1371 -0.2252  0.0405
41236W        W50036  15.622   0.230   6.103 -0.0645  0.1043 -0.1104
41237W        W50037   4.918   6.290  10.220 -0.1151  0.2178 -0.0149
41238W        W50038  20.070   5.074  33.947 -0.0044 -0.2689  0.1577
41239W        W50039  13.116   5.442  26.438  0.2180 -0.2380 -0.0239
41240W        W50040  19.543   0.456  21.101  0.0400 -0.2042 -0.0139
41241W        W50041   3.059   1.082  23.411  0.1498  0.1612  0.1481
41242W        W50042  15.081   5.827   0.388  0.2943  0.1291 -0.0745
41243W        W50043  24.610   2.287  25.993  0.3166  0.3001 -0.2402
41244W        W50044  16.997   5.332  27.237 -0.1008 -0.0783 -0.1516
41245W        W50045  21.565   5.028   5.802 -0.2880  0.3078  0.1196
41246W        W50046   4.838   3.491  14.190  0.0337  0.1415  0.0875
41247W        W50047  18.474   0.136  25.684 -0.1926  0.1507  0.0157
41248W        W50048  23.882   5.888   9.663  0.1425 -0.0128 -0.1063
41249W        W50049   1.789   6.108  31.644 -0.2491  0.0424 -0.0563
41250W        W50050  10.275   5.220   6.109  0.1164 -0.0655  0.1010
41251W        W50051   0.562   3.547  35.771  0.0771  0.0914  0.0158
41252W        W50052   5.350   6.096   7.459 -0.1507 -0.1235 -0.3342
41253W        W50053   2.388   5.173  12.580 -0.0221  0.1548  0.0360
41254W        W50054  20.094   0.379  35.161 -0.1336  0.1614  0.0444
41255W        W50055   3.744   0.750  21.079 -0.0512 -0.2710 -0.0158
41256W        W50056  20.635   0.727  30.585  0.1881  0.0169  0.0936
41257W        W50057   6.433   3.837  25.413  0.0834 -0.2898  0.1212
41258W        W50058  19.313   3.095  23.923  0.0549 -0.1323  0.0305
41259W        W50059   8.586   1.391   5.737  0.0920 -0.2757  0.0630
41260W        W50060   2.294   0.756  32.514  0.1735  0.3716  0.0698
41261W        W50061  20.795   2.492  20.582 -0.0104  0.0382 -0.0533
41262W        W50062   3.917   3.203   4.317 -0.1307  0.0323  0.0645
41263W        W50063   0.227   4.445  36.006  0.0991  0.1039  0.3324
41264W        W50064  20.866   5.907  34.224 -0.0495  0.1792 -0.3287
41265W        W50065  24.681   0.572  31.427  0.0138 -0.0565  0.0790
41266W        W50066  23.884   2.006   3.174 -0.1070  0.1863 -0.0680
41267W        W50067  12.160   0.055  16.241  0.1389 -0.1009 -0.0452
41268W        W50068  22.263   6.044  30.787  0.1079 -0.1212  0.5437
41269W        W50069  18.314   1.998  15.414 -0.0887 -0.1750  0.2568
41270W        W50070   7.995   5.793  35.205 -0.0105  0.2276  0.1532
41271W        W50071  23.875   2.413  34.151  0.3687 -0.3542 -0.2049
41272W        W50072   1.104   1.913  13.192  0.0245  0.1663  0.0399
41273W        W50073  25.088   0.151  34.673  0.1146  0.1069  0.0274
41274W        W50074  19.844   5.345  13.681 -0.3166 -0.0236  0.2492
41275W        W50075  23.649   4.253  20.553  0.2020  0.0596  0.2841
41276W        W50076   2.094   0.192  36.016  0.2729  0.0143 -0.0648
41277W        W50077  23.980   6.549  25.594  0.1023 -0.0646 -0.0805
41278W        W50078   1.397   2.742  13.270 -0.2990  0.1630  0.0827
41279W        W50079  16.440   4.382  36.108 -0.1350  0.1330  0.4988
41280W        W50080  19.572   0.296  32.938  0.2514 -0.0276 -0.0375
41281W        W50081  16.411   5.948  25.693  0.0947 -0.2447  0.1510
41282W        W50082  24.093   0.742  29.169  0.0848  0.2360 -0.0626
41283W        W50083  25.144   2.071  32.617 -0.0721  0.1506 -0.1065
41284W        W50084  11.844   0.838  15.115 -0.0141 -0.0387 -0.0016
41285W        W50085   8.017   4.932  33.801  0.0441 -0.2433 -0.3063
41286W        W50086   6.727   3.977  13.402  0.0291 -0.0721 -0.0399
41287W        W50087   1.184   3.583  24.557  0.0829  0.1425 -0.0705
41288W        W50088  15.940   5.500   3.898  0.2982 -0.0255  0.0759
41289W        W50089  13.643   2.437   6.911 -0.0577 -0.0165  0.1597
41290W        W50090  15.130   4.938  22.238 -0.2774 -0.3186 -0.0929
41291W        W50091  19.345   2.172  15.963 -0.0561 -0.3618  0.1071
41292W        W50092   6.166   3.837  28.835  0.0087  0.1351 -0.2586
41293W        W50093   2.449   4.595  31.789 -0.2512 -0.0578 -0.0309
41294W        W50094   2.677   5.823  29.338 -0.0190  0.0675 -0.1043
41295W        W50095   3.417   1.685   2.803 -0.5348 -0.1249 -0.1730
41296W        W50096  16.423   1.360   0.015 -0.1542  0.2173  0.0678
41297W        W50097  24.417   0.285  26.394 -0.1972 -0.0339  0.0457
41298W        W50098   6.500   2.606  23.705  0.0629 -0.0574  0.0924
41299W        W50099  16.778   1.673  29.842  0.0808 -0.0490  0.0871
41300W        W50100   4.686   6.477   1.815 -0.0600  0.2682 -0.1365
41301W        W50101  16.625   6.414   0.287 -0.0419 -0.1458  0.1997
41302W        W50102   5.525   2.361   3.168 -0.1078  0.0780 -0.3365
41303W        W50103  22.726   3.916   1.996  0.0548 -0.0878 -0.3453
41304W        W50104  17.348   3.651  31.970  0.0011  0.0664  0.2405
41305W        W50105   4.148   3.734  36.136  0.2459  0.2635  0.1210
41306W        W50106  20.814   4.634  12.970 -0.1167  0.1605 -0.0093
41307W        W50107   5.127   1.279   6.894  0.0615 -0.2351 -0.0343
41308W        W50108  12.246   0.181  32.317 -0.0622  0.0925  0.1573
41309W        W50109   9.537   1.709  34.663 -0.2215 -0.0752 -0.2824
41310W        W50110   8.517   6.168  24.464  0.3507  0.2986  0.0854
41311W        W50111  18.813   4.935  21.929  0.0422  0.1442  0.2540
41312W        W50112  14.572   2.834  29.255  0.1096  0.1935 -0.0022
41313W        W50113  24.540   4.363  22.240  0.3940  0.2408 -0.0923
41314W        W50114   4.557   3.063  26.241  0.0447 -0.0594 -0.1374
41315W        W50115   3.223   4.729   0.041 -0.4258  0.1114  0.0669
41316W        W50116   5.886   4.226  13.273  0.0542  0.2386 -0.0150
41317W        W50117   4.218   1.121  30.626  0.1415 -0.2265  0.2149
41318W        W50118  24.069   0.104  34.572  0.1462  0.0263  0.0533
41319W        W50119   1.022   1.409  34.209  0.0186  0.1336 -0.1478
41320W        W50120   4.092   0.641   7.828  0.1215  0.1906 -0.3391
41321W        W50121   8.045   5.718   8.330  0.0125  0.4932 -0.3053
41322W        W50122   8.197   3.084  11.696 -0.2206  0.0651  0.3162
41323W        W50123   8.567   3.010  32.908  0.0426  0.0734  0.1577
41324W        W50124  25.804   3.399  33.147 -0.3658 -0.3215 -0.1206
41325W        W50125  20.977   0.325  14.603 -0.0658 -0.0468 -0.0067
41326W        W50126  10.357   2.601   8.370  0.2903 -0.3043  0.6954
41327W        W50127   6.572   0.194   3.853  0.1325 -0.0097 -0.0951
41328W        W50128  14.771   1.902  11.137 -0.0410 -0.1088  0.2194
41329W        W50129  16.237   4.216   2.344 -0.0861  0.1889 -0.1726
41330W        W50130  12.107   3.732   6.291 -0.1571 -0.0677 -0.0215
41331W        W50131  24.511   5.021  14.143 -0.0472  0.0086 -0.0784
41332W        W50132  18.534   2.558  21.624 -0.0390 -0.0454  0.0051
41333W        W50133   3.877   4.032   8.231  0.1188  0.3335  0.2740
41334W        W50134  11.564   1.118   9.535 -0.0343  0.0316  0.0203
41335W        W50135  20.672   0.508  14.223  0.3294  0.4928 -0.0593
41336W        W50136   6.488   0.517  15.119  0.0261 -0.0517  0.1612
41337W        W50137  23.599   5.824   2.161  0.2609  0.0377 -0.2968
41338W        W50138  18.619   1.362   0.447 -0.0992 -0.2086 -0.0928
41339W        W50139  15.979   4.867   7.884 -0.2597 -0.1759  0.1511
41340W        W50140  20.762   1.283  11.635 -0.1245  0.0585  0.1308
41341W        W50141  14.760   2.713  14.417  0.2290 -0.0172 -0.0810
41342W        W50142   0.467   1.772  32.480  0.2446 -0.5606 -0.1775
41343W        W50143  11.761   1.755  28.269  0.1662  0.0023 -0.0560
41344W        W50144  24.989   5.843  34.792  0.1774  0.2851  0.1229
41345W        W50145  22.125   2.467  29.726  0.2096 -0.2356  0.1279
41346W        W50146  20.081   3.521  35.215 -0.0964 -0.0608 -0.0050
41347W        W50147   7.536   6.271   5.054  0.1477  0.1047  0.0080
41348W        W50148  26.415   4.375  29.045 -0.2587  0.0236 -0.4611
41349W        W50149   6.837   0.313  28.815 -0.3673  0.0528  0.2714
41350W        W50150   9.424   1.359   4.143 -0.0988  0.1913  0.0103
41351W        W50151  20.001   2.477  14.736 -0.0720  0.0016  0.0561
41352W        W50152   8.125   5.213   4.773 -0.1041 -0.4353 -0.0766
41353W        W50153  23.189   4.768   9.232  0.0150 -0.3396 -0.2246
41354W        W50154  16.117   3.599   0.633 -0.1598 -0.0950 -0.1402
41355W        W50155  13.633   6.588   5.792  0.1659  0.0118 -0.0021
41356W        W50156   4.510   4.774  32.433 -0.3823  0.0645 -0.3050
41357W        W50157  11.017   2.950  15.442 -0.0968 -0.1314  0.2906
41358W        W50158  18.636   2.268   6.771  0.0852  0.0677 -0.2631
41359W        W50159  24.833   3.970  25.727  0.1087  0.0872 -0.1637
41360W        W50160  16.060   0.101   2.591 -0.0940  0.1650  0.1040
41361W        W50161   4.928   4.759  32.841  0.3391 -0.0334 -0.2330
41362W        W50162  14.135   1.174  10.993 -0.0673 -0.0917  0.1505
41363W        W50163  14.276   0.979  29.852  0.1186  0.2287  0.2610
41364W        W50164  15.762   6.219  24.889  0.0145  0.0341  0.3162
41365W        W50165  25.721   3.555  13.097  0.0033  0.2606  0.1236
41366W        W50166   8.391   4.639  14.970  0.0864  0.3472  0.0204
41367W        W50167  24.792   5.860  24.388 -0.0291  0.0531  0.0036
41368W        W50168  22.453   4.334   9.620  0.0258 -0.1499  0.1094
41369W        W50169   5.617   6.520  12.005 -0.2943 -0.1252  0.0373
41370W        W50170   5.821   3.261  35.260 -0.1543  0.0491  0.2051
41371W        W50171  18.680   2.863   0.777 -0.1019  0.0130 -0.0944
41372W        W50172   2.678   1.483  11.732 -0.0293  0.0275  0.0600
41373W        W50173  14.635   0.061  10.292  0.1311 -0.2259 -0.2933
41374W        W50174  13.988   6.176  35.667 -0.1143  0.0579 -0.1304
41375W        W50175   7.715   1.504  14.704 -0.3169  0.1842  0.2085
41376W        W50176  19.826   4.842  20.930  0.2399  0.0815 -0.0411
41377W        W50177   6.744   2.854  14.561 -0.0942 -0.0893 -0.3235
41378W        W50178   8.131   0.892  29.240 -0.4682  0.1166 -0.1499
41379W        W50179  17.026   0.651   1.510 -0.0220  0.2371 -0.0248
41380W        W50180  17.626   2.387   6.233  0.1010  0.1355  0.1750
41381W        W50181   2.467   3.591  23.951  0.1094 -0.0883  0.1048
41382W        W50182  25.533   6.384   2.644  0.2539  0.0817 -0.0119
41383W        W50183  25.141   2.707  20.901  0.1611 -0.0189 -0.1768
41384W        W50184   2.019   1.498  21.471 -0.3235  0.2086  0.0058
41385W        W50185  19.300   4.155   5.797  0.1087 -0.1428  0.4944
41386W        W50186  23.181   0.314  12.602  0.1181 -0.1351  0.0195
41387W        W50187  19.168   6.010   5.856  0.2382 -0.0496  0.1823
41388W        W50188   7.401   4.268  31.481 -0.1353  0.3686 -0.2087
41389W        W50189   5.886   1.909   9.478  0.0630  0.2198 -0.0815
41390W        W50190   8.745   2.609   6.420  0.0671 -0.0632  0.0962
41391W        W50191  17.655   3.807  12.995  0.0847  0.1326  0.1930
41392W        W50192   0.855   2.100  33.123  0.0285 -0.2108  0.0222
41393W        W50193  21.294   0.694   1.221  0.0985 -0.2499  0.0382
41394W        W50194  14.664   3.547  11.918  0.2160 -0.1173 -0.1833
41395W        W50195   3.107   4.938  14.452  0.2424 -0.1793 -0.0374
41396W        W50196   9.048   1.721   7.743 -0.3343  0.2211 -0.1149
41397W        W50197  21.959   3.574  20.728  0.1149  0.0762 -0.0621
41398W        W50198   9.827   3.827   9.529  0.1280 -0.0373 -0.2166
41399W        W50199   1.500   2.722  31.472  0.1778  0.0487 -0.0812
41400W        W50200  18.268   2.714   1.791  0.0328  0.0347  0.1616
41401W        W50201   3.562   4.735  30.195 -0.0851  0.0241 -0.1662
41402W        W50202   8.513   3.536  31.371 -0.0427  0.0819  0.1148
41403W        W50203  25.808   5.833  28.912 -0.2812 -0.3598 -0.1832
41404W        W50204   0.814   3.875  26.755 -0.1678 -0.0059  0.2682
41405W        W50205  19.039   1.053  25.662  0.1235 -0.2211 -0.0448
41406W        W50206  19.337   6.013  34.552  0.0025 -0.1508 -0.1474
41407W        W50207  14.550   1.273  11.866  0.0851 -0.0915 -0.0555
41408W        W50208   8.958   1.239   6.648  0.0850  0.1172  0.0656
41409W        W50209   8.486   5.318  24.066 -0.0425  0.3807 -0.0116
41410W        W50210  23.057   3.586   3.763  0.2185 -0.0954  0.1288
41411W        W50211   4.361   1.266  22.158 -0.0458 -0.2095 -0.1558
41412W        W50212  16.859   3.298  22.232 -0.1235 -0.0321  0.2824
41413W        W50213   1.787   5.714   2.812  0.1908 -0.0542  0.0675
41414W        W50214  18.300   6.122  30.083 -0.0871  0.0541  0.1527
41415W        W50215   0.835   5.383   2.333 -0.1219 -0.0366  0.2325
41416W        W50216  20.528   1.359  24.487 -0.0083 -0.0898 -0.1372
41417W        W50217  22.252   0.358  20.680  0.3662 -0.1625  0.1195
41418W        W50218  14.015   0.019   4.879  0.0344  0.2111  0.0276
41419W        W50219  23.986   5.231  20.630  0.1521  0.0632 -0.1638
41420W        W50220  24.546   1.845  29.974  0.3034 -0.3318  0.2241
41421W        W50221  10.583   4.926  24.083  0.0640  0.1952  0.0493
41422W        W50222   5.151   2.853  23.495 -0.0078  0.0524  0.2454
41423W        W50223  12.359   6.128  22.071 -0.0785 -0.1313  0.0814
41424W        W50224   2.462   5.545  26.272  0.0284 -0.2347  0.2230
41425W        W50225  26.062   1.623  35.082 -0.1376  0.1138 -0.0731
41426W        W50226  13.728   5.275  23.764  0.0588 -0.1839 -0.0586
41427W        W50227   1.515   0.772   9.030 -0.4018  0.1559 -0.2562
41428W        W50228   3.961   1.612  10.274 -0.0960  0.0411 -0.1163
41429W        W50229  25.633   1.027  22.904  0.0094 -0.4224  0.1626
41430W        W50230  13.664   4.169  34.821  0.2592 -0.1203 -0.3492
41431W        W50231  24.672   5.468  14.396 -0.1143  0.0506 -0.4889
41432W        W50232   4.347   1.624  14.265 -0.0877 -0.1782 -0.0583
41433W        W50233  22.198   6.297  24.619  0.1196  0.0208  0.1411
41434W        W50234  19.706   4.877  33.173 -0.2546  0.0653 -0.1908
41435W        W50235   9.519   1.387   4.616 -0.0396  0.1081  0.2743
41436W        W50236  10.824   0.466  20.911 -0.1595  0.2195 -0.0118
41437W        W50237  12.985   6.085  13.025 -0.2221 -0.1151  0.1373
41438W        W50238   7.055   6.254  14.186  0.0712  0.0096  0.0798
41439W        W50239  20.533   5.069  25.441 -0.1183 -0.0436 -0.1641
41440W        W50240  20.992   3.244   3.794  0.0499  0.0806  0.1606
41441W        W50241  15.584   3.252  25.340  0.2673  0.1285 -0.1709
41442W        W50242  12.139   4.912  35.993 -0.0504 -0.0344  0.0096
41443W        W50243  17.783   4.826   8.105  0.2006 -0.1585 -0.1698
41444W        W50244  15.759   0.957  31.014 -0.0902  0.0569  0.1633
41445W        W50245  23.462   2.975   5.026  0.3888 -0.1272  0.3665
41446W        W50246  18.816   4.669   0.399  0.2066  0.1444 -0.0761
41447W        W50247   3.253   5.059  25.188  0.0115 -0.2314  0.1838
41448W        W50248  18.285   6.048  26.116 -0.2490 -0.0558  0.2718
41449W        W50249   3.990   2.454  35.672  0.1704 -0.0860 -0.0409
41450W        W50250  17.674   5.096  32.899 -0.1312 -0.4074 -0.2335
41451W        W50251  12.151   0.058  10.357 -0.0874 -0.4125  0.1145
41452W        W50252   0.252   2.611  22.329 -0.0199 -0.1256  0.2654
41453W        W50253   7.499   4.281   6.736  0.0754  0.1185 -0.1974
41454W        W50254  18.414   1.175   7.460 -0.1552 -0.1198  0.2163
41455W        W50255  10.812   4.363   2.233  0.2410 -0.0942  0.0180
41456W        W50256   7.171   6.027  27.674  0.1208  0.0406 -0.0965
41457W        W50257   8.351   2.813  35.216 -0.1349 -0.1702  0.0136
41458W        W50258   8.064   2.703  22.338 -0.1497  0.1245  0.0785
41459W        W50259   3.453   4.259  12.513 -0.1379  0.0090 -0.2235
41460W        W50260   8.542   2.606  30.824  0.0016  0.1353 -0.2214
41461W        W50261   1.712   0.937  12.363  0.0628 -0.0666  0.1619
41462W        W50262  25.204   5.586  26.871 -0.1322 -0.2482  0.1196
41463W        W50263  18.394   4.424  10.726 -0.1059  0.2446 -0.4564
41464W        W50264  26.343   0.139  25.049  0.1196 -0.2818  0.1222
41465W        W50265  17.139   1.813  15.247  0.2471  0.3453 -0.1876
41466W        W50266  26.184   0.830  14.774  0.1076 -0.0315  0.3592
41467W        W50267   1.245   5.674  27.870  0.0634  0.0823 -0.3200
41468W        W50268   5.169   1.850   6.024 -0.0838 -0.0857 -0.1760
41469W        W50269   8.838   5.365  10.999  0.1834 -0.2615  0.5593
41470W        W50270  19.790   5.856  13.819  0.1220 -0.2403  0.1909
41471W        W50271  21.128   2.846  10.640  0.0514 -0.0147 -0.1163
41472W        W50272   8.919   3.785   3.375  0.0654 -0.0822  0.1265
41473W        W50273   5.969   3.527  29.742  0.2163  0.0174  0.0488
41474W        W50274  23.647   0.142  29.494 -0.0528 -0.0129 -0.0026
41475W        W50275  14.620   6.576   0.206  0.1680 -0.1699 -0.0017
41476W        W50276  16.469   3.805   2.587 -0.1024  0.1094  0.1923
41477W        W50277  16.287   6.581  22.821 -0.1625 -0.0418 -0.4516
41478W        W50278   0.700   5.672  11.883  0.0938 -0.1061  0.1232
41479W        W50279  13.400   1.224   0.258  0.2562  0.1014 -0.1728
41480W        W50280   9.495   1.597  29.471  0.0507 -0.1181  0.0885
41481W        W50281   0.853   4.656  21.998 -0.2179 -0.2960 -0.0656
41482W        W50282  22.767   4.314  11.407 -0.2778 -0.0844 -0.0580
41483W        W50283   3.994   5.438   5.973  0.0009 -0.1997 -0.0105
41484W        W50284   4.882   3.467  12.729  0.1394  0.1186 -0.1786
41485W        W50285  12.819   2.224  26.388  0.0639 -0.0969  0.2060
41486W        W50286  23.335   3.507  24.985  0.2132 -0.0589  0.1024
41487W        W50287   0.040   2.505  29.576  0.2661 -0.0652  0.0038
41488W        W50288  20.615   4.463  21.703  0.0305  0.0584  0.2820
41489W        W50289  12.192   1.941  21.573 -0.1566  0.2558 -0.0632
41490W        W50290   6.402   3.887  22.197 -0.0863  0.0709 -0.1612
41491W        W50291  18.843   3.513   9.949  0.0745  0.1943 -0.0405
41492W        W50292   7.552   2.878   1.090 -0.0858 -0.1995 -0.0696
41493W        W50293   3.186   3.746  25.356  0.0491  0.1451 -0.3463
41494W        W50294   6.918   5.022   4.008 -0.2349  0.1025 -0.2265
41495W        W50295   4.796   0.400   4.226  0.3304 -0.1630 -0.0475
41496W        W50296  24.164   5.359   5.388  0.1815  0.1491  0.0030
41497W        W50297   9.149   1.035   4.383  0.0360 -0.0374 -0.1153
41498W        W50298  16.426   0.310  29.452  0.2026 -0.1386  0.1524
41499W        W50299  17.447   3.667  34.681  0.1498 -0.1409  0.2296
41500W        W50300  22.997   5.604  25.854  0.0562  0.1857 -0.0053
41501W        W50301  13.655   3.832  15.089  0.4045  0.1539 -0.2276
41502W        W50302   1.068   4.078  31.799  0.0087  0.0178  0.0662
41503W        W50303   7.674   0.154   5.900 -0.0686 -0.0341  0.1496
41504W        W50304  21.811   2.989  26.953  0.0174 -0.0417 -0.2233
41505W        W50305   0.579   5.463  12.970 -0.0862 -0.4161 -0.1334
41506W        W50306   8.459   1.788   2.781 -0.1562 -0.0279  0.0449
41507W        W50307  19.149   5.368  21.931  0.2481  0.1788  0.1330
41508W        W50308   2.413   4.706  26.552 -0.2137  0.2379  0.0827
41509W        W50309  14.341   0.722   0.447  0.0203 -0.0353  0.1513
41510W        W50310  23.464   0.934  26.224 -0.0810 -0.0227 -0.1166
41511W        W50311  18.551   0.621  34.231  0.2076  0.0881 -0.1101
41512W        W50312   0.391   0.696  22.221 -0.0746 -0.0673  0.0487
41513W        W50313  15.657   5.778   0.806 -0.0021  0.0387 -0.2158
41514W        W50314  22.364   5.969  29.167 -0.0196  0.0757 -0.2159
41515W        W50315  16.936   0.525  28.690  0.0964 -0.0316  0.2612
41516W        W50316  11.705   1.169  27.528 -0.0863  0.1476 -0.1101
41517W        W50317  22.888   3.314  24.903 -0.0751  0.0232  0.1624
41518W        W50318   5.443   5.886   4.550  0.1208  0.1583  0.0024
41519W        W50319  23.008   3.962   4.180  0.3504 -0.2473  0.0567
41520W        W50320   3.655   2.712  26.704 -0.0996 -0.1073  0.2073
41521W        W50321  16.172   3.173  13.004  0.2018  0.0364 -0.1627
41522W        W50322  24.338   1.281  35.845  0.0314 -0.2258  0.0150
41523W        W50323  18.955   4.955   8.335 -0.1597 -0.1304  0.0613
41524W        W50324  12.811   2.137  12.005  0.1437  0.1741  0.2207
41525W        W50325  18.732   4.375   3.033 -0.1706 -0.0064  0.0579
41526W        W50326   2.627   4.972  13.418  0.2917 -0.1094  0.2893
41527W        W50327  14.118   0.916   0.864 -0.1180 -0.3295  0.5358
41528W        W50328  12.876   5.222  15.867  0.1590  0.1165 -0.0443
41529W        W50329   3.490   0.365  26.706  0.0744  0.1159  0.1323
41530W        W50330  25.126   4.617   2.913 -0.2970 -0.0250  0.1358
41531W        W50331  15.569   2.030  27.188  0.0190 -0.0030 -0.1941
41532W        W50332  15.909   1.328   6.575  0.0087  0.0667  0.3639
41533W        W50333  24.160   2.132  21.390  0.0909  0.1944 -0.0449
41534W        W50334   9.300   5.100   6.307 -0.0796  0.3154  0.0857
41535W        W50335   7.987   6.482  10.115  0.0347  0.3982 -0.0721
41536W        W50336  21.433   1.492   4.790 -0.1162 -0.0387 -0.1017
41537W        W50337  14.528   2.381   0.486  0.2462 -0.3042  0.0351
41538W        W50338   3.161   3.147   7.684  0.2773  0.0373 -0.1531
41539W        W50339   7.461   0.463  30.118 -0.5826 -0.0258 -0.1275
41540W        W50340   6.381   2.619   4.991 -0.0141  0.1118  0.1005
41541W        W50341   8.221   6.516   7.232 -0.3647 -0.0655  0.0244
41542W        W50342   2.116   1.266  30.197  0.0251  0.0384  0.1429
41543W        W50343  18.327   3.676  25.085 -0.0641  0.2658  0.1539
41544W        W50344  24.354   1.194  24.698  0.0128  0.0254 -0.0435
41545W        W50345  19.949   5.396  30.054 -0.0088 -0.1207  0.1067
41546W        W50346   1.631   5.892   4.824 -0.1745  0.0039 -0.0353
41547W        W50347  20.174   1.207  24.802 -0.1354 -0.0461  0.0769
41548W        W50348  10.149   2.505  21.988 -0.1301 -0.3215  0.1629
41549W        W50349  24.802   3.729  28.393  0.1759  0.1292 -0.1305
41550W        W50350   9.122   3.650  26.203  0.1829 -0.0574  0.2567
41551W        W50351   2.483   5.226  10.423 -0.0540  0.0930  0.0877
41552W        W50352  11.984   3.923   4.529 -0.1206  0.2559  0.1479
41553W        W50353  11.567   0.611  30.162 -0.1122 -0.1287 -0.2779
41554W        W50354   1.254   4.316  29.558 -0.0671  0.0032  0.0420
41555W        W50355  24.181   5.239  15.282  0.1096 -0.1115 -0.0728
41556W        W50356  15.369   3.787   5.297  0.0774 -0.0333  0.0678
41557W        W50357   6.940   2.655  22.923 -0.1876  0.1483 -0.1508
41558W        W50358   3.866   0.895   4.326  0.0374 -0.0519  0.0026
41559W        W50359  21.862   3.500   3.292 -0.0051 -0.0734  0.1172
41560W        W50360  13.542   1.767  26.231 -0.0540  0.0968  0.2280
41561W        W50361  25.894   1.466  22.654  0.0333  0.0966  0.0225
41562W        W50362  10.207   2.569  23.028 -0.0563 -0.0606  0.2544
41563W        W50363   4.423   3.978  13.486  0.0936  0.1865  0.1877
41564W        W50364  19.698   6.455   9.887  0.1086 -0.1599  0.2706
41565W        W50365  16.146   2.316   7.902  0.2338  0.0471  0.1526
41566W        W50366   9.673   3.019  34.609  0.0559  0.1505 -0.1803
41567W        W50367   4.268   4.944  21.365 -0.1683 -0.0547 -0.0220
41568W        W50368   3.995   4.988  28.619 -0.0469  0.2712 -0.2557
41569W        W50369   4.763   5.035   2.453 -0.2014 -0.3855  0.4115
41570W        W50370   8.220   0.381  13.746  0.2764  0.1849 -0.5112
41571W        W50371  22.377   3.916  15.218 -0.0777 -0.1606 -0.0108
41572W        W50372  20.581   3.467  22.742 -0.0089  0.1252  0.0979
41573W        W50373   6.232   3.806  29.423  0.0366  0.0198  0.0577
41574W        W50374   8.402   3.125  26.247 -0.0057 -0.1101 -0.0051
41575W        W50375  17.738   6.537  13.871 -0.3429  0.1174 -0.1024
41576W        W50376  24.593   2.688  29.573  0.0032 -0.0393 -0.1288
41577W        W50377  14.009   3.215  24.952 -0.0006 -0.1693 -0.2004
41578W        W50378  20.784   0.913  27.629  0.2215 -0.1437  0.0589
41579W        W50379  12.351   5.188   0.841  0.4044 -0.0661 -0.3992
41580W        W50380  23.000   5.162   3.555 -0.2967  0.0505  0.0429
41581W        W50381  22.768   5.109  32.294 -0.1475  0.0048 -0.2619
41582W        W50382  23.484   4.609  35.012 -0.0781 -0.0658 -0.3189
41583W        W50383  22.780   4.334  35.891  0.0006  0.0694 -0.2072
41584W        W50384   1.205   0.756  25.951  0.1409 -0.0166  0.0038
41585W        W50385  20.818   1.673  10.990  0.0853  0.1829 -0.0587
41586W        W50386  22.833   5.848  32.678 -0.0567 -0.2007  0.1650
41587W        W50387  25.665   6.211  32.696 -0.1576 -0.0568  0.1854
41588W        W50388  13.589   1.624  23.001 -0.3029 -0.3992  0.0559
41589W        W50389   2.737   6.194  23.116  0.2842  0.0707  0.1556
41590W        W50390  13.069   1.331   6.591  0.1905 -0.1859  0.0130
41591W        W50391   2.470   1.762  33.064  0.0753 -0.0646 -0.2738
41592W        W50392   4.642   2.349  29.083 -0.0081  0.0048  0.0199
41593W        W50393  18.423   1.636   6.072  0.2118  0.1268 -0.1176
41594W        W50394  23.348   5.236  25.737 -0.2245  0.1962  0.0258
41595W        W50395  22.421   3.006  28.782  0.1169  0.0029  0.2692
41596W        W50396   9.013   1.710   6.467  0.2444  0.0247  0.0029
41597W        W50397  25.502   2.518  14.412  0.1769  0.0121 -0.2020
41598W        W50398  23.667   4.199  23.582 -0.2457  0.1218 -0.0206
41599W        W50399   4.011   0.288  31.221  0.0079 -0.0490 -0.1298
41600W        W50400  17.619   6.428  35.834 -0.0239  0.2357 -0.2851
41601W        W50401  17.155   2.233  33.686  0.2799 -0.0465 -0.3105
41602W        W50402  22.158   1.992  24.324  0.0156  0.0163  0.2264
41603W        W50403   8.990   3.989  24.978  0.0882  0.0884 -0.0472
41604W        W50404  23.981   2.182  22.238 -0.3780 -0.1362 -0.1801
41605W        W50405  18.842   1.422   2.064  0.0055 -0.1740 -0.0889
41606W        W50406  21.185   5.721  24.349 -0.0977  0.1385  0.0644
41607W        W50407  10.778   3.096   7.230  0.0654 -0.0349 -0.1093
41608W        W50408   0.771   4.988  23.330 -0.0470 -0.1096 -0.2050
41609W        W50409  26.327   4.897  28.925 -0.0173 -0.0025  0.0932
41610W        W50410  11.774   5.150   2.086  0.0293  0.2161 -0.0580
41611W        W50411   1.041   2.939  24.984  0.1099  0.2135 -0.1020
41612W        W50412  14.711   1.249  12.910  0.1616 -0.0577 -0.0182
41613W        W50413  25.271   5.151  10.640  0.4065 -0.0457 -0.1350
41614W        W50414  12.359   3.535  35.951  0.2296  0.0837  0.1845
41615W        W50415   5.802   1.130   4.885  0.0598  0.0216  0.1886
41616W        W50416  11.706   2.842  11.891  0.1025 -0.0643 -0.2480
41617W        W50417  17.029   5.100  23.995  0.0202 -0.1828 -0.1316
41618W        W50418  19.254   1.376  34.892 -0.0267  0.2129 -0.0743
41619W        W50419   6.868   0.395   0.309  0.2414 -0.0248 -0.1597
41620W        W50420  16.084   5.609  24.294  0.0802 -0.0640 -0.0382
41621W        W50421  20.974   5.268   2.014 -0.2346  0.1360 -0.2372
41622W        W50422  22.785   2.337  15.422 -0.4945 -0.0688  0.1866
41623W        W50423   7.801   2.840   7.126  0.0232 -0.0723  0.2615
41624W        W50424  23.721   3.410  27.681  0.1167  0.1719 -0.0395
41625W        W50425  22.901   0.618   1.203 -0.0505  0.0801 -0.0246
41626W        W50426   7.403   1.155   8.257  0.0688 -0.1386  0.2280
41627W        W50427  15.213   5.217  24.852  0.3463 -0.2097  0.0093
41628W        W50428  12.372   5.219  33.706  0.2590  0.0204 -0.0701
41629W        W50429  10.804   6.211  12.088 -0.2193  0.3104 -0.0785
41630W        W50430  17.474   1.796   4.562 -0.0846 -0.1189 -0.2200
41631W        W50431   0.819   2.676  25.425  0.0657  0.0235 -0.0368
41632W        W50432   0.262   4.663  25.211 -0.1064  0.2503  0.1217
41633W        W50433  17.876   5.030  35.624  0.2262 -0.0020 -0.1355
41634W        W50434   0.567   3.719  11.125 -0.3216  0.0819  0.0444
41635W        W50435  23.557   0.233  34.868  0.0180  0.0636 -0.2653
41636W        W50436  20.133   3.611  25.830  0.0075 -0.2206  0.0140
41637W        W50437  21.971   0.404  28.086  0.1598 -0.0920  0.1038
41638W        W50438  10.422   3.489   8.367  0.3292  0.4476  0.1668
41639W        W50439  24.195   2.732   4.086  0.1025 -0.0334 -0.2333
41640W        W50440  18.461   0.890  21.690  0.1061  0.1208  0.1469
41641W        W50441   6.497   3.121  25.946  0.1509 -0.0382 -0.0488
41642W        W50442  14.880   5.781  26.091  0.0126 -0.0813 -0.0543
41643W        W50443  22.611   4.876  22.069  0.2083 -0.1855 -0.3191
41644W        W50444  16.741   2.749  20.520 -0.0719  0.2795  0.1115
41645W        W50445   6.323   5.694   7.750 -0.1185 -0.0788  0.0596
41646W        W50446  14.069   2.530   5.816 -0.0882 -0.0528  0.2825
41647W        W50447  13.241   0.393   0.080 -0.0676  0.0939 -0.0176
41648W        W50448   8.633   3.830   9.684  0.0310  0.0033  0.1491
41649W        W50449  21.919   1.725   9.470 -0.0894 -0.0296 -0.2435
41650W        W50450  21.028   3.273   5.969  0.2507 -0.0569  0.2113
41651W        W50451   1.988   3.926  10.430  0.2469 -0.0474  0.0143
41652W        W50452  18.247   3.629  11.921 -0.0451 -0.0025  0.0898
41653W        W50453   6.049   3.419  32.266 -0.0110 -0.0998 -0.2014
41654W        W50454   5.099   1.050   3.701  0.0059 -0.1159 -0.0964
41655W        W50455   6.846   2.327  27.125 -0.1119 -0.1552  0.0628
41656W        W50456  26.039   4.311   3.875  0.1205  0.1149 -0.0280
41657W        W50457  16.684   4.473   5.369 -0.0651  0.0417 -0.0054
41658W        W50458   9.581   6.574  35.181  0.0923 -0.3813 -0.0850
41659W        W50459  25.916   2.854  21.592  0.3464 -0.1254 -0.2059
41660W        W50460  13.403   6.461   3.834 -0.0777  0.0053  0.0196
41661W        W50461  21.958   0.488  32.869 -0.0554 -0.0163  0.0073
41662W        W50462   2.306   4.339   3.375  0.0180  0.0520 -0.2010
41663W        W50463  22.948   6.461   6.279 -0.1447  0.1838  0.0715
41664W        W50464  25.829   3.779  22.557  0.0119  0.2530 -0.1352
41665W        W50465  15.028   2.778   1.234  0.1517 -0.1272 -0.0956
41666W        W50466  13.242   4.701  24.694  0.2485  0.4008  0.0572
41667W        W50467  13.429   3.201  12.211  0.1524 -0.0113 -0.3241
41668W        W50468  12.154   5.839  33.102 -0.0892  0.0668 -0.0367
41669W        W50469   2.612   0.151  26.883  0.1491  0.2400  0.0548
41670W        W50470  24.626   1.809  33.962  0.2056  0.0030  0.1425
41671W        W50471  19.708   4.501  11.585  0.0608 -0.3495 -0.1794
41672W        W50472   4.186   1.326  25.262  0.0359 -0.2114  0.0847
41673W        W50473  21.983   2.501   9.522  0.0281  0.2257  0.0326
41674W        W50474   0.956   3.112  13.753  0.0658  0.1440  0.1863
41675W        W50475   6.021   1.291  25.912 -0.0813  0.1804  0.2156
41676W        W50476  25.609   4.852  21.326  0.1414 -0.4014 -0.2043
41677W        W50477   2.828   2.293  23.875  0.3010  0.3586  0.1602
41678W        W50478  20.605   1.782   7.311 -0.0484 -0.4142 -0.1411
41679W        W50479  12.133   0.485  27.108  0.2453  0.0875 -0.0154
41680W        W50480   9.883   5.532  15.569  0.0016  0.0945 -0.1363
41681W        W50481   0.339   3.828  32.985 -0.0769  0.1187  0.0528
41682W        W50482   1.233   4.825  28.992 -0.1789 -0.1273  0.0474
41683W        W50483  12.318   4.390  10.305 -0.1732 -0.0041  0.2055
41684W        W50484  10.923   4.115   2.901  0.1578 -0.0756  0.0393
41685W        W50485  11.830   6.063   5.735 -0.2101  0.0244  0.0944
41686W        W50486   8.046   3.643  11.033  0.0131  0.2807 -0.2910
41687W        W50487  21.628   6.271  33.951  0.0881 -0.1354  0.1492
41688W        W50488  23.766   3.921  27.475 -0.0056 -0.0337 -0.0656
41689W        W50489  17.746   0.339  31.995 -0.0395 -0.1396  0.1679
41690W        W50490  14.743   6.205  11.548 -0.2187 -0.0079 -0.3144
41691W        W50491  11.784   5.825  34.821  0.2097  0.0545 -0.1721
41692W        W50492   2.442   1.262  14.529 -0.1913  0.2614 -0.0791
41693W        W50493   7.645   3.899  34.229 -0.0485  0.1283  0.3779
41694W        W50494   1.015   1.325  30.480  0.2860 -0.2096  0.1649
41695W        W50495   7.459   0.298  29.393 -0.1243  0.2608 -0.1368
41696W        W50496  22.119   3.801  30.304  0.0355 -0.2111  0.2809
41697W        W50497  22.599   0.691  14.103 -0.3415  0.1562  0.1731
41698W        W50498  21.033   2.856  33.853 -0.2219 -0.0161  0.1215
41699W        W50499  26.397   1.073  10.641  0.0515 -0.0208 -0.1039
41700W        W50500   6.077   4.273   4.510 -0.1145  0.0286  0.1128
41701W        W50501  16.634   3.118  29.197 -0.0253 -0.0156  0.2798
41702W        W50502  11.139   6.474   1.233 -0.0582  0.0928 -0.1916
41703W        W50503   1.678   6.037  30.613 -0.5222  0.1840  0.2371
41704W        W50504  25.241   3.556  24.885  0.1289 -0.1104 -0.0707
41705W        W50505  11.601   0.984   6.979 -0.0803  0.1166  0.0201
41706W        W50506  15.252   1.347   7.286 -0.0917 -0.0257  0.2901
41707W        W50507   1.373   4.741  27.581 -0.0247  0.0171  0.5282
41708W        W50508   3.142   1.953  25.587 -0.1350  0.1013 -0.1371
41709W        W50509  16.997   0.095   4.079  0.1980 -0.1419  0.1207
41710W        W50510  16.527   1.622  23.676 -0.0383  0.0844 -0.2114
41711W        W50511   5.348   0.826  14.104  0.1827 -0.1707 -0.0955
41712W        W50512   5.369   4.012  26.388  0.0103 -0.1219  0.0880
41713W        W50513  18.817   2.278  26.451 -0.2310 -0.1888  0.0313
41714W        W50514  19.933   4.818  22.778 -0.0969  0.1341 -0.2247
41715W        W50515  14.187   1.391   2.306  0.0576  0.2093  0.0013
41716W        W50516   7.234   3.529  14.890 -0.3718 -0.1929  0.4234
41717W        W50517  21.409   4.399  32.262  0.2215 -0.0335  0.1067
41718W        W50518   2.554   2.650   2.086 -0.2225  0.1600 -0.4287
41719W        W50519   1.972   2.447   1.085  0.0444  0.0200  0.0279
41720W        W50520  15.893   3.612  34.107 -0.1812 -0.1193 -0.0001
41721W        W50521   1.682   5.230   8.307  0.0565 -0.1781  0.0680
41722W        W50522  22.553   6.255   5.986 -0.1320 -0.0338 -0.1520
41723W        W50523   8.553   5.884   4.134  0.1442 -0.0331 -0.0730
41724W        W50524  12.335   2.564  25.431 -0.2253 -0.3801 -0.1979
41725W        W50525   1.587   6.135   8.119 -0.1021  0.0163 -0.1319
41726W        W50526   5.248   6.157  21.765 -0.0978 -0.1084  0.0055
41727W        W50527  14.057   1.170   5.030 -0.1782 -0.2087  0.2090
41728W        W50528   9.239   1.566  25.045  0.3799  0.0111 -0.1060
41729W        W50529  21.535   0.187  29.663  0.0779 -0.0017  0.4082
41730W        W50530  21.862   3.912  32.892 -0.0944  0.0678 -0.2394
41731W        W50531  24.559   5.684  12.834  0.1245 -0.1198 -0.0794
41732W        W50532  14.497   4.045  26.592  0.0123 -0.0730 -0.1174
41733W        W50533   0.951   0.328   9.405  0.0790  0.2542 -0.0117
41734W        W50534  22.369   0.118  13.528 -0.2124 -0.1876 -0.0946
41735W        W50535  11.589   1.015  11.737  0.1158 -0.0398 -0.0263
41736W        W50536   3.235   5.259  35.106  0.0671 -0.0685 -0.0753
41737W        W50537  17.295   5.376   4.449 -0.2526  0.0970 -0.4114
41738W        W50538  11.466   0.240  20.959  0.5201  0.2949 -0.2982
41739W        W50539  17.698   3.011  32.368  0.2705  0.0473 -0.0575
41740W        W50540   3.008   1.389   7.102  0.1735  0.0475  0.1458
41741W        W50541  18.515   5.829  30.845  0.2975 -0.0090 -0.0290
41742W        W50542  18.717   1.459   3.082 -0.2877  0.2641 -0.1034
41743W        W50543   6.535   1.095  21.810 -0.0810  0.4369  0.1642
41744W        W50544  22.175   4.547  29.791  0.0772  0.3311 -0.1303
41745W        W50545   7.006   4.701  34.443 -0.1961  0.1151 -0.2486
41746W        W50546  20.087   1.166   8.178  0.1752  0.1226  0.2514
41747W        W50547  18.712   4.851  33.282 -0.3485 -0.1304  0.1236
41748W        W50548  17.763   5.065  33.392  0.0310 -0.0226  0.0688
41749W        W50549  16.148   2.419  15.996 -0.2540  0.0228  0.2568
41750W        W50550  12.903   4.200  27.461 -0.1675 -0.1485  0.2710
41751W        W50551  15.881   6.532  31.772  0.0565  0.0959 -0.1616
41752W        W50552   0.306   6.447  31.199  0.0420 -0.2450 -0.1285
41753W        W50553   3.859   2.308  30.163  0.1211  0.1045  0.2829
41754W        W50554  12.507   0.144   6.561 -0.0992  0.2131 -0.3910
41755W        W50555   2.950   1.883   2.731  0.1730  0.0693 -0.3431
41756W        W50556  18.430   5.353   4.349 -0.2447  0.1223  0.0471
41757W        W50557   1.029   5.220  34.354 -0.0186  0.1875  0.0960
41758W        W50558   7.907   4.698  14.960 -0.0996 -0.0339 -0.1350
41759W        W50559   4.536   4.902  30.922 -0.2263  0.2658 -0.1663
41760W        W50560   7.253   1.851  31.232  0.0166  0.0104  0.2338
41761W        W50561  11.306   3.667   3.824 -0.0448  0.0912 -0.1312
41762W        W50562  14.994   3.154  23.369  0.1732  0.1513  0.1653
41763W        W50563   5.633   1.453   0.228 -0.0209 -0.3289  0.2255
41764W        W50564  12.157   4.458  36.061  0.0638  0.4088 -0.0258
41765W        W50565  14.330   6.417  11.748 -0.0072 -0.1417  0.2418
41766W        W50566  24.053   1.608  13.962  0.0775  0.0994  0.1281
41767W        W50567  22.494   0.562  11.915 -0.1488 -0.0620  0.0370
41768W        W50568   7.755   1.293  23.069  0.0741  0.1664 -0.1110
41769W        W50569  11.120   6.357  30.473 -0.0719  0.0387  0.1273
41770W        W50570  22.811   4.860  31.807 -0.4136  0.0065 -0.1905
41771W        W50571   8.401   3.139  21.167 -0.1027  0.2650  0.1210
41772W        W50572  12.877   6.273  35.596 -0.4109 -0.0772  0.1331
41773W        W50573  25.156   5.297  27.759  0.1363  0.0125 -0.3740
41774W        W50574   4.054   4.628   4.306  0.1368  0.0225  0.0022
41775W        W50575   3.861   4.764  22.735  0.0347  0.1504  0.0393
41776W        W50576  19.819   4.386  13.246 -0.0945  0.1040  0.0421
41777W        W50577  13.665   4.718   7.963  0.3763  0.0424 -0.0128
41778W        W50578   1.958   3.863  28.101 -0.0951  0.0032 -0.1149
41779W        W50579  17.823   5.862  27.914 -0.2918  0.0801 -0.1274
41780W        W50580  11.994   3.507  25.224  0.0336  0.0405 -0.2886
41781W        W50581  23.295   3.636   1.304 -0.0581  0.0899 -0.2215
41782W        W50582   2.737   0.403  27.616 -0.0516 -0.2580 -0.0973
41783W        W50583  21.668   0.192   4.988  0.0738 -0.2355 -0.0274
41784W        W50584   3.892   0.055  26.680 -0.0974  0.0592 -0.0897
41785W        W50585  11.072   5.603  15.698  0.3776  0.0668  0.1091
41786W        W50586  24.089   4.771  13.944  0.2859 -0.3688 -0.0024
41787W        W50587  16.544   1.406   0.915  0.4246  0.1500 -0.0351
41788W        W50588   3.456   1.337  27.686 -0.1038 -0.2719 -0.0510
41789W        W50589   3.935   3.781  29.228  0.0088 -0.1957 -0.0165
41790W        W50590   8.736   1.883  20.972  0.2853 -0.0545  0.0548
41791W        W50591  17.394   2.267  20.880 -0.0386 -0.2805  0.2530
41792W        W50592  20.656   2.319   0.394 -0.3434  0.3268 -0.1503
41793W        W50593  12.072   1.749   3.303  0.0094 -0.0111  0.0616
41794W        W50594  18.260   2.734  27.084 -0.1334 -0.2028  0.0487
41795W        W50595  13.986   4.160  27.804  0.1504 -0.0851 -0.1512
41796W        W50596  19.521   3.353   5.719 -0.0463 -0.2724  0.0004
41797W        W50597  25.455   0.336  24.889  0.0413 -0.3196  0.1522
41798W        W50598   3.410   0.428   4.605  0.0038  0.1481 -0.2887
41799W        W50599   4.569   2.094  10.842 -0.3297 -0.0795 -0.2470
41800W        W50600  12.724   3.926  15.815 -0.0664 -0.1431 -0.2018
41801W        W50601  13.000   6.215   8.730  0.3987 -0.2552  0.0158
41802W        W50602  11.848   2.687   5.814  0.0306  0.1240 -0.0928
41803W        W50603  13.556   1.016  33.199  0.2385 -0.1075  0.2446
41804W        W50604  21.293   2.874  23.474  0.0512 -0.1830 -0.2087
41805W        W50605  25.734   3.792   6.227 -0.1302  0.0261  0.0503
41806W        W50606   4.001   4.099  31.804  0.0627 -0.2353  0.2370
41807W        W50607  15.269   0.133  26.458  0.0690  0.1371 -0.1104
41808W        W50608  24.359   2.433  29.933  0.0779  0.3374  0.1504
41809W        W50609   5.133   1.516   7.477  0.0535  0.2314 -0.0364
41810W        W50610  10.116   3.120  11.477 -0.1225  0.2518  0.1788
41811W        W50611  10.516   4.821   6.392  0.0789  0.0564 -0.1596
41812W        W50612  24.706   1.028  29.308  0.0007  0.0380 -0.2093
41813W        W50613  15.971   4.725  21.969  0.1854 -0.0639  0.2766
41814W        W50614   7.367   3.871   7.627 -0.3422 -0.2077  0.2441
41815W        W50615  19.984   3.130  25.984 -0.1768 -0.0429  0.3182
41816W        W50616  19.187   4.573   9.237 -0.1825  0.1092 -0.0280
41817W        W50617  10.810   3.348   9.677 -0.1319 -0.0678 -0.0658
41818W        W50618  22.540   3.526   0.605 -0.0254  0.2069 -0.1233
41819W        W50619   6.315   2.835  32.539 -0.3067  0.0664 -0.1324
41820W        W50620  10.017   1.844   1.083  0.2760  0.1389 -0.1219
41821W        W50621  15.377   5.188  12.128 -0.0898  0.0857  0.0177
41822W        W50622  18.217   4.537   5.793 -0.0012  0.1626 -0.0302
41823W        W50623  20.434   3.983  12.566 -0.1753  0.1974  0.0926
41824W        W50624   9.496   0.942  25.539 -0.1062 -0.1791  0.1000
41825W        W50625  19.719   0.129  21.464  0.2496 -0.0406  0.1471
41826W        W50626   3.801   6.150  22.913 -0.0611 -0.0133 -0.0154
41827W        W50627  12.846   4.358  27.941  0.0241  0.1517  0.0796
41828W        W50628  21.900   0.663  31.733  0.0420 -0.0368 -0.0458
41829W        W50629  26.248   5.170  34.561  0.1640 -0.0705 -0.2090
41830W        W50630  14.689   3.092   2.203 -0.3556 -0.1889  0.1835
41831W        W50631  10.615   0.744   7.630 -0.2825 -0.3037  0.1094
41832W        W50632  15.027   3.772  30.789 -0.0220 -0.2170  0.0343
41833W        W50633  20.487   4.526   7.482 -0.0808  0.2183  0.2120
41834W        W50634   3.726   5.872   1.023  0.2560  0.2931  0.3234
41835W        W50635  15.514   1.144   9.150  0.1774 -0.0783 -0.1015
41836W        W50636   4.481   4.415  31.075  0.0173  0.2271  0.0920
41837W        W50637   9.744   5.663   8.057 -0.0051 -0.0049 -0.1868
41838W        W50638   4.727   3.676   2.436  0.1441 -0.3679  0.1248
41839W        W50639   1.724   3.540  24.635  0.0142  0.1151 -0.2360
41840W        W50640  11.075   2.715  29.406 -0.2496 -0.0596  0.0760
41841W        W50641  24.540   2.786   2.454 -0.0446 -0.0734  0.2066
41842W        W50642  13.345   1.622   2.297  0.0856  0.0155  0.0711
41843W        W50643   8.209   4.048  35.863 -0.1674  0.1266  0.0971
41844W        W50644  16.710   1.115  24.523 -0.0097 -0.1127 -0.0714
41845W        W50645  12.846   3.265   7.446  0.1451  0.0692  0.3256
41846W        W50646  25.589   2.782  29.489 -0.1631  0.2455 -0.1170
41847W        W50647  11.429   6.378  14.935  0.4667 -0.1690  0.1966
41848W        W50648   6.772   0.919   6.571 -0.0882  0.4907 -0.0040
41849W        W50649  16.734   6.407   3.028 -0.2695  0.0218  0.0012
41850W        W50650  10.861   5.252   9.074  0.2666  0.2163 -0.0966
41851W        W50651   7.811   1.184  35.928 -0.5116  0.4126  0.1021
41852W        W50652  16.362   0.253  24.582  0.0620  0.1577 -0.1568
41853W        W50653   1.463   2.068   8.876 -0.2154 -0.1355  0.1530
41854W        W50654   5.164   3.888   2.505 -0.0640 -0.3153 -0.1494
41855W        W50655  13.375   3.521  27.969  0.0308  0.0541  0.1171
41856W        W50656  24.691   3.234  14.195 -0.0714 -0.2520  0.0735
41857W        W50657   8.575   2.579  23.840  0.2586 -0.0024  0.1346
41858W        W50658  24.616   0.411  13.178 -0.0702  0.4953 -0.0576
41859W        W50659  22.680   5.429  33.524 -0.1871  0.1332 -0.1129
41860W        W50660   6.851   2.249  21.431  0.0122 -0.2462  0.2564
41861W        W50661  24.746   1.977  22.644  0.0842  0.0319  0.1234
41862W        W50662   6.490   1.429  33.393  0.2160 -0.0510 -0.1505
41863W        W50663  13.631   3.892  14.624  0.2462  0.3241  0.3896
41864W        W50664   8.030   6.471  33.199  0.0451  0.4864  0.2788
41865W        W50665  18.283   3.342  22.583 -0.3503 -0.2925  0.1861
41866W        W50666  15.088   1.355  26.667 -0.1979  0.0363 -0.3456
41867W        W50667  21.483   5.394   4.978 -0.0501 -0.2649 -0.2823
41868W        W50668  18.570   3.562  21.692  0.2690 -0.2558 -0.1621
41869W        W50669   0.313   5.342  10.771 -0.1037 -0.1913  0.2083
41870W        W50670   4.558   0.728  21.030  0.2364  0.0870  0.0545
41871W        W50671  11.816   0.865  13.617 -0.3335 -0.1180 -0.1382
41872W        W50672  11.417   2.204  10.338  0.2097  0.2630  0.0409
41873W        W50673  11.879   0.544  24.754 -0.1968 -0.2187  0.3801
41874W        W50674  12.063   4.987   6.854  0.1309  0.0111  0.4354
41875W        W50675  23.028   0.824  33.720  0.0927 -0.0008  0.0596
41876W        W50676   5.390   4.934   3.952  0.0144 -0.0366 -0.1773
41877W        W50677  22.060   5.694  32.236  0.3971  0.2654 -0.0674
41878W        W50678   9.884   0.308  10.721 -0.0141 -0.1147  0.3300
41879W        W50679  20.397   5.460   7.243 -0.2854 -0.1712  0.0924
41880W        W50680  19.333   1.536  25.443  0.0483  0.2133 -0.3727
41881W        W50681  24.280   0.115   6.550  0.0987  0.3136  0.1277
41882W        W50682  26.386   1.366   4.144  0.2688  0.1660  0.1332
41883W        W50683  23.292   5.915  34.993 -0.1398 -0.0893  0.1574
41884W        W50684  14.711   6.430  13.840 -0.2564 -0.3055 -0.0175
41885W        W50685  14.842   0.617  30.480 -0.0100 -0.1172  0.1088
41886W        W50686  19.526   2.553  23.697 -0.3291 -0.0614  0.0775
41887W        W50687  18.980   3.404   8.687  0.1138  0.4797  0.0505
41888W        W50688   4.756   1.284   3.324  0.0364 -0.0241  0.4358
41889W        W50689   5.065   4.574  23.540  0.1043 -0.0820 -0.1233
41890W        W50690  17.794   0.073  20.406  0.0799  0.2136  0.0440
41891W        W50691  10.211   3.079  27.728  0.0677  0.1930 -0.3387
41892W        W50692  19.826   3.191   3.897 -0.1566  0.1532  0.1861
41893W        W50693  13.740   2.940  22.714 -0.2048  0.0740 -0.0473
41894W        W50694  14.082   1.022  29.301 -0.1733 -0.2908 -0.0672
41895W        W50695  23.059   5.118   7.747  0.0737 -0.1260  0.0512
41896W        W50696  21.839   1.004  10.798 -0.2040  0.2153 -0.0399
41897W        W50697  22.546   3.167   4.922 -0.2612 -0.5513  0.0712
41898W        W50698  10.028   5.360  31.418  0.1532 -0.0603 -0.2766
41899W        W50699   5.450   5.411   3.590  0.0102 -0.0104 -0.0097
41900W        W50700   3.340   0.502  25.247  0.1114  0.2862 -0.1351
41901W        W50701   5.260   1.759   9.469 -0.0936 -0.1494 -0.0098
41902W        W50702  17.515   2.941   0.750  0.1344  0.0065  0.1999
41903W        W50703   0.937   1.418  22.019 -0.3090  0.3769  0.0449
41904W        W50704  20.089   0.996  14.326  0.0877 -0.3235 -0.0693
41905W        W50705  12.531   6.450  14.132 -0.1936 -0.3339  0.0217
41906W        W50706  17.750   4.666   4.415  0.1521  0.1639 -0.2558
41907W        W50707   8.663   2.232   2.910  0.1716  0.0923  0.0973
41908W        W50708  25.879   2.161   0.196 -0.0714  0.0946 -0.2633
41909W        W50709  12.348   0.955  28.297  0.2150  0.1779 -0.1474
41910W        W50710  12.489   1.781  27.515 -0.0092  0.0498 -0.0791
41911W        W50711   0.377   4.005   3.386 -0.0065 -0.0331  0.3503
41912W        W50712  15.320   2.789  26.471  0.1124  0.0209 -0.0098
41913W        W50713  17.779   0.158   0.144  0.0276 -0.0385  0.1097
41914W        W50714  20.698   3.932   5.210 -0.0849 -0.2332 -0.4173
41915W        W50715  20.374   6.339   2.660  0.3879  0.1718  0.1418
41916W        W50716  24.570   1.605  31.097  0.1520 -0.0233  0.2801
41917W        W50717  26.146   0.580   1.629 -0.0404  0.0373  0.0730
41918W        W50718  13.710   4.087  28.241 -0.0239 -0.0133  0.1697
41919W        W50719   2.769   3.430  13.838 -0.0096 -0.3638  0.1641
41920W        W50720  10.326   1.471   2.881 -0.0608 -0.0287 -0.3756
41921W        W50721   9.123   2.819   4.015  0.0722  0.1637 -0.4545
41922W        W50722  22.757   3.148  34.883 -0.2164  0.1142  0.2760
41923W        W50723  16.328   5.606   8.540 -0.0228  0.0069 -0.0900
41924W        W50724  11.709   2.673   0.889 -0.0258 -0.1488 -0.0794
41925W        W50725  26.126   5.287  32.255 -0.1224  0.2156  0.4185
41926W        W50726   9.623   5.236   7.786  0.2273 -0.1475 -0.0461
41927W        W50727   8.633   3.504   1.434  0.0567  0.0994  0.3067
41928W        W50728  17.927   3.110   7.382 -0.3613 -0.3085 -0.1391
41929W        W50729  22.559   5.969   1.253 -0.1528  0.1185 -0.0450
41930W        W50730   7.570   6.485   6.625 -0.0097 -0.0762 -0.1133
41931W        W50731  24.727   0.555  29.451  0.1577 -0.2141  0.2383
41932W        W50732  24.519   0.831  32.895  0.1795 -0.0146 -0.0422
41933W        W50733   2.189   1.992   1.119  0.1342  0.0596  0.1802
41934W        W50734  22.054   2.128  35.757  0.0792  0.1461  0.0330
41935W        W50735  11.477   3.789   0.031  0.0156  0.0645  0.0992
41936W        W50736  19.113   0.951  31.060  0.1254 -0.0867 -0.1510
41937W        W50737   1.295   2.103  29.245  0.1252  0.0794 -0.0510
41938W        W50738  11.921   1.853  33.938  0.0873 -0.1105  0.0098
41939W        W50739   2.125   3.898   8.435  0.0390  0.0068 -0.0268
41940W        W50740   9.450   1.071   5.705  0.3801 -0.2176  0.1971
41941W        W50741  13.980   5.757  13.968 -0.0537  0.1747  0.3817
41942W        W50742   5.716   6.482  14.649 -0.1736 -0.1395 -0.0433
41943W        W50743  12.016   3.477  28.814  0.0009  0.0813 -0.1030
41944W        W50744  11.167   3.677   8.654  0.0646  0.2608  0.0627
41945W        W50745  25.030   2.338   0.382 -0.0553 -0.0495 -0.0359
41946W        W50746  14.907   6.043  34.802 -0.1018  0.0469  0.0753
41947W        W50747   5.589   4.286  33.208  0.0717  0.0741 -0.2071
41948W        W50748   0.809   0.331  32.153  0.1806 -0.4071 -0.3539
41949W        W50749  11.367   4.148  32.024  0.3240  0.1204  0.1489
41950W        W50750  12.363   0.597   0.582 -0.1827 -0.0008 -0.0763
41951W        W50751  14.928   5.829  25.296  0.0615  0.1457 -0.0751
41952W        W50752   5.845   0.575   9.042 -0.1767  0.3165 -0.2276
41953W        W50753   7.904   5.474  29.839  0.1868 -0.1021  0.0295
41954W        W50754  17.861   2.544  28.226  0.1724 -0.0476  0.0083
41955W        W50755  24.885   3.309  23.109  0.1604 -0.3851 -0.0887
41956W        W50756  26.340   1.999   7.448 -0.0241 -0.2413  0.3343
41957W        W50757  17.495   0.338  33.623 -0.0638  0.0024 -0.2532
41958W        W50758   5.767   0.790   0.927 -0.4208  0.3850  0.5643
41959W        W50759  20.687   1.624  12.431  0.1021  0.0726 -0.2006
41960W        W50760   4.627   2.256  27.678 -0.0334  0.0416  0.0581
41961W        W50761  23.866   0.294  34.118  0.2603  0.0595  0.0239
41962W        W50762  24.085   1.167   4.962 -0.0694 -0.1364  0.0828
41963W        W50763   0.520   1.231  21.463  0.3870 -0.3878  0.1599
41964W        W50764   4.638   3.594  22.948  0.2370  0.0464  0.1241
41965W        W50765  14.291   1.474  25.475  0.1245 -0.1420  0.1094
41966W        W50766   4.208   0.320   8.989  0.0816  0.0835 -0.1160
41967W        W50767   8.378   2.601   4.290  0.2174 -0.1541  0.1508
41968W        W50768   9.829   6.510   0.169 -0.2429 -0.0834  0.4182
41969W        W50769   2.638   2.344   0.911 -0.0727  0.0182 -0.0257
41970W        W50770   5.611   5.977  14.438 -0.3929 -0.0530 -0.0740
41971W        W50771  13.612   3.068  29.429 -0.0529 -0.2358  0.1305
41972W        W50772   5.236   5.216  28.483  0.0675  0.1275  0.0974
41973W        W50773  20.743   6.494   4.083 -0.0052  0.1834  0.4930
41974W        W50774  26.322   2.974  20.470 -0.1943 -0.3534  0.0696
41975W        W50775  10.510   3.750   7.049  0.0129 -0.1850  0.3834
41976W        W50776   6.283   4.287  21.503  0.1028  0.1509 -0.0866
41977W        W50777   9.797   2.371  28.946 -0.1055  0.3137 -0.1025
41978W        W50778  25.272   0.893  32.435 -0.0922 -0.0018 -0.1283
41979W        W50779   4.232   4.504  10.644  0.1216 -0.0096  0.0872
41980W        W50780  21.051   5.686  24.826 -0.1678 -0.1448 -0.3220
41981W        W50781  19.522   4.065   4.322  0.2200  0.0270  0.1568
41982W        W50782  13.743   1.395  30.966 -0.2314 -0.0262  0.3774
41983W        W50783  25.223   5.370  34.853 -0.0303 -0.1248  0.0419
41984W        W50784   7.567   2.399  11.553 -0.0558  0.0134 -0.0821
41985W        W50785  20.191   2.375   0.575  0.2201  0.1397 -0.0309
41986W        W50786  17.723   5.657   2.266 -0.1585 -0.3696  0.2213
41987W        W50787  14.310   5.011  11.197  0.1467 -0.1003 -0.1478
41988W        W50788   8.738   4.554   6.635 -0.0227 -0.1349  0.0312
41989W        W50789   6.639   6.465  24.271 -0.0798 -0.0959  0.0588
41990W        W50790  11.919   0.410  30.423 -0.0112  0.0264  0.1066
41991W        W50791  10.670   2.493  11.101 -0.0001 -0.0472 -0.0067
41992W        W50792  23.533   2.161  32.470  0.2527 -0.0068  0.0661
41993W        W50793  20.672   2.366  26.756 -0.1017 -0.1103  0.0566
41994W        W50794   7.746   4.479   0.784  0.1988  0.0394 -0.1521
41995W        W50795  22.410   1.969   4.013 -0.1827  0.0330 -0.2077
41996W        W50796   8.790   1.815  31.039  0.2760 -0.2128  0.1373
41997W        W50797  19.936   2.810   9.149  0.0422 -0.0387  0.3571
41998W        W50798  21.453   2.188  14.287 -0.0623 -0.1221  0.0774
41999W        W50799   5.924   0.188  15.228 -0.1640  0.0441 -0.1427
42000W        W50800  12.979   2.716   3.136 -0.2375 -0.0962 -0.2880
42001W        W50801   9.050   0.103  28.482  0.3602 -0.2193 -0.1322
42002W        W50802   2.976   1.198  27.790  0.2599  0.2149  0.0246
42003W        W50803  15.061   2.006   9.785  0.2773 -0.1261 -0.1240
42004W        W50804   6.772   3.073  24.280  0.1380  0.3328  0.0250
42005W        W50805  21.355   6.331  28.600  0.0174 -0.0438  0.1048
42006W        W50806  17.776   2.645   1.584  0.2750 -0.0122 -0.0931
42007W        W50807  15.719   6.009   5.717  0.2346 -0.2609  0.0543
42008W        W50808  17.370   1.903  24.010 -0.1187 -0.0895 -0.0528
42009W        W50809   6.279   0.205  31.202 -0.1061 -0.2118  0.0297
42010W        W50810  10.564   3.907   0.231  0.3971  0.1560  0.1643
42011W        W50811   7.935   1.713  13.252 -0.1301  0.1475  0.0942
42012W        W50812  12.993   6.582  34.206 -0.1063  0.1556  0.2141
42013W        W50813  24.597   6.246  35.617 -0.1606 -0.0709 -0.4226
42014W        W50814   0.097   0.616  29.878  0.3311 -0.0647  0.2352
42015W        W50815   0.380   0.980  31.567  0.1102 -0.1284  0.0337
42016W        W50816   0.451   2.745  21.444 -0.3095 -0.0217  0.0704
42017W        W50817  16.404   3.519   9.088 -0.1427  0.1473  0.0819
42018W        W50818  10.399   0.505  10.594 -0.0313 -0.1438 -0.4076
42019W        W50819  16.482   0.397  21.235  0.1189 -0.3099 -0.0869
42020W        W50820   4.283   0.028   9.473  0.3136 -0.3171 -0.0173
42021W        W50821  12.974   3.430  29.036  0.0372  0.3123  0.0141
42022W        W50822  16.618   2.621   6.022 -0.0796 -0.0167 -0.0464
42023W        W50823  17.712   2.667   9.619  0.2167 -0.0939  0.0053
42024W        W50824  13.408   5.205  14.571 -0.4602 -0.0195  0.1925
42025W        W50825  14.127   5.402   0.833  0.1468 -0.1281  0.1426
42026W        W50826   0.864   5.337  20.819  0.0251  0.0327  0.2355
42027W        W50827  10.375   5.152  21.564 -0.2185 -0.0751 -0.0674
42028W        W50828   0.623   1.682   3.670  0.0971  0.1560  0.0541
42029W        W50829  19.755   2.622  14.322  0.0190 -0.0163  0.1024
42030W        W50830  13.398   2.507  14.916 -0.0326 -0.2038 -0.0030
42031W        W50831  23.472   1.554   8.026  0.0049 -0.1587 -0.0579
42032W        W50832  11.771   0.371  14.823 -0.1116 -0.0306 -0.4510
42033W        W50833  14.677   2.368   5.704 -0.0191  0.0767  0.0052
42034W        W50834   4.106   0.193  25.615  0.1868  0.1084  0.0629
42035W        W50835   8.187   4.782   7.812 -0.1879 -0.0300 -0.1030
42036W        W50836   9.159   3.551  10.254  0.1764  0.0069 -0.0681
42037W        W50837  12.661   1.158  30.478  0.1505  0.1775 -0.2769
42038W        W50838   4.772   5.270  29.796  0.1178 -0.0359  0.0328
42039W        W50839  11.884   2.269  10.173 -0.2040 -0.0860  0.0400
42040W        W50840   6.184   5.836   3.173  0.0005  0.1425 -0.2676
42041W        W50841   1.156   3.835  14.796  0.2882  0.4202 -0.4549
42042W        W50842   6.855   3.697   4.396 -0.0352 -0.2085  0.0317
42043W        W50843  14.459   6.557   7.714 -0.0915  0.0738 -0.1547
42044W        W50844   5.354   2.795  10.240 -0.1821 -0.0678 -0.2183
42045W        W50845  11.687   1.778   5.859  0.2083  0.0247 -0.1004
42046W        W50846  17.600   0.629  32.910  0.1981 -0.3277  0.1465
42047W        W50847   8.964   3.345   5.806 -0.2489  0.0430  0.1598
42048W        W50848  21.038   1.895  12.816  0.0796 -0.0580 -0.0922
42049W        W50849  21.789   0.190  35.300 -0.0774 -0.0303 -0.2857
42050W        W50850  24.964   4.183  27.173 -0.0749  0.0398 -0.0493
42051W        W50851   0.356   1.633  32.950  0.0591  0.0617 -0.2048
42052W        W50852   5.687   0.150   9.743  0.2162 -0.1807 -0.0663
42053W        W50853  10.259   0.051   2.808 -0.1905 -0.2334 -0.2069
42054W        W50854  20.203   3.328  10.861  0.0892 -0.3067  0.0405
42055W        W50855  10.773   5.802  22.421 -0.1699 -0.1255 -0.1337
42056W        W50856   1.847   3.125  27.922 -0.0892  0.1429 -0.1748
42057W        W50857  20.264   5.659  28.839 -0.0217 -0.0906  0.1054
42058W        W50858  12.284   3.293  35.289  0.1133  0.1364  0.1828
42059W        W50859  25.432   1.830   9.642  0.1877  0.1615  0.2514
42060W        W50860   8.871   0.082   4.067 -0.3624 -0.2108  0.1704
42061W        W50861   2.948   5.686  35.377  0.3122 -0.0358 -0.0304
42062W        W50862  17.624   3.299  10.865 -0.3047  0.1373 -0.2386
42063W        W50863   8.674   1.676  22.039  0.5279 -0.2450  0.1952
42064W        W50864   1.838   4.953  27.512  0.3821  0.2764  0.0305
42065W        W50865  15.418   6.090   1.222 -0.1541  0.1702  0.3182
42066W        W50866   3.350   1.457  14.510 -0.0876 -0.1162  0.0007
42067W        W50867  13.464   6.095  22.117 -0.0238  0.0253  0.2205
42068W        W50868   7.131   2.412  32.952  0.2316 -0.0000 -0.0603
42069W        W50869   8.732   0.596  24.499  0.1627  0.1100  0.0354
42070W        W50870  24.990   6.247  10.355 -0.0866 -0.1407 -0.1794
42071W        W50871   3.172   3.400   2.996 -0.2804 -0.0555 -0.2005
42072W        W50872   1.315   6.530  26.390 -0.0233 -0.0022 -0.0831
42073W        W50873   1.654   4.627  15.211 -0.0081 -0.1157 -0.0779
42074W        W50874  23.655   0.555   9.186 -0.1773 -0.0735 -0.2761
42075W        W50875  25.452   0.358  23.147  0.0656 -0.1628 -0.0397
42076W        W50876  15.691   3.598  14.038  0.2205 -0.0228  0.0743
42077W        W50877  24.660   3.575  20.696 -0.0512 -0.3124 -0.0296
42078W        W50878  13.403   2.847  11.843  0.0568 -0.0997  0.0331
42079W        W50879  22.096   1.250  31.033  0.1648  0.2494  0.2205
42080W        W50880   1.597   0.254  29.857 -0.1347 -0.1236 -0.1764
42081W        W50881   6.422   6.197   3.915  0.2049 -0.2992  0.0379
42082W        W50882   1.497   4.293   4.962  0.1503 -0.0446 -0.0905
42083W        W50883   9.526   5.899  15.558 -0.1664  0.0756  0.0951
42084W        W50884  26.122   2.657  32.032 -0.2398  0.1239 -0.0752
42085W        W50885  12.397   2.110   3.237  0.0603 -0.1757 -0.1581
42086W        W50886   8.368   3.620  34.932  0.3129  0.2643 -0.1243
42087W        W50887  13.282   4.352   0.492  0.0312 -0.1581  0.1780
42088W        W50888   8.185   1.880  11.745  0.0548 -0.2400 -0.2304
42089W        W50889   4.261   5.214   4.574  0.0832 -0.2534  0.0848
42090W        W50890   4.009   0.279  24.487  0.1165  0.0478  0.0109
42091W        W50891  12.305   4.233  14.585 -0.0529  0.1128 -0.2667
42092W        W50892  19.497   3.577  13.583  0.0852  0.0170  0.1395
42093W        W50893   3.635   1.420  35.101 -0.0625 -0.0650  0.5827
42094W        W50894  13.698   3.860   1.828 -0.1050  0.0886 -0.2380
42095W        W50895   6.451   4.266   5.761 -0.1466  0.1224 -0.2462
42096W        W50896  18.153   1.483   0.373 -0.2387  0.2070  0.2988
42097W        W50897   3.473   5.405   6.718  0.0032 -0.1793  0.0105
42098W        W50898   7.992   1.539  22.383  0.3919  0.2134  0.0579
42099W        W50899   2.571   0.569  30.958 -0.1237  0.0306  0.0730
42100W        W50900  15.460   3.032  33.586  0.0839 -0.0317  0.1090
42101W        W50901  24.879   1.891  11.909 -0.3497 -0.2120 -0.1040
42102W        W50902   9.086   5.411  10.496 -0.0061 -0.0585 -0.0348
42103W        W50903  19.999   1.152  20.207 -0.0482  0.0912  0.0278
42104W        W50904  15.855   1.052  28.246 -0.3452  0.1365  0.3175
42105W        W50905   8.292   3.152  33.875  0.2373 -0.1108 -0.0649
42106W        W50906   6.209   1.913  14.328  0.1468  0.2226  0.3459
42107W        W50907  13.123   3.216  32.286 -0.0527 -0.0200  0.1801
42108W        W50908   8.071   4.682  31.372 -0.0399  0.0697  0.4063
42109W        W50909  13.679   1.718   4.760  0.0969  0.1089  0.0794
42110W        W50910  10.137   1.618  12.878  0.2558 -0.2498  0.0508
42111W        W50911   2.060   2.485  19.988 -0.0001  0.3981 -0.2486
42112W        W50912  12.638   5.255  15.282 -0.0363 -0.3375  0.2594
42113W        W50913  19.273   2.328  10.662 -0.2021 -0.0088 -0.2561
42114W        W50914  24.146   3.212  27.411 -0.0325  0.1057 -0.0638
42115W        W50915  23.743   2.875  34.920  0.2879 -0.1063  0.0430
42116W        W50916  16.429   2.553   4.608 -0.1814 -0.2392  0.0852
42117W        W50917  26.185   2.789   6.425  0.2307 -0.3593  0.2074
42118W        W50918  26.056   2.778  13.399  0.3395  0.0789  0.0358
42119W        W50919  25.455   5.310   0.837 -0.1056  0.1922  0.0294
42120W        W50920  24.692   6.586   7.283  0.1212  0.2941  0.1369
42121W        W50921  15.093   4.925   7.855 -0.3033 -0.0019  0.0571
42122W        W50922  15.427   2.724  13.674  0.2451  0.0574  0.1146
42123W        W50923  14.061   3.429  29.980 -0.1268 -0.1111 -0.0942
42124W        W50924   8.072   5.859  27.362 -0.0446 -0.0088 -0.1702
42125W        W50925   4.553   0.359   7.870 -0.0471  0.3066 -0.0741
42126W        W50926  15.457   3.175  31.754  0.1024 -0.0645  0.0004
42127W        W50927  19.642   4.494   2.203  0.0896  0.1643 -0.1107
42128W        W50928   5.818   1.113  28.548  0.0308  0.0915  0.3219
42129W        W50929  23.822   3.481   6.319 -0.0080  0.2799 -0.1024
42130W        W50930   5.550   0.766  34.646  0.2558  0.1969  0.1926
42131W        W50931   6.158   0.595  24.015  0.0842 -0.1333  0.0445
42132W        W50932  19.856   5.828   0.714  0.1359 -0.1230  0.2534
42133W        W50933   0.499   6.241   9.667 -0.0033  0.1718  0.0967
42134W        W50934  23.066   3.941  30.127 -0.1072 -0.3262  0.0599
42135W        W50935  24.759   2.429  10.794 -0.1237  0.0422 -0.2237
42136W        W50936  10.261   3.897  14.254  0.0906 -0.0996  0.2177
42137W        W50937   3.661   1.296   2.624 -0.0139 -0.0871 -0.1267
42138W        W50938  11.126   6.205   4.000  0.3195 -0.0990 -0.3399
42139W        W50939   5.377   2.796  34.132 -0.0064 -0.0310 -0.3346
42140W        W50940   4.300   6.356   6.685  0.2363  0.0071 -0.1491
42141W        W50941   3.144   4.404  29.423  0.1772 -0.2594  0.0392
42142W        W50942  21.106   1.713  27.505  0.0875 -0.1363  0.0920
42143W        W50943   7.899   4.764  35.454  0.2641  0.2621 -0.1301
42144W        W50944  12.294   0.875  34.101  0.4682  0.1002  0.0306
42145W        W50945  10.217   0.227  20.907 -0.0612 -0.2099 -0.2580
42146W        W50946  12.961   1.123   0.543 -0.0042 -0.0379 -0.0993
42147W        W50947   8.657   1.433  36.180 -0.0784 -0.0390 -0.0063
42148W        W50948  13.003   2.184  14.277 -0.0557 -0.0800 -0.0796
42149W        W50949  10.552   6.400  22.379 -0.0595  0.0238 -0.3701
42150W        W50950  21.211   6.320  35.902 -0.0355  0.0867  0.0071
42151W        W50951   4.243   1.207   6.517 -0.1129  0.0619 -0.1402
42152W        W50952  20.767   3.594   0.334  0.0238 -0.5242 -0.0605
42153W        W50953   2.336   5.049  22.886 -0.3320  0.1515  0.1718
42154W        W50954  19.999   6.250   5.813 -0.0699  0.5220 -0.0938
42155W        W50955  25.392   2.168  20.823  0.1122  0.0038  0.0223
42156W        W50956  26.097   2.802   5.259  0.0367 -0.1200  0.0876
42157W        W50957   2.980   1.132  10.114 -0.1209 -0.0308 -0.1840
42158W        W50958   4.199   3.779  34.990  0.0076  0.0415  0.2294
42159W        W50959   6.060   0.639   7.110  0.0026 -0.4331 -0.1463
42160W        W50960  20.636   3.612   2.211 -0.1173 -0.0787  0.0156
42161W        W50961  16.748   5.250   0.817 -0.0808 -0.0268  0.0562
42162W        W50962  10.051   5.612   8.446  0.1837  0.0658  0.1972
42163W        W50963  15.929   0.453  34.316  0.0066 -0.1058  0.0385
42164W        W50964  13.683   1.577  34.745 -0.0218  0.0083  0.3826
42165W        W50965   8.564   3.426   5.449 -0.0913  0.2592 -0.1422
42166W        W50966  14.495   4.187   3.259  0.0410  0.0551 -0.3530
42167W        W50967   4.322   0.978   6.027  0.3046 -0.1173 -0.0349
42168W        W50968  26.101   4.825  21.588 -0.0996  0.0677 -0.3255
42169W        W50969  20.081   2.754   0.132 -0.0851 -0.2891 -0.0341
42170W        W50970   5.638   2.602  20.483 -0.0450  0.1375 -0.2385
42171W        W50971  23.418   5.240   3.093  0.1294  0.0213  0.3098
42172W        W50972   5.481   6.003  28.162 -0.2684  0.1564  0.1654
42173W        W50973  24.797   0.817  34.156 -0.0599  0.0217 -0.0353
42174W        W50974  22.898   0.723  14.450 -0.0779 -0.0959 -0.2332
42175W        W50975  10.410   2.867   8.749  0.0337  0.2585 -0.1497
42176W        W50976   0.906   0.123  27.813  0.0379  0.3095 -0.0552
42177W        W50977   8.851   1.557  11.510  0.0223  0.1594 -0.1355
42178W        W50978   7.656   1.806  21.503 -0.0115  0.0508  0.2341
42179W        W50979  17.347   6.360  23.757  0.4534 -0.0124 -0.1126
42180W        W50980  12.066   4.038  34.539 -0.0544 -0.3182 -0.2279
42181W        W50981  16.290   5.038   9.193 -0.0902  0.0450 -0.1467
42182W        W50982   0.125   4.290  22.743  0.1854  0.1787 -0.0657
42183W        W50983  26.415   5.095   3.368 -0.2031 -0.1372 -0.0121
42184W        W50984  15.735   2.056   4.876  0.3721  0.1034  0.2534
42185W        W50985  13.809   1.080  31.384  0.0836  0.1654 -0.1554
42186W        W50986  23.177   0.726  22.199 -0.0158  0.0160  0.0673
42187W        W50987   8.859   1.505  10.303 -0.0735  0.0343 -0.0824
42188W        W50988  22.797   4.406   4.013 -0.0297 -0.1917  0.0321
42189W        W50989  19.556   1.649   9.338  0.1148 -0.1051 -0.0957
42190W        W50990   7.727   1.602  10.878  0.0832  0.1121  0.2365
42191W        W50991  18.845   1.384  11.674  0.0127 -0.1027  0.2355
42192W        W50992   7.504   3.055  26.855  0.0019  0.0489  0.3121
42193W        W50993   7.764   1.081  27.272 -0.1021 -0.0103 -0.3613
42194W        W50994  15.787   2.853  12.962 -0.3197  0.0454  0.0827
42195W        W50995  25.484   0.425  28.249  0.0980 -0.4039 -0.0308
42196W        W50996   8.711   1.954  30.586 -0.0334  0.2136  0.0610
42197W        W50997   2.300   5.075  10.978  0.1995 -0.0819 -0.0656
42198W        W50998   2.603   3.894  20.627 -0.2926  0.1831 -0.0911
42199W        W50999  14.568   1.490   8.299  0.1067  0.0822 -0.2197
42200W        W51000  11.508   4.417  25.467  0.3859  0.1759 -0.1131
42201W        W51001  19.587   3.090   7.986 -0.0644 -0.0394 -0.0155
42202W        W51002   5.601   0.480  12.020 -0.3177 -0.2748  0.0833
42203W        W51003   2.703   4.505   1.949  0.0384  0.1882  0.1442
42204W        W51004  24.223   1.863   9.293  0.0244  0.0794 -0.1496
42205W        W51005  14.971   4.419  27.330 -0.1542  0.1467 -0.2876
42206W        W51006  22.395   2.505   9.204  0.0436  0.3350  0.1910
42207W        W51007   4.728   3.461   3.618 -0.0664  0.0000  0.1465
42208W        W51008  25.413   5.430   8.581 -0.0993 -0.1618  0.1063
42209W        W51009  25.930   1.575   4.096 -0.1927 -0.1233  0.0355
42210W        W51010  24.457   1.926   7.911 -0.2232 -0.0080 -0.0377
42211W        W51011   7.929   3.152   9.023 -0.1227 -0.0759 -0.2565
42212W        W51012   2.524   1.402  30.533  0.0704  0.0467 -0.1945
42213W        W51013   0.714   1.074  24.605  0.1652 -0.3669  0.0153
42214W        W51014  15.929   3.260  35.962  0.2044  0.2464  0.0442
42215W        W51015  19.276   1.282  26.063 -0.0334 -0.2878  0.0985
42216W        W51016  15.823   4.662  10.267 -0.2874 -0.0702 -0.2192
42217W        W51017   4.379   5.379   0.177 -0.1609  0.1738 -0.1227
42218W        W51018   8.952   4.172  28.756 -0.1736 -0.1554  0.1789
42219W        W51019  24.636   1.877  26.689  0.1186  0.0854 -0.1541
42220W        W51020  16.760   3.813  15.154 -0.0935  0.1543 -0.0969
42221W        W51021  14.317   0.503  10.537  0.0961 -0.0630 -0.2667
42222W        W51022   3.546   3.946  10.534 -0.2130  0.1724  0.4252
42223W        W51023  16.132   3.399  13.827 -0.2745 -0.2318 -0.0583
42224W        W51024   9.449   1.570  24.295  0.1555  0.3908 -0.1161
42225W        W51025  22.310   2.814   8.773 -0.1234 -0.2431  0.2463
42226W        W51026   5.977   0.138  24.404  0.1590  0.1482 -0.4517
42227W        W51027  11.087   0.086  33.992  0.2522  0.0969  0.0476
42228W        W51028   4.317   3.941   4.715  0.2658  0.0812 -0.2942
42229W        W51029   5.681   1.262   2.870 -0.0415 -0.1876  0.1381
42230W        W51030   8.089   4.648  29.286  0.0008  0.0350  0.0614
42231W        W51031   1.420   1.434  21.786  0.1426 -0.0347 -0.0286
42232W        W51032   3.011   2.610   4.518 -0.1288  0.0359  0.1416
42233W        W51033   0.673   2.056  34.363 -0.2019 -0.0003  0.1368
42234W        W51034  10.201   4.674  34.337  0.2093  0.1839  0.1533
42235W        W51035  14.282   4.398  29.034 -0.2496  0.1990 -0.2669
42236W        W51036  23.760   3.205  10.515 -0.1789 -0.1958 -0.0529
42237W        W51037  21.228   6.474  22.692 -0.0925 -0.0486 -0.1483
42238W        W51038  10.513   1.706   5.240 -0.0620  0.1186  0.0987
42239W        W51039  15.020   5.083  29.971  0.0810 -0.2717  0.2406
42240W        W51040  11.779   0.100  24.379 -0.1817  0.0699 -0.0187
42241W        W51041   0.766   0.387  11.734 -0.0183  0.2658  0.0726
42242W        W51042  24.879   5.384   6.986 -0.1475  0.1084 -0.0806
42243W        W51043   2.596   0.584   3.697  0.0781  0.0247  0.2192
42244W        W51044   1.594   5.754  31.942  0.1238 -0.0462  0.3208
42245W        W51045   2.942   1.949  21.578 -0.1962 -0.0386  0.2762
42246W        W51046   5.759   5.264  25.692 -0.0234  0.2450  0.2293
42247W        W51047   6.857   5.106  31.105 -0.1475  0.3407  0.0672
42248W        W51048  25.004   5.238  35.922 -0.3425 -0.2649 -0.2200
42249W        W51049  19.293   4.640  27.242  0.1523 -0.3840  0.0542
42250W        W51050  18.940   2.600   6.079  0.1001 -0.0025 -0.0716
42251W        W51051  25.429   4.084   8.890 -0.0634 -0.2391 -0.0016
42252W        W51052  12.396   4.919  24.795  0.0502  0.0140  0.3564
42253W        W51053  20.748   1.514   2.600  0.1660 -0.1526  0.0565
42254W        W51054  16.581   6.188   1.893  0.3596 -0.0192  0.1585
42255W        W51055  16.402   0.136  28.991 -0.2389  0.2284  0.2136
42256W        W51056  26.402   5.412  25.566  0.0067  0.0081  0.3194
42257W        W51057   2.877   0.524   6.935 -0.3112 -0.2165 -0.3181
42258W        W51058   8.380   2.566   2.058 -0.0361 -0.1392 -0.1722
42259W        W51059  12.845   2.532  27.312  0.0149 -0.0507  0.0312
42260W        W51060  17.502   1.483  22.343 -0.4557 -0.3135  0.5857
42261W        W51061  24.310   5.454  10.301  0.0926  0.2570 -0.0715
42262W        W51062   3.406   2.388   1.995  0.0247 -0.0776 -0.2214
42263W        W51063  25.734   1.906  13.070  0.2223 -0.0921 -0.2365
42264W        W51064  24.767   5.515  21.162  0.0486 -0.1856 -0.0216
42265W        W51065  21.493   0.836  29.606  0.1352  0.0768 -0.1049
42266W        W51066  22.200   6.293  35.408 -0.2755 -0.0461 -0.1094
42267W        W51067  12.572   5.742  33.427  0.1591  0.1218  0.2727
42268W        W51068   6.608   3.122  35.770  0.2700  0.0524  0.0269
42269W        W51069  13.913   0.046   3.093  0.0669  0.1179 -0.1877
42270W        W51070  18.759   4.577  34.152 -0.1884 -0.1022  0.1766
42271W        W51071   1.822   5.194  31.333 -0.5693 -0.0339  0.0008
42272W        W51072  25.520   1.470   2.804  0.2838  0.0463 -0.0484
42273W        W51073  16.506   1.368  32.161  0.1403 -0.2492  0.2815
42274W        W51074   6.527   5.229  25.450  0.1216  0.1780  0.2617
42275W        W51075   4.960   4.751   3.251  0.1325  0.1992 -0.1289
42276W        W51076  13.328   0.922   7.071 -0.1116 -0.0855 -0.2331
42277W        W51077   8.878   2.109   9.460  0.1802  0.0022 -0.2168
42278W        W51078  19.870   5.992  33.796  0.2483  0.2011 -0.2116
42279W        W51079   2.512   1.912  11.600  0.1237 -0.0983 -0.0321
42280W        W51080   5.125   4.236   9.531  0.0120 -0.1338 -0.1964
42281W        W51081  17.962   4.538  31.242 -0.0983  0.3429 -0.1601
42282W        W51082  11.006   0.049   8.536 -0.0377 -0.1538 -0.2057
42283W        W51083  16.129   5.273  29.362 -0.5214  0.0748  0.1489
42284W        W51084   5.095   3.890  35.065 -0.3624 -0.1241 -0.0369
42285W        W51085  14.958   0.244   3.990 -0.4914  0.1065 -0.4197
42286W        W51086  11.047   2.040  13.564 -0.0071  0.1156  0.3325
42287W        W51087  14.442   4.747   4.576  0.0699  0.1003 -0.1514
42288W        W51088  15.054   3.816  26.150  0.1911  0.1726 -0.2060
42289W        W51089   2.810   6.407   2.481  0.2362 -0.1416  0.1559
42290W        W51090   4.917   1.698   2.980 -0.0681  0.1570 -0.0959
42291W        W51091   0.106   1.560   1.644 -0.1140  0.0287  0.0831
42292W        W51092  24.192   5.743   7.979  0.0107 -0.1048 -0.0037
42293W        W51093   3.467   1.429   1.685  0.3062 -0.1133 -0.0505
42294W        W51094  11.946   1.130  24.906  0.1427  0.0766  0.1108
42295W        W51095   4.303   0.956  23.042 -0.1338  0.0039  0.2016
42296W        W51096  18.283   1.901  31.060 -0.1019 -0.0513 -0.0932
42297W        W51097  18.168   6.229  23.559  0.2280 -0.1774 -0.0989
42298W        W51098  17.888   5.716   7.697  0.1411 -0.0002  0.2514
42299W        W51099  26.388   5.642  22.521  0.1002 -0.0110  0.0904
42300W        W51100   2.559   2.225  21.691  0.4402  0.1391 -0.1657
42301W        W51101  17.028   5.784  32.782 -0.1905  0.0443 -0.1670
42302W        W51102   5.247   1.318   2.598  0.0377  0.0415 -0.2577
42303W        W51103  11.157   1.134   0.185  0.0242 -0.1096  0.1728
42304W        W51104  12.330   6.599  12.666 -0.1752 -0.2165  0.2657
42305W        W51105  15.163   2.404  14.319 -0.0239  0.2005  0.1277
42306W        W51106  23.957   1.571  24.478  0.0656 -0.1821  0.1242
42307W        W51107   2.926   2.965  23.179  0.0658  0.2452 -0.0207
42308W        W51108  22.221   5.840  14.046  0.5230 -0.2390 -0.0134
42309W        W51109   8.199   4.865  27.753 -0.0479 -0.1638  0.1863
42310W        W51110  18.893   4.586  35.303  0.0633 -0.1196 -0.0197
42311W        W51111   3.645   1.900   1.964 -0.0022 -0.1107 -0.2436
42312W        W51112  17.493   0.132   2.747 -0.1843  0.4862 -0.0344
42313W        W51113  10.785   5.208  29.570 -0.0808 -0.0910  0.1577
42314W        W51114  15.215   2.502   1.547  0.0780  0.1174  0.1346
42315W        W51115  24.028   1.839  30.789  0.1190 -0.1582 -0.0626
42316W        W51116   3.716   4.011   3.334  0.0817 -0.2182  0.1674
42317W        W51117  15.155   2.839  28.113 -0.1648  0.3362 -0.1396
42318W        W51118   7.492   5.967  14.350 -0.0318  0.2467  0.0076
42319W        W51119  21.992   5.942  11.817  0.0087  0.1870  0.0893
42320W        W51120   0.853   6.238  35.441  0.0769  0.1127 -0.0385
42321W        W51121   2.241   0.638  10.529 -0.1362 -0.0572  0.6494
42322W        W51122  20.996   2.366  23.989 -0.1159 -0.0604  0.0243
42323W        W51123  19.688   4.523  20.425  0.1912 -0.0142  0.0151
42324W        W51124   1.735   3.532  32.019 -0.0391 -0.3746  0.7086
42325W        W51125  15.926   0.332  27.411 -0.3570  0.2015  0.3092
42326W        W51126   2.617   3.426  29.151  0.1717 -0.2241  0.1610
42327W        W51127   3.151   2.416   6.093  0.0049  0.0476  0.1996
42328W        W51128  19.200   5.746  29.007 -0.1832 -0.1863 -0.0066
42329W        W51129  19.716   2.685  12.045  0.0834 -0.1711 -0.0053
42330W        W51130   4.396   3.733  28.964 -0.1223  0.1163  0.0074
42331W        W51131  25.267   5.186  11.367 -0.1855  0.1692  0.1219
42332W        W51132  24.927   1.431   8.937  0.1066 -0.4655 -0.0386
42333W        W51133  19.695   1.733  22.163  0.0517 -0.1761 -0.0009
42334W        W51134  19.333   2.086  12.801 -0.1733 -0.0766  0.1126
42335W        W51135  13.292   1.051  25.734 -0.0828 -0.2695 -0.1779
42336W        W51136   9.795   5.323   8.806  0.1119 -0.1098  0.0277
42337W        W51137  20.666   5.295  30.429 -0.0560  0.0077  0.3229
42338W        W51138  14.598   4.453   3.732 -0.1924  0.0237 -0.2403
42339W        W51139   2.921   3.942  33.160 -0.0060 -0.2192  0.0096
42340W        W51140  11.360   5.832   6.519 -0.0245 -0.1309  0.1574
42341W        W51141   1.209   3.811  12.982  0.0212 -0.1051 -0.0593
42342W        W51142  15.905   4.452  36.081 -0.3064 -0.2442 -0.1032
42343W        W51143   7.088   6.370  21.839 -0.0053 -0.0608  0.1155
42344W        W51144  22.162   0.204  31.578  0.0090 -0.0105 -0.1595
42345W        W51145  13.296   1.993  24.631 -0.0832 -0.1195  0.3220
42346W        W51146   0.350   0.704  24.404 -0.0389 -0.2010 -0.1220
42347W        W51147  24.228   2.015  10.153  0.2412 -0.1377  0.3488
42348W        W51148  20.649   4.507   5.827  0.1915 -0.2160  0.0956
42349W        W51149  16.816   5.124   3.346  0.3125  0.1991 -0.1589
42350W        W51150   5.092   2.425  13.370 -0.0362 -0.1424 -0.0034
42351W        W51151  14.412   5.506  32.566  0.0997  0.1188  0.0098
42352W        W51152   2.223   5.853  35.305  0.0357  0.1492 -0.1097
42353W        W51153  10.511   6.177   0.654 -0.1530  0.1007  0.1449
42354W        W51154  20.367   6.246   8.106 -0.0032 -0.0956  0.2251
42355W        W51155  10.225   0.515  30.966  0.1279 -0.0260 -0.1739
42356W        W51156  21.673   0.055   0.684  0.1246 -0.0118  0.0994
42357W        W51157   7.570   6.510  12.243 -0.0588  0.0100 -0.0539
42358W        W51158  10.712   3.248  27.560 -0.4443 -0.0436  0.0955
42359W        W51159   3.296   5.166  30.558  0.2202  0.1138  0.1510
42360W        W51160  11.223   4.338  28.497  0.0911  0.1177 -0.1705
42361W        W51161   9.645   4.023   4.022  0.1673 -0.1416 -0.2373
42362W        W51162   4.515   6.336   9.854 -0.0660  0.2364  0.0990
42363W        W51163   3.024   4.172   2.152 -0.0310 -0.2225 -0.2440
42364W        W51164  19.742   1.058  20.682  0.0744 -0.1820  0.1923
42365W        W51165  19.986   2.349  29.501  0.1880  0.3276 -0.2624
42366W        W51166  12.254   2.933  24.314 -0.1863  0.3929  0.0292
42367W        W51167   4.241   5.390  30.522 -0.3485 -0.0602  0.3747
42368W        W51168  24.302   0.036  35.337  0.1376 -0.0961  0.2940
42369W        W51169  11.698   2.088   4.621 -0.1323  0.2463 -0.2563
42370W        W51170  18.658   1.887  26.089 -0.0219 -0.2522  0.0767
42371W        W51171  12.221   4.354  35.599  0.0065 -0.0211  0.0095
42372W        W51172   9.474   4.571  13.340  0.1546 -0.2835  0.1313
42373W        W51173  25.283   4.612   8.873 -0.1825 -0.2438  0.1485
42374W        W51174  25.516   1.891  35.874  0.3967 -0.1144  0.0544
42375W        W51175  21.487   2.565   6.294 -0.0793  0.0673  0.0724
42376W        W51176   1.534   5.955  24.627 -0.2439  0.0839  0.0464
42377W        W51177  16.812   4.824  13.533 -0.1705  0.2086 -0.2510
42378W        W51178   7.604   6.043  12.550 -0.2191  0.4505  0.1876
42379W        W51179  13.993   5.413   2.657 -0.2088 -0.0557  0.0810
42380W        W51180  17.985   4.082   8.192  0.2065 -0.0169  0.2238
42381W        W51181  14.308   3.061  35.557 -0.0260 -0.2563  0.0893
42382W        W51182   0.846   2.513  29.100  0.1133  0.3609 -0.1829
42383W        W51183  16.311   6.157  22.596  0.2973  0.1225 -0.3201
42384W        W51184   8.430   6.179  11.986 -0.0978 -0.4363  0.0870
42385W        W51185  19.613   4.037   7.819  0.0064 -0.3141  0.1327
42386W        W51186  18.456   2.601  13.147 -0.0693  0.1561 -0.0745
42387W        W51187   7.144   3.470   0.524 -0.1460  0.2420  0.0047
42388W        W51188   5.122   4.500  33.317  0.2403  0.0225 -0.0108
42389W        W51189  17.652   0.099   1.701  0.0648 -0.0301 -0.0082
42390W        W51190  21.144   0.623   0.268  0.0733 -0.0904  0.1078
42391W        W51191   4.103   4.074  14.681 -0.0130 -0.1256 -0.1580
42392W        W51192   0.352   2.307  35.831 -0.0835  0.0987  0.2337
42393W        W51193  14.725   3.761  33.568  0.0702 -0.1495  0.1005
42394W        W51194  10.037   0.887  26.334 -0.1157  0.0293  0.2083
42395W        W51195  18.510   5.935   1.153 -0.0884  0.1622 -0.0161
42396W        W51196  17.403   4.432   8.671 -0.2661 -0.1635  0.0629
42397W        W51197  20.261   6.124  14.731  0.1948 -0.0358  0.0924
42398W        W51198  23.480   1.591  14.177  0.0761  0.2277 -0.0830
42399W        W51199  26.046   1.340   9.059  0.1377  0.0620  0.0399
42400W        W51200  10.241   2.309  21.226  0.1691 -0.0687 -0.1887
42401W        W51201   5.942   1.500  11.246  0.0850  0.0204 -0.1927
42402W        W51202  18.275   2.040  22.347  0.0784  0.0847 -0.0018
42403W        W51203   7.645   2.411  30.567 -0.2533  0.0488 -0.0382
42404W        W51204  24.601   2.952  12.990 -0.0930 -0.0018 -0.0497
42405W        W51205   3.382   4.011  32.730 -0.1991  0.2320  0.0816
42406W        W51206  22.961   5.371  22.878  0.0873 -0.1136 -0.2080
42407W        W51207   8.488   5.059   8.714  0.0327 -0.2730  0.0187
42408W        W51208  12.101   3.411  22.627 -0.0434  0.1498  0.1927
42409W        W51209   5.658   5.551  28.144 -0.1072  0.1385  0.0673
42410W        W51210  24.269   2.659  30.354 -0.1541 -0.0347  0.0850
42411W        W51211  23.902   3.837  34.503  0.1447 -0.0537 -0.2401
42412W        W51212   4.830   3.468  26.927  0.5303  0.0357  0.1221
42413W        W51213  11.206   0.256  24.059  0.0412  0.1218  0.1925
42414W        W51214  21.970   3.247  36.039 -0.4311  0.0132 -0.0069
42415W        W51215  18.117   1.616  26.321  0.0177 -0.0765  0.2905
42416W        W51216  11.902   4.691  10.198 -0.0903  0.0148  0.0887
42417W        W51217  22.669   0.741  10.115  0.0507  0.2684  0.1917
42418W        W51218   4.570   2.597  34.126  0.2702  0.0582  0.1551
42419W        W51219   8.614   4.797  25.196  0.1046 -0.1965  0.5243
42420W        W51220   4.310   6.419   9.031  0.3716  0.1413 -0.0957
42421W        W51221  10.219   5.988  24.128 -0.1487 -0.0278 -0.0933
42422W        W51222   0.340   0.978  13.536 -0.1532 -0.1607  0.3079
42423W        W51223  11.608   4.560  32.917 -0.1364 -0.1564  0.0032
42424W        W51224  17.135   4.608   4.094 -0.1474 -0.0852 -0.0147
42425W        W51225   2.922   5.321  24.143 -0.0225 -0.1459  0.2087
42426W        W51226   5.019   4.047  23.520 -0.0596  0.2043 -0.0181
42427W        W51227  13.890   2.922  12.079  0.1918  0.1066  0.1013
42428W        W51228  19.737   1.214   2.158  0.0735 -0.0880 -0.1513
42429W        W51229  21.387   6.261  35.345 -0.0873 -0.1739  0.5011
42430W        W51230  25.118   2.729  12.900  0.0342 -0.5666 -0.2874
42431W        W51231   4.240   2.518  22.107  0.0892 -0.3395 -0.4125
42432W        W51232  13.627   6.099  34.406  0.0541  0.1327 -0.0318
42433W        W51233   7.426   0.749  27.129 -0.0571  0.0298  0.0050
42434W        W51234   7.481   0.018  14.368  0.0133  0.3207 -0.2428
42435W        W51235  19.610   3.782  12.916  0.0192  0.0345 -0.4453
42436W        W51236  10.894   5.998   6.551  0.0520  0.0627  0.2951
42437W        W51237  11.985   4.986   9.137 -0.2930  0.1607  0.1208
42438W        W51238  26.040   0.866  10.971 -0.0961 -0.3486 -0.0438
42439W        W51239  13.664   0.845   5.047 -0.1788 -0.3776  0.4195
42440W        W51240   0.761   5.865  27.027 -0.1859 -0.1108  0.1417
42441W        W51241  11.283   5.794  11.337 -0.2779  0.1577  0.4984
42442W        W51242   3.710   3.952  22.646  0.2508  0.3272 -0.2239
42443W        W51243   8.610   2.579   4.949 -0.0255 -0.1869 -0.1159
42444W        W51244   5.370   3.596   4.270  0.0351  0.1031  0.1481
42445W        W51245  24.201   6.134  23.366 -0.2543  0.0185  0.0719
42446W        W51246   6.387   3.567   4.728 -0.1788  0.0683 -0.0269
42447W        W51247  11.076   4.386  21.570 -0.2106  0.0556  0.1090
42448W        W51248  16.166   2.856  27.605 -0.1035  0.0615  0.1848
42449W        W51249   8.815   2.309  26.574  0.2393 -0.0617 -0.1077
42450W        W51250  24.107   5.939   2.212 -0.1846  0.1606  0.2755
42451W        W51251   3.678   0.493   8.110 -0.0193  0.1800  0.1474
42452W        W51252   8.171   1.012   6.225 -0.2087 -0.1265  0.0374
42453W        W51253   0.145   5.113   8.845 -0.0416 -0.2070 -0.0896
42454W        W51254  22.657   0.432   5.071  0.1128 -0.2693  0.0796
42455W        W51255  21.047   4.419  31.955 -0.0064  0.1434 -0.1411
42456W        W51256  22.380   4.543  33.029 -0.1658  0.1629  0.2770
42457W        W51257  17.615   5.184  26.792 -0.1680  0.0380  0.0178
42458W        W51258   4.163   4.082   6.085  0.0083  0.1650  0.1088
42459W        W51259   5.001   1.782  34.560  0.0115  0.1046  0.0800
42460W        W51260   6.018   2.050   9.924  0.0710 -0.0966  0.2531
42461W        W51261   3.112   0.938   6.737 -0.0419 -0.1726 -0.0243
42462W        W51262   2.782   3.932   7.144  0.1324 -0.1285  0.3497
42463W        W51263  23.485   6.475  31.672  0.0098  0.0579  0.0711
42464W        W51264   0.020   2.525  25.440 -0.1532 -0.2044 -0.5016
42465W        W51265  19.170   2.107  30.010  0.3061  0.0924  0.3789
42466W        W51266  10.605   4.906  10.291 -0.1544 -0.3126 -0.1324
42467W        W51267   4.308   5.783   6.686 -0.2017 -0.1866  0.1757
42468W        W51268  12.749   3.138  33.394  0.2095 -0.1113 -0.0036
42469W        W51269   7.829   2.897   5.879  0.2205 -0.1401 -0.3144
42470W        W51270   1.662   0.990  35.366  0.2109  0.0651 -0.2952
42471W        W51271  13.776   5.801   8.744 -0.1849 -0.1406  0.1612
42472W        W51272  22.627   3.263   7.001  0.2156  0.0700  0.0716
42473W        W51273  19.198   1.899  14.400 -0.0579  0.0733  0.1460
42474W        W51274   4.790   1.474   2.330 -0.2113  0.2545  0.0471
42475W        W51275   3.701   1.186   3.979 -0.0860  0.2931  0.1584
42476W        W51276  23.295   2.148  11.700  0.1753  0.0837  0.1396
42477W        W51277   9.249   6.460  23.870 -0.1657  0.1673  0.2797
42478W        W51278   0.677   5.874  32.962  0.0028  0.0197  0.2471
42479W        W51279  25.264   6.488  24.613 -0.0674  0.2537  0.1716
42480W        W51280  16.659   4.617  12.584  0.1626 -0.1114  0.1826
42481W        W51281  24.883   3.699  13.165  0.2562 -0.0127 -0.3329
42482W        W51282  22.917   4.062  13.214  0.0585  0.2293 -0.0234
42483W        W51283  12.289   0.268  21.545 -0.1965 -0.0191  0.3490
42484W        W51284   7.531   3.825  33.302 -0.0741 -0.0209 -0.3564
42485W        W51285  20.826   0.052  26.230 -0.1575 -0.3235  0.0233
42486W        W51286   9.204   0.661  35.966  0.0587 -0.0251  0.1246
42487W        W51287  25.212   0.131  30.500 -0.0118 -0.0525 -0.3299
42488W        W51288  10.801   0.173  23.343  0.0165 -0.2328  0.3000
42489W        W51289   3.200   2.752  12.079  0.2496  0.0548 -0.1612
42490W        W51290  22.417   2.232   0.573 -0.1095  0.2843 -0.0263
42491W        W51291  17.563   1.899  21.966  0.0461  0.0336  0.1412
42492W        W51292  14.518   4.691   6.394  0.1568  0.2083 -0.1456
42493W        W51293  24.855   3.372  32.822  0.0565  0.1166 -0.2549
42494W        W51294  17.107   1.502  21.985 -0.0895  0.1210  0.0493
42495W        W51295  15.231   2.301   9.319 -0.0355 -0.0888 -0.3407
42496W        W51296  12.093   4.538   9.369 -0.0383  0.0289 -0.0452
42497W        W51297  21.838   4.128  27.321 -0.1393  0.0993 -0.2274
42498W        W51298  21.452   4.437   0.569 -0.3439  0.1107 -0.0864
42499W        W51299  17.398   2.009   7.127  0.1380 -0.0407  0.0442
42500W        W51300  26.280   0.507  23.441  0.2024 -0.1471  0.1019
42501W        W51301   6.969   4.821  21.187 -0.0724  0.1640 -0.0387
42502W        W51302  15.005   1.565  32.936 -0.0011 -0.0160  0.0127
42503W        W51303  23.751   6.306  29.107 -0.1009  0.1246  0.4128
42504W        W51304  20.255   0.421  30.708  0.2408  0.0149 -0.3753
42505W        W51305  21.681   1.379  25.364 -0.1435 -0.0908  0.0727
42506W        W51306   7.102   0.224  30.866 -0.0522  0.0308 -0.1327
42507W        W51307  24.526   4.716  10.896  0.0498  0.0692 -0.1418
42508W        W51308  10.831   3.295  29.969 -0.1331  0.1113  0.1505
42509W        W51309  23.446   0.207  24.080 -0.0190  0.4056 -0.0111
42510W        W51310   2.699   3.964  22.203  0.0904 -0.0323  0.0261
42511W        W51311  13.217   2.840  34.893  0.1787 -0.0588 -0.1042
42512W        W51312  17.460   1.419  31.861  0.2649 -0.1209  0.0429
42513W        W51313  16.879   0.553  22.860  0.1247 -0.3792  0.2012
42514W        W51314  16.801   3.660   7.134  0.3196 -0.2616 -0.4284
42515W        W51315  15.481   0.597   2.155  0.2434 -0.0079  0.0061
42516W        W51316  15.786   2.201   7.030 -0.5078 -0.1318 -0.1075
42517W        W51317  24.119   5.743  30.827  0.0886 -0.2172  0.0154
42518W        W51318  17.128   5.211  34.763 -0.4503  0.1697  0.1573
42519W        W51319   1.281   4.381   5.749 -0.1938 -0.1450 -0.1409
42520W        W51320  18.685   4.490  22.259 -0.2111  0.0722  0.1332
42521W        W51321   6.071   5.393   0.989 -0.1684  0.2410  0.0777
42522W        W51322  22.239   5.062   3.460  0.2214  0.0506  0.1036
42523W        W51323   5.317   0.934  35.020 -0.1520  0.1596 -0.0566
42524W        W51324   5.458   2.950  22.513  0.2679  0.3617  0.3958
42525W        W51325  22.294   5.449  12.576  0.1247  0.0229  0.0786
42526W        W51326  17.718   6.277  32.566  0.2819 -0.1918  0.1232
42527W        W51327   1.447   3.511  14.327 -0.0712  0.0563 -0.2331
42528W        W51328   3.589   2.052  33.947  0.2811  0.3383  0.0206
42529W        W51329  13.715   5.462  11.990  0.0300  0.2651  0.2512
42530W        W51330  17.213   6.494  35.431 -0.1560 -0.0246 -0.3224
42531W        W51331  24.524   3.298  24.393 -0.1623 -0.1986  0.0061
42532W        W51332  16.024   0.615  20.951  0.1313  0.0505 -0.0646
42533W        W51333   1.539   1.296   9.199 -0.2470  0.2421 -0.0413
42534W        W51334  22.616   1.544  20.635 -0.0677  0.3335  0.0589
42535W        W51335   2.179   6.239   4.608  0.0336  0.1732  0.0843
42536W        W51336  24.809   1.363   3.340 -0.3331  0.2022 -0.1456
42537W        W51337  20.886   0.380  10.635 -0.1241  0.0850 -0.2321
42538W        W51338  22.584   4.299   7.937  0.1041 -0.0410  0.2596
42539W        W51339  25.943   0.490  26.898  0.3125 -0.2663  0.2391
42540W        W51340  10.855   4.869   5.306 -0.0771  0.0691 -0.0840
42541W        W51341  18.325   0.872  20.420  0.2696  0.0429 -0.0129
42542W        W51342   8.575   4.850  33.757  0.2016 -0.0211  0.2164
42543W        W51343   2.038   1.553   9.321  0.1345 -0.0832 -0.2213
42544W        W51344   1.122   5.099   2.652  0.1895  0.1922 -0.0659
42545W        W51345  26.427   3.775   5.423 -0.0384  0.0349  0.0028
42546W        W51346   9.155   3.183  28.547  0.1205 -0.1378 -0.0878
42547W        W51347   0.394   1.671  34.342 -0.0082 -0.0402 -0.1261
42548W        W51348  15.229   6.367  26.769 -0.2833  0.1389  0.0074
42549W        W51349  23.718   3.625  10.869 -0.2029 -0.1864  0.2978
42550W        W51350   9.048   4.102  20.893  0.1158 -0.2651  0.0633
42551W        W51351  17.765   4.544   8.976 -0.3038 -0.0194 -0.1049
42552W        W51352   2.953   4.828  33.437  0.0467  0.0850 -0.1816
42553W        W51353  14.052   4.856  11.840  0.1145  0.1375 -0.2142
42554W        W51354  22.738   4.827  35.328 -0.1542 -0.0293 -0.0017
42555W        W51355   1.707   0.456  22.491 -0.2312  0.1215 -0.2687
42556W        W51356  19.905   4.077  22.634  0.0439  0.1588  0.1236
42557W        W51357   2.958   0.248  30.866  0.2532 -0.1756 -0.0620
42558W        W51358  22.990   3.100  22.957 -0.3460  0.2881  0.1657
42559W        W51359  19.529   6.416  31.068  0.0227  0.1680  0.0337
42560W        W51360  12.646   3.341   2.403  0.0424  0.1521  0.1570
42561W        W51361   4.713   0.952  14.688  0.1362 -0.2653  0.0020
42562W        W51362   7.940   2.114   7.877  0.3578 -0.3528  0.0526
42563W        W51363   5.762   2.453   9.105 -0.0212 -0.2241 -0.2886
42564W        W51364  11.615   3.465   3.306  0.1790 -0.1094  0.2780
42565W        W51365  21.430   1.521   1.877 -0.2297  0.2882 -0.3841
42566W        W51366  24.144   3.213   9.691  0.0936  0.2045  0.0629
42567W        W51367  20.013   4.484  11.206  0.3279  0.0226  0.1055
42568W        W51368  12.170   6.065  24.090 -0.3306 -0.1031 -0.0900
42569W        W51369   8.522   6.570   2.756 -0.2205  0.3048 -0.2850
42570W        W51370  26.191   5.817  12.625  0.1809  0.0733  0.0515
42571W        W51371   8.153   0.579   3.831  0.0227  0.1321  0.2560
42572W        W51372  20.126   4.617  21.845 -0.0056  0.2727 -0.2051
42573W        W51373  24.539   1.512   3.846  0.0372  0.0902 -0.0021
42574W        W51374  22.044   5.939  28.751  0.1199 -0.3210  0.1567
42575W        W51375   1.025   3.253   1.247  0.0030  0.4426  0.2122
42576W        W51376  26.260   6.095  22.237  0.0335  0.3269 -0.1699
42577W        W51377  22.375   1.056  29.498  0.3275  0.2020  0.2487
42578W        W51378   2.757   0.513  23.517  0.1356 -0.2774  0.1430
42579W        W51379   5.703   5.327  29.454  0.0345 -0.1568 -0.3706
42580W        W51380  17.593   6.216  12.193  0.2030  0.0048  0.0089
42581W        W51381  10.407   5.849   3.766 -0.1769  0.1188 -0.1156
42582W        W51382  14.931   6.014  27.059 -0.1880 -0.1370  0.3137
42583W        W51383   0.382   0.270  24.729  0.0677  0.1768 -0.0052
42584W        W51384  12.371   2.935   8.317  0.0010  0.2045 -0.2479
42585W        W51385  18.280   2.173  14.952  0.0343  0.0827 -0.0916
42586W        W51386   0.981   4.416  30.913 -0.0094  0.0815  0.0812
42587W        W51387   5.890   4.810  22.242 -0.0177  0.1110 -0.1583
42588W        W51388   2.160   3.432  28.721  0.2118  0.2189  0.2227
42589W        W51389   2.182   5.549   0.020 -0.2446  0.0494  0.1247
42590W        W51390   4.067   6.038  12.950 -0.2223 -0.1617 -0.2518
42591W        W51391  17.941   2.657  12.192 -0.1608  0.1185  0.1435
42592W        W51392  25.526   3.805  14.769  0.1446  0.0563 -0.0812
42593W        W51393  14.162   2.356   8.666 -0.3001 -0.3484 -0.0682
42594W        W51394   6.056   3.932  34.494 -0.0489 -0.0221  0.0343
42595W        W51395   3.592   1.156  12.450 -0.0134 -0.0616 -0.0404
42596W        W51396   9.036   0.435   2.834 -0.3336  0.0827  0.1307
42597W        W51397   2.989   4.011   5.040  0.0847  0.1577 -0.0831
42598W        W51398  10.164   1.884  13.316  0.0050 -0.1160 -0.1351
42599W        W51399  16.355   5.790  10.563 -0.2402  0.0286 -0.1413
42600W        W51400   1.000   4.242   8.227  0.1353 -0.0145  0.3400
42601W        W51401  17.306   6.078  33.462 -0.0029  0.3606 -0.0268
42602W        W51402   8.240   6.515   6.648  0.2357 -0.0322  0.2329
42603W        W51403   3.901   2.281  26.829  0.1564  0.0162 -0.0122
42604W        W51404  24.405   5.774   1.901  0.0598  0.2669 -0.0394
42605W        W51405  14.412   2.206  35.616  0.0621 -0.1602 -0.0242
42606W        W51406   7.757   5.812  21.681 -0.0890  0.1982  0.1355
42607W        W51407  18.646   2.599  30.679 -0.0151  0.0424 -0.0973
42608W        W51408   5.064   1.599  23.360  0.0377  0.2323  0.0477
42609W        W51409  23.239   3.107  34.812  0.1005  0.1792  0.0082
42610W        W51410  13.525   1.680  24.040  0.0921  0.1003 -0.3131
42611W        W51411  26.064   6.370   4.603  0.0440 -0.2952 -0.0997
42612W        W51412   2.012   1.851  11.402 -0.1881 -0.0642  0.0640
42613W        W51413  17.013   2.776  34.600 -0.3939  0.0989  0.0542
42614W        W51414   0.229   4.894   4.347  0.0531 -0.1463 -0.2121
42615W        W51415   5.542   3.173   5.587  0.0590 -0.0257  0.1979
42616W        W51416  22.230   1.465  30.191  0.1156 -0.0460 -0.0513
42617W        W51417  21.877   1.941  27.557  0.0959 -0.0984  0.3121
42618W        W51418   1.875   3.388  23.166  0.4853 -0.0237  0.1517
42619W        W51419   4.023   1.100  25.778  0.0906 -0.0285 -0.2971
42620W        W51420  15.380   2.172  35.270 -0.1049 -0.2584  0.1932
42621W        W51421  26.131   1.452   6.780 -0.2706  0.3152 -0.2089
42622W        W51422   9.593   5.590  32.443  0.0208 -0.0542  0.0646
42623W        W51423  22.919   6.224  25.240 -0.2015  0.0672  0.1787
42624W        W51424   9.558   6.062   0.413  0.1288 -0.0277 -0.0505
42625W        W51425  25.064   1.212   5.208  0.0328 -0.2604  0.4818
42626W        W51426   3.358   1.598   2.311  0.0761  0.0542 -0.1096
42627W        W51427  11.460   2.314  32.430 -0.0702  0.1561  0.1680
42628W        W51428   0.854   0.149  29.540 -0.1916  0.1630 -0.0524
42629W        W51429  20.071   0.537   8.465 -0.0893  0.0518  0.1389
42630W        W51430   3.452   0.602  33.047 -0.2843 -0.0156 -0.2182
42631W        W51431  11.629   6.481   3.853  0.2101 -0.2664  0.2545
42632W        W51432  19.133   4.032  33.302  0.1948 -0.3152  0.0412
42633W        W51433   1.304   1.089  35.080  0.0332 -0.0105  0.0754
42634W        W51434  22.386   0.330  36.062  0.0110 -0.1410 -0.1011
42635W        W51435  12.397   0.542  10.586 -0.0971  0.1847  0.2131
42636W        W51436   0.779   3.805  33.547  0.3722  0.3646 -0.0653
42637W        W51437   8.208   2.638  32.194 -0.0234  0.0996  0.3187
42638W        W51438  11.564   5.255   2.978  0.1599  0.0878  0.0602
42639W        W51439  25.457   0.816  25.617 -0.0906 -0.0132  0.3711
42640W        W51440  23.053   1.421  27.414 -0.1347  0.0745 -0.0558
42641W        W51441   9.397   2.514  27.148 -0.2326 -0.0770 -0.0912
42642W        W51442  22.932   2.435  33.695 -0.1594 -0.1796 -0.1428
42643W        W51443   7.662   6.513  35.862 -0.1594  0.2234 -0.3026
42644W        W51444  23.725   6.367  31.162  0.4487 -0.0672 -0.0790
42645W        W51445  23.460   2.992  33.143  0.0413  0.0104  0.2814
42646W        W51446  18.183   1.499   1.306 -0.1385  0.1507  0.2922
42647W        W51447   9.144   1.236  13.797  0.0620  0.0127  0.1074
42648W        W51448  20.475   4.311   0.742 -0.1275  0.1351 -0.0967
42649W        W51449   9.956   2.610  10.397  0.1238 -0.1769 -0.2305
42650W        W51450  25.391   6.031  21.592 -0.0672  0.2300 -0.1475
42651W        W51451  17.914   3.487  24.236 -0.0028 -0.1271  0.1916
42652W        W51452   2.121   3.552  23.602 -0.0351 -0.0833  0.0380
42653W        W51453  22.081   0.567  11.712  0.0258  0.0016 -0.1665
42654W        W51454   0.697   2.514  32.297 -0.2664 -0.0199  0.1336
42655W        W51455  12.489   3.527  27.238 -0.1875 -0.1024 -0.0695
42656W        W51456   6.718   3.860  13.935  0.0134  0.2280 -0.0951
42657W        W51457   4.793   0.723   4.647  0.2278  0.1532  0.0539
42658W        W51458  13.507   5.738  14.651  0.1580  0.1445  0.0766
42659W        W51459  13.971   5.057  10.281 -0.1241  0.1375  0.1583
42660W        W51460  25.390   4.107   2.022  0.3466 -0.0421 -0.1177
42661W        W51461   8.930   5.185  23.661 -0.0574  0.0535 -0.3255
42662W        W51462   3.100   0.708   9.764 -0.1692 -0.0914 -0.0604
42663W        W51463   6.472   5.090  31.919  0.2105 -0.0008  0.0573
42664W        W51464  20.066   1.345  20.960 -0.2583 -0.0042 -0.1622
42665W        W51465   1.114   1.367  20.645 -0.1798  0.2257  0.0792
42666W        W51466  24.224   0.682  24.395 -0.0916 -0.1004 -0.2094
42667W        W51467  18.588   5.096   7.428 -0.0463  0.0934 -0.3642
42668W        W51468   3.670   2.563  34.459 -0.1295 -0.0639 -0.2543
42669W        W51469   8.001   1.393   9.738  0.0092  0.2247 -0.0263
42670W        W51470  22.959   2.424  14.955  0.0467 -0.1803  0.1668
42671W        W51471  10.241   4.037  29.354  0.0402  0.0696  0.5104
42672W        W51472  10.820   4.327  22.497  0.1445  0.1494  0.2224
42673W        W51473  16.987   3.858  27.478  0.2964 -0.2525 -0.0845
42674W        W51474  18.026   1.658  27.693  0.1107  0.1460 -0.2262
42675W        W51475   9.033   2.269  21.035 -0.1706  0.0605  0.1260
42676W        W51476  17.868   6.268  28.397 -0.1830 -0.0298  0.2847
42677W        W51477  20.067   3.050  29.865  0.0578  0.2370 -0.0422
42678W        W51478  14.799   4.626   1.506 -0.3402 -0.1818  0.2446
42679W        W51479  16.289   3.025   3.270  0.0042 -0.2675  0.0685
42680W        W51480   7.148   3.851  15.295  0.1939  0.1910  0.3423
42681W        W51481  23.161   2.228  32.042  0.0031 -0.1316  0.1810
42682W        W51482   5.413   4.997   3.325 -0.1815  0.0518 -0.1437
42683W        W51483   9.458   0.484  22.826 -0.2873  0.1055 -0.0772
42684W        W51484  17.230   4.350  25.041  0.1868 -0.0617 -0.0552
42685W        W51485   7.323   1.096  30.765  0.0189 -0.0472  0.2198
42686W        W51486  19.115   4.019  34.438 -0.3394 -0.1111  0.1954
42687W        W51487  16.563   3.853   3.094  0.1679  0.0400  0.0552
42688W        W51488  20.851   4.164  26.184  0.0758 -0.1371  0.0076
42689W        W51489  12.624   2.925   5.684  0.0711 -0.0777 -0.0243
42690W        W51490  26.331   5.668  28.300 -0.1786 -0.1551 -0.2952
42691W        W51491  21.343   4.257  23.446  0.0475 -0.0175  0.2310
42692W        W51492  13.623   4.102  13.543  0.0939  0.0346 -0.0515
42693W        W51493   3.676   2.462   9.816 -0.4977  0.2623 -0.3736
42694W        W51494  20.037   2.120  26.452  0.0565  0.0636  0.1608
42695W        W51495   6.512   3.388   7.410 -0.1650  0.0592 -0.1325
42696W        W51496   0.594   3.544  12.319 -0.3089  0.0070  0.1262
42697W        W51497  17.904   5.789  33.877 -0.0993  0.2705 -0.0362
42698W        W51498  22.911   0.867  21.772  0.0594  0.0562 -0.1328
42699W        W51499   7.800   4.020   6.389 -0.0910 -0.1951  0.0579
42700W        W51500  25.575   4.328  21.371  0.0153  0.0607  0.0832
42701W        W51501  18.145   0.851  11.874 -0.1019 -0.0293  0.0484
42702W        W51502  22.830   3.811   8.591 -0.0128  0.2502 -0.0941
42703W        W51503  17.737   1.720  25.732 -0.2731  0.2320 -0.0430
42704W        W51504  10.353   3.892   3.647 -0.0390 -0.0527 -0.1156
42705W        W51505  19.967   2.366  23.764  0.3419 -0.1053 -0.0848
42706W        W51506  10.225   4.281  11.030  0.0507 -0.0078 -0.0047
42707W        W51507  14.133   6.373   2.702 -0.0673 -0.0679 -0.0353
42708W        W51508   4.503   4.798  25.794 -0.0348  0.1763  0.2611
42709W        W51509   0.638   2.955  12.669  0.0430 -0.0476 -0.1655
42710W        W51510  25.702   3.907  28.128 -0.1861 -0.3181  0.1747
42711W        W51511   6.602   1.707  23.789 -0.0455 -0.1525 -0.0605
42712W        W51512  10.995   4.544   2.662  0.0286 -0.2035  0.1037
42713W        W51513  11.541   0.388  33.667 -0.1937 -0.0172 -0.0048
42714W        W51514  25.817   0.696  15.068  0.0277 -0.1692  0.0649
42715W        W51515  10.753   5.988   4.573 -0.1125  0.0918 -0.1870
42716W        W51516  12.478   3.178   7.033  0.2781  0.0542 -0.0502
42717W        W51517  25.517   1.543  28.387 -0.1151  0.0846 -0.0977
42718W        W51518  26.023   6.531  33.576 -0.0275 -0.0984 -0.1564
42719W        W51519  11.921   0.119  32.711 -0.4033  0.2457  0.2328
42720W        W51520   0.941   6.180  23.417 -0.0182 -0.0680  0.1734
42721W        W51521  19.200   3.645   5.463 -0.1382  0.0799 -0.1372
42722W        W51522   0.873   6.200  24.199 -0.1511 -0.1853  0.2503
42723W        W51523   8.103   0.922  32.091 -0.4623  0.0082 -0.1185
42724W        W51524  14.115   1.515  23.193  0.1035 -0.1331  0.0710
42725W        W51525  10.763   6.552  33.265  0.0447  0.1026  0.2056
42726W        W51526   2.479   1.932  10.533  0.2051  0.1255 -0.3986
42727W        W51527  11.177   2.986  35.936 -0.1396  0.5016  0.1450
42728W        W51528  23.398   1.840  12.053  0.0874  0.0348  0.1764
42729W        W51529  19.015   5.102   2.069 -0.1615 -0.1603  0.1319
42730W        W51530  23.189   0.402   8.843  0.0321  0.0308  0.2597
42731W        W51531   8.439   3.100  27.941  0.0383 -0.1720  0.2093
42732W        W51532   1.840   4.675  28.381  0.0488 -0.3343  0.1377
42733W        W51533   0.048   6.457  22.428 -0.2059  0.0491  0.0840
42734W        W51534  10.103   3.897  26.714  0.0085  0.1861 -0.3327
42735W        W51535  11.173   2.031   4.565 -0.0077 -0.2208  0.1734
42736W        W51536  11.024   0.839  24.656 -0.0611  0.0333 -0.0653
42737W        W51537   1.130   1.314   6.636 -0.1959 -0.2841 -0.1614
42738W        W51538  15.514   1.296   2.861 -0.0111  0.0208  0.2000
42739W        W51539  14.284   3.860  28.250  0.1061 -0.3320  0.0689
42740W        W51540  10.157   1.097   8.426 -0.0606  0.1316 -0.2134
42741W        W51541  18.146   1.344  26.845  0.0848 -0.2697 -0.3742
42742W        W51542  11.228   2.063  26.507 -0.1918 -0.0400  0.0582
42743W        W51543  12.258   4.498   2.590  0.1219  0.0779  0.1067
42744W        W51544   7.711   3.249  28.301  0.1168 -0.1071 -0.0883
42745W        W51545   8.663   0.733   7.034 -0.1379 -0.0199 -0.0170
42746W        W51546  14.548   0.009  21.584  0.1808 -0.0679  0.0755
42747W        W51547  11.425   4.165   0.794 -0.0040 -0.1080 -0.0739
42748W        W51548   6.970   1.800   3.888 -0.0817 -0.1802  0.3619
42749W        W51549  22.407   0.673  11.145  0.0843 -0.0586 -0.2512
42750W        W51550   4.656   2.193  30.489 -0.0382 -0.1453 -0.0340
42751W        W51551  23.597   3.357   1.562 -0.3215  0.0438 -0.1727
42752W        W51552   8.079   1.667   3.117  0.2652 -0.1311  0.5214
42753W        W51553  25.847   5.424  12.225 -0.0308  0.0531  0.2264
42754W        W51554  25.400   5.106   5.587 -0.2810 -0.0244  0.0223
42755W        W51555   6.661   0.254  32.477 -0.1425  0.0590 -0.0252
42756W        W51556   1.157   3.746  23.436  0.0239 -0.0787  0.3174
42757W        W51557  14.797   4.948  31.947  0.2429  0.1279 -0.2656
42758W        W51558  22.805   2.162  29.065  0.0937 -0.1815 -0.0019
42759W        W51559  16.161   3.694  22.560  0.1112 -0.1647  0.1014
42760W        W51560   6.897   0.916  23.055  0.1641 -0.0751  0.1002
42761W        W51561   9.276   5.773   0.770  0.2439  0.0169  0.0126
42762W        W51562  18.594   3.955   7.356 -0.0970  0.2778 -0.0588
42763W        W51563  10.917   5.460  12.779 -0.1336 -0.1326  0.1372
42764W        W51564   9.596   4.822   0.860  0.1989  0.0366  0.0142
42765W        W51565   2.627   2.756  12.019  0.1656  0.0736 -0.1962
42766W        W51566  18.495   2.210  11.491  0.0378  0.0096  0.1538
42767W        W51567  19.292   1.914  21.925 -0.0635  0.1674 -0.2866
42768W        W51568  21.270   2.440   3.473  0.0945  0.1677  0.1844
42769W        W51569   1.882   3.909  35.606  0.1987  0.0556  0.1087
42770W        W51570  17.007   0.863  29.101  0.5094 -0.0817  0.0571
42771W        W51571   8.779   3.856   4.951 -0.1418  0.0038 -0.1103
42772W        W51572   8.598   5.200  23.241 -0.3934  0.2174  0.1859
42773W        W51573  21.822   2.886   4.504 -0.0807  0.2022  0.0147
42774W        W51574   4.219   4.281  34.866  0.0451  0.0370 -0.2779
42775W        W51575  22.499   5.782  21.069  0.1609 -0.2261 -0.1675
42776W        W51576  24.999   6.456  21.584  0.2022  0.1405 -0.0715
42777W        W51577  21.174   1.737  34.837 -0.1261  0.1365  0.0605
42778W        W51578  19.138   3.802  34.950  0.1384  0.0702 -0.0878
42779W        W51579  25.919   3.241   5.465 -0.2190 -0.0105 -0.2017
42780W        W51580  22.720   5.971  26.042  0.2321  0.1834  0.0587
42781W        W51581  18.970   3.766  25.183  0.1636 -0.1697  0.3952
42782W        W51582   6.195   5.738  27.124 -0.2153  0.1159 -0.0807
42783W        W51583  26.387   4.041  33.703 -0.1832 -0.2767 -0.0265
42784W        W51584  20.257   6.187   4.800  0.0649  0.0058 -0.2208
42785W        W51585   0.516   0.678  30.122  0.3268 -0.1234  0.0359
42786W        W51586   4.174   5.437  12.065  0.1628  0.4437 -0.3156
42787W        W51587  23.529   1.577  27.349 -0.2399  0.3338 -0.1131
42788W        W51588  25.838   4.617  28.886  0.0189  0.1144 -0.1292
42789W        W51589  21.911   3.989  15.093  0.2111 -0.2124 -0.0389
42790W        W51590  19.239   3.597  21.041 -0.0141 -0.0670 -0.2965
42791W        W51591  11.430   3.487  11.639  0.0388  0.0947  0.1487
42792W        W51592  22.547   5.026  12.734 -0.0319 -0.1140 -0.1306
42793W        W51593   2.249   5.443   6.356  0.2542  0.3143  0.0960
42794W        W51594   7.688   2.874  15.296 -0.1145 -0.0399 -0.1507
42795W        W51595  14.300   2.189  28.282  0.1245  0.0569 -0.1104
42796W        W51596  18.849   4.555  19.896 -0.0843  0.2989  0.2389
42797W        W51597   0.466   4.499   7.288 -0.3147 -0.3310  0.2660
42798W        W51598   0.960   2.101  32.034 -0.1083  0.4109 -0.3432
42799W        W51599  21.498   3.352  28.919 -0.1295  0.3889  0.1449
42800W        W51600   0.551   1.210  32.938  0.0486  0.1701 -0.1188
42801W        W51601  17.839   1.022  27.076 -0.0104 -0.0672 -0.1891
42802W        W51602   4.250   1.391   4.281 -0.0902  0.1384 -0.0424
42803W        W51603  26.006   1.515  28.579 -0.0004 -0.4634 -0.0672
42804W        W51604  19.673   0.814  33.217  0.2254  0.0476  0.0140
42805W        W51605  22.718   2.755  35.155  0.1021 -0.0647 -0.0019
42806W        W51606   4.945   6.503  31.135 -0.1047  0.0319 -0.2195
42807W        W51607  18.928   1.599  25.799 -0.0805  0.1933  0.0669
42808W        W51608  25.453   0.650   6.029 -0.0081  0.1497 -0.0734
42809W        W51609  24.859   0.473   2.628  0.0599  0.0958  0.2321
42810W        W51610  20.313   4.801  33.633 -0.1404  0.1311  0.1028
42811W        W51611  14.374   1.355  23.711  0.0450  0.0614 -0.3633
42812W        W51612  16.685   4.593   3.098 -0.4230 -0.0547 -0.1583
42813W        W51613  19.864   1.638  32.575 -0.0764  0.2537 -0.0799
42814W        W51614  22.526   1.537  25.297 -0.0078 -0.0332  0.1051
42815W        W51615  22.299   2.920   6.107  0.3581  0.1287  0.0003
42816W        W51616  24.053   4.997  22.918  0.0192 -0.4850  0.0154
42817W        W51617  17.345   4.644  33.995  0.1243 -0.0097  0.2436
42818W        W51618  25.079   2.788  20.338 -0.0476 -0.0114 -0.2388
42819W        W51619  18.094   5.317  25.825  0.0551  0.0742  0.0413
42820W        W51620   2.183   1.346  28.778 -0.0150 -0.0014 -0.0223
42821W        W51621  21.561   0.289  30.868 -0.0290  0.2746  0.1677
42822W        W51622   5.951   5.884  11.167  0.0907 -0.0821  0.2229
42823W        W51623  19.456   4.828  21.390  0.2771 -0.2254  0.0916
42824W        W51624  23.683   0.198  14.462 -0.0433  0.0654  0.0801
42825W        W51625  20.584   3.398  28.824 -0.1543 -0.0081  0.0651
42826W        W51626  10.969   1.783  26.912 -0.2402  0.2112  0.0220
42827W        W51627  26.387   5.065  21.265 -0.2405 -0.0523  0.0279
42828W        W51628   2.892   0.309  33.210  0.2860 -0.1156  0.0777
42829W        W51629  23.970   1.864  13.425 -0.0559  0.0497  0.3217
42830W        W51630  12.578   1.523  23.766 -0.1447 -0.0130 -0.2825
42831W        W51631  18.520   4.366  13.187  0.3187 -0.0474  0.2174
42832W        W51632  17.213   1.716  29.637 -0.2946 -0.0525  0.0932
42833W        W51633  14.394   6.033   6.525 -0.0232 -0.0599  0.1066
42834W        W51634  14.488   0.204   4.755 -0.1557  0.0408  0.3596
42835W        W51635  13.526   3.538   6.319  0.1836 -0.0886  0.1791
42836W        W51636   0.429   5.114  26.259 -0.1291 -0.2426  0.3337
42837W        W51637   1.880   4.970   3.446  0.0370  0.2367  0.0278
42838W        W51638  16.921   5.715   5.316 -0.2460 -0.1872 -0.2570
42839W        W51639   5.328   6.276  30.891  0.1496  0.0679 -0.0939
42840W        W51640  17.219   5.653   0.003 -0.0350  0.3157  0.0395
42841W        W51641  11.732   4.096   9.615 -0.4342 -0.0142  0.2803
42842W        W51642  18.657   1.906   7.099  0.0880  0.0718 -0.0920
42843W        W51643   7.652   4.684  11.357  0.1374  0.1510  0.2196
42844W        W51644  10.071   5.290  35.092 -0.1058 -0.3471  0.1532
42845W        W51645  16.564   2.732  14.151 -0.1715 -0.2078 -0.2143
42846W        W51646   8.583   4.475   7.856 -0.0093  0.0679  0.0792
42847W        W51647  14.441   3.893   7.927 -0.0864 -0.1488 -0.1359
42848W        W51648   7.076   1.066  22.256 -0.0637 -0.0325 -0.1099
42849W        W51649  11.001   0.018  20.908 -0.0444 -0.1909  0.1329
42850W        W51650   0.554   0.319   6.423  0.2762  0.2409 -0.0018
42851W        W51651  19.655   3.491  24.667  0.1961 -0.0446  0.0798
42852W        W51652  16.753   4.133  14.770 -0.1913 -0.2337 -0.2417
42853W        W51653   8.941   0.939  30.600  0.0604 -0.0602  0.0861
42854W        W51654   5.935   4.052   3.694  0.1054  0.0483 -0.0261
42855W        W51655  26.432   6.230  27.228 -0.0556  0.2624  0.0582
42856W        W51656   1.754   1.656   1.289 -0.3438 -0.2403  0.0193
42857W        W51657  22.151   5.423  24.066 -0.3671 -0.0355 -0.2536
42858W        W51658  11.533   3.082   0.641 -0.2673  0.1303  0.0896
42859W        W51659   1.155   0.859  28.446 -0.1371  0.1390 -0.3339
42860W        W51660  26.362   2.627  11.577  0.2540 -0.1042  0.5442
42861W        W51661  18.097   3.545   9.566 -0.1632 -0.1846  0.2305
42862W        W51662   1.670   0.610  12.823  0.2525  0.1676 -0.1987
42863W        W51663  22.332   0.720  31.983 -0.1698 -0.1832 -0.1802
42864W        W51664  17.627   4.038   7.851  0.2065  0.0929  0.0147
42865W        W51665  20.702   1.617   1.198  0.2083  0.1469 -0.1893
42866W        W51666  15.900   5.178  23.950 -0.0819  0.1887 -0.0145
42867W        W51667  12.054   0.191   0.327 -0.3836  0.1421  0.3074
42868W        W51668   7.922   5.601   3.374 -0.0961  0.0455 -0.3537
42869W        W51669  15.612   5.076   3.627 -0.0634  0.1547 -0.3296
42870W        W51670  15.651   3.897  21.362 -0.0075  0.2519 -0.0132
42871W        W51671   8.803   2.300  22.884  0.0419 -0.0900  0.1650
42872W        W51672  19.191   2.867  29.800  0.2165  0.1043 -0.1188
42873W        W51673  17.384   3.605  27.716  0.0894  0.0718 -0.0472
42874W        W51674  25.864   6.001   5.360  0.1869  0.0424  0.0596
42875W        W51675   9.212   1.462  11.084  0.0392 -0.1091  0.1432
42876W        W51676  20.327   1.098   6.236  0.0319 -0.3913  0.1071
42877W        W51677   3.994   3.268  13.696  0.1882 -0.1386  0.2984
42878W        W51678  18.204   4.491  23.916  0.0368  0.3407 -0.2693
42879W        W51679  15.911   0.861   9.125 -0.0710 -0.0597 -0.1811
42880W        W51680  13.943   4.085  12.482  0.0100 -0.2081 -0.1034
42881W        W51681   3.303   0.674   8.771 -0.3353 -0.0540 -0.0181
42882W        W51682  10.099   6.220   2.547  0.0802  0.1622  0.0061
42883W        W51683  21.847   6.113  26.392 -0.0181  0.2133  0.1749
42884W        W51684  21.915   2.626  12.650 -0.3982 -0.1020 -0.0523
42885W        W51685   6.106   1.876  23.660  0.0257  0.0914 -0.3577
42886W        W51686   0.023   1.666  14.770 -0.1782  0.0182  0.0135
42887W        W51687  25.988   0.605   4.028 -0.4683 -0.2609 -0.0555
42888W        W51688   8.825   2.086  25.621 -0.2261 -0.0054 -0.0288
42889W        W51689  13.515   3.115  15.438  0.2431 -0.2361  0.2940
42890W        W51690  19.724   4.845  28.738 -0.3662  0.1643 -0.2798
42891W        W51691  10.130   3.854  26.108  0.2706  0.0902 -0.0852
42892W        W51692   3.139   2.199  26.815 -0.0447  0.1036 -0.2744
42893W        W51693  16.173   1.486  21.379 -0.0716 -0.1014 -0.1169
42894W        W51694   6.466   4.878  13.140  0.0725 -0.3281 -0.0750
42895W        W51695   0.018   3.550  25.256 -0.1623  0.1494  0.0415
42896W        W51696  18.798   3.986  13.137 -0.1953 -0.1980 -0.1205
42897W        W51697   2.309   1.945  27.003  0.1855 -0.0094 -0.0475
42898W        W51698   3.528   3.493   4.335 -0.1659 -0.2016 -0.0525
42899W        W51699  26.399   4.156  12.064  0.0780  0.3015 -0.2110
42900W        W51700   1.965   2.727  25.285 -0.0107 -0.0281  0.0725
42901W        W51701  23.619   0.241  28.081  0.0801  0.1737  0.0557
42902W        W51702   7.984   0.822   4.629 -0.0460  0.2292  0.0566
42903W        W51703  12.367   0.097  34.824  0.1338  0.1100  0.2325
42904W        W51704  17.502   2.178   2.471 -0.1662 -0.0785  0.0023
42905W        W51705  19.159   0.500  23.774  0.0427 -0.1337 -0.1949
42906W        W51706   7.895   6.278  35.291 -0.0308  0.0562 -0.0330
42907W        W51707  18.217   5.233   2.724 -0.2203  0.0601 -0.2281
42908W        W51708  11.521   6.025   1.696 -0.3860 -0.1585  0.0035
42909W        W51709  11.215   6.228   6.180 -0.1726  0.2068 -0.0303
42910W        W51710   0.485   5.213  13.432  0.3040 -0.3041 -0.2491
42911W        W51711   0.253   1.050  25.711  0.1732  0.0436 -0.4913
42912W        W51712   9.630   5.599   2.488 -0.1794 -0.1059  0.1453
42913W        W51713  16.124   3.728  33.367 -0.0768  0.0113  0.0547
42914W        W51714  16.062   0.517  15.320  0.1463  0.0279 -0.1280
42915W        W51715   2.836   1.072  11.002  0.0137 -0.1897  0.0626
42916W        W51716   3.786   2.800   9.451  0.4108 -0.0149  0.2610
42917W        W51717  21.631   0.929  28.087  0.2249 -0.2594 -0.1077
42918W        W51718   8.847   4.501  33.956  0.0214  0.1133 -0.0235
42919W        W51719   6.553   5.696  21.139  0.0027 -0.2172  0.0855
42920W        W51720   2.699   4.941   3.233 -0.1018 -0.2041  0.0605
42921W        W51721   1.109   1.114  10.992  0.5087 -0.2919  0.1831
42922W        W51722  18.299   5.506  27.181 -0.0324  0.2070  0.2497
42923W        W51723  11.650   1.935   7.561  0.0143 -0.1622 -0.0062
42924W        W51724  12.952   2.119  30.154 -0.0930 -0.4185 -0.1691
42925W        W51725  12.753   2.900   9.254 -0.0560 -0.2293  0.2792
42926W        W51726  20.874   1.290  15.210 -0.0055 -0.0411 -0.2910
42927W        W51727   9.054   6.419  35.312 -0.0646  0.0973 -0.0631
42928W        W51728   3.769   5.666   3.958  0.0892  0.1933 -0.1724
42929W        W51729  21.438   0.655  35.963 -0.0314 -0.1195  0.1321
42930W        W51730  22.334   0.542   8.934 -0.0932 -0.0027  0.1416
42931W        W51731  15.125   1.499  21.919 -0.1331 -0.0644 -0.3052
42932W        W51732  16.801   3.935   9.269 -0.3786  0.0002  0.4498
42933W        W51733   4.331   5.864  10.619  0.2160 -0.2153 -0.1801
42934W        W51734  12.809   0.981  13.634 -0.0871  0.2905 -0.1598
42935W        W51735  22.063   3.263  33.341 -0.3249 -0.0771 -0.2170
42936W        W51736  24.890   6.287  34.576 -0.3971  0.2556 -0.0779
42937W        W51737   6.143   1.928  28.647 -0.2952 -0.1737 -0.0918
42938W        W51738   7.619   4.478  26.121 -0.0052 -0.0762  0.0465
42939W        W51739  22.247   1.895  25.425  0.1777 -0.2068  0.0456
42940W        W51740   3.983   6.060  26.481 -0.2942  0.1831  0.0366
42941W        W51741   6.413   0.871  11.257 -0.2462 -0.0566 -0.0938
42942W        W51742  24.970   1.518   4.783 -0.0834 -0.1866 -0.0389
42943W        W51743   2.399   1.132  11.912 -0.0554 -0.0908  0.4371
42944W        W51744  19.720   2.056   9.566  0.1009  0.1229 -0.1086
42945W        W51745  15.175   0.239   6.587  0.0685 -0.3612 -0.1995
42946W        W51746   8.099   0.324  24.538  0.0123  0.0776  0.0392
42947W        W51747   6.059   1.297  12.537 -0.0491 -0.3440  0.0171
42948W        W51748  16.860   3.747  22.065 -0.0897 -0.3479 -0.1534
42949W        W51749   2.003   2.919  24.619  0.1146 -0.1342  0.0196
42950W        W51750   8.071   0.793  24.473 -0.2978  0.0088 -0.1544
42951W        W51751  22.998   0.251  34.067  0.3347 -0.0105 -0.1389
42952W        W51752  16.899   6.310   4.289 -0.0817  0.3118 -0.1752
42953W        W51753  17.832   4.602  12.779  0.0777  0.0493  0.1535
42954W        W51754   0.008   3.853  34.276  0.2952 -0.0200 -0.1936
42955W        W51755   5.994   0.868  21.010  0.0320 -0.0051  0.0220
42956W        W51756   3.098   0.330  29.567  0.0472 -0.0280  0.0892
42957W        W51757   5.339   4.771  26.292  0.3715 -0.0870 -0.2078
42958W        W51758  19.205   1.820  33.644 -0.0776 -0.0119 -0.0850
42959W        W51759  11.412   5.226   4.689  0.0326  0.1766  0.1253
42960W        W51760  21.778   4.164  35.643 -0.1457  0.5043  0.0292
42961W        W51761  17.660   0.867  26.551  0.0548  0.2320  0.2015
42962W        W51762  18.907   2.843  22.633 -0.3598 -0.1325 -0.1688
42963W        W51763   9.473   2.193  32.464  0.0147 -0.0963 -0.0266
42964W        W51764  16.819   2.552   8.382 -0.3435  0.1101 -0.1861
42965W        W51765  15.821   4.159  24.251  0.0479  0.1143  0.0696
42966W        W51766   5.095   2.849  32.066 -0.0296 -0.0934 -0.0207
42967W        W51767  19.954   1.837   3.568 -0.0481 -0.4163  0.0110
42968W        W51768  20.028   2.955  33.581 -0.2277  0.1961 -0.1037
42969W        W51769  20.910   6.109   8.603  0.1196  0.1194 -0.0867
42970W        W51770  24.152   2.646  29.370  0.2623 -0.4410  0.0955
42971W        W51771  24.423   3.571  25.710 -0.1221  0.1877 -0.0371
42972W        W51772   7.031   0.014   4.101 -0.0069 -0.0129  0.1920
42973W        W51773  10.698   2.118  21.343 -0.1904  0.1175 -0.2040
42974W        W51774  24.185   6.436   7.504  0.0237  0.0551 -0.0205
42975W        W51775   0.549   4.094  34.589 -0.0569 -0.2394  0.0362
42976W        W51776  21.609   5.835  25.124  0.0049  0.1064 -0.3455
42977W        W51777  13.294   1.536  11.258  0.2250  0.1959  0.0680
42978W        W51778  15.985   2.795  25.936 -0.0406 -0.1337 -0.0406
42979W        W51779  18.142   4.473  28.343  0.0222 -0.1642 -0.1617
42980W        W51780  13.259   2.311  29.032 -0.0262  0.1973  0.2728
42981W        W51781  16.810   3.326   6.280  0.0264  0.0368 -0.3737
42982W        W51782   8.003   1.788   2.598  0.0994  0.2379 -0.1125
42983W        W51783  18.758   0.931   3.193  0.1188 -0.0681  0.1082
42984W        W51784   1.216   5.117   9.826  0.1322 -0.0794 -0.0132
42985W        W51785   6.333   3.584  15.262  0.0099 -0.1272 -0.1325
42986W        W51786   4.631   2.525  13.636  0.0365  0.0187 -0.0528
42987W        W51787  19.812   6.137   5.146 -0.2953 -0.3076 -0.0497
42988W        W51788  17.176   1.833  32.083  0.0197 -0.2396  0.2337
42989W        W51789   2.211   6.298  27.439  0.2801  0.2271 -0.3075
42990W        W51790   6.323   1.714   2.549  0.3342 -0.0038  0.1539
42991W        W51791  18.431   4.301  34.505  0.0886 -0.0237  0.2257
42992W        W51792  10.991   0.163   5.109 -0.0642  0.1651 -0.0306
42993W        W51793  10.087   0.171   5.277 -0.0602 -0.0405 -0.2756
42994W        W51794  16.341   4.309   4.458 -0.0686 -0.3021  0.1152
42995W        W51795   4.977   0.856  24.606 -0.0474  0.0679  0.2638
42996W        W51796  11.878   4.735  22.181 -0.1750  0.0771 -0.3031
42997W        W51797   4.431   2.734  35.834 -0.1186  0.2847 -0.3639
42998W        W51798   3.013   3.424   8.399 -0.1954 -0.2049 -0.1849
42999W        W51799   3.851   3.963  34.025  0.2486 -0.0502  0.2686
43000W        W51800  16.957   4.813   8.071  0.1216  0.1334 -0.1569
43001W        W51801  11.171   0.291  12.421 -0.4354 -0.2250 -0.0407
43002W        W51802   6.844   3.650   6.751  0.0039  0.1435  0.1030
43003W        W51803   7.519   2.817  26.408 -0.2354  0.1629 -0.1109
43004W        W51804   1.668   6.475  28.276 -0.0144  0.1914 -0.0611
43005W        W51805  14.285   4.591   6.801 -0.0088 -0.2338 -0.1315
43006W        W51806   2.663   4.528  29.622  0.1474 -0.1408 -0.0130
43007W        W51807  24.987   4.804   8.502 -0.0904  0.2933 -0.0279
43008W        W51808   9.938   1.414  11.592  0.1230 -0.1430  0.1607
43009W        W51809   8.501   4.259   0.391  0.0368 -0.0783 -0.0497
43010W        W51810  13.052   0.504  10.220 -0.2709  0.1740  0.0122
43011W        W51811  18.342   6.249  25.643 -0.2218  0.3893  0.1685
43012W        W51812  18.346   4.780   9.594  0.1258 -0.2473  0.0071
43013W        W51813  17.653   0.091  35.314  0.3738 -0.2211 -0.2304
43014W        W51814  25.497   2.256   9.273  0.2248 -0.0467 -0.3633
43015W        W51815  19.543   1.736   9.952  0.0261 -0.0071  0.0670
43016W        W51816  20.132   5.016   1.679  0.0190  0.1726  0.1142
43017W        W51817  14.491   5.932   5.033 -0.0525 -0.3468  0.2305
43018W        W51818  12.505   3.540  15.643 -0.2292  0.0671  0.0427
43019W        W51819   7.150   4.853  22.699 -0.2783 -0.3215 -0.0797
43020W        W51820  18.262   0.932  14.713  0.0433 -0.1122 -0.0034
43021W        W51821  15.617   1.020  23.291  0.0004  0.1920  0.2172
43022W        W51822   2.426   3.508  34.811  0.3853  0.1099  0.0749
43023W        W51823  23.456   5.136  31.062 -0.3547  0.4503 -0.0081
43024W        W51824   5.364   1.468  14.159 -0.3213 -0.3867  0.4654
43025W        W51825  26.296   0.103  33.199  0.0208 -0.4408 -0.0986
43026W        W51826  19.361   5.096  32.354 -0.4549  0.0426 -0.2801
43027W        W51827  13.887   2.229  27.787 -0.2026 -0.2538 -0.0196
43028W        W51828   6.092   0.421   2.975  0.1346  0.1467 -0.1317
43029W        W51829   1.975   5.480   4.826 -0.0695  0.1500 -0.1343
43030W        W51830  14.628   0.205  24.241 -0.0807 -0.0817  0.2000
43031W        W51831  21.425   4.496  22.277 -0.0805  0.0110 -0.0816
43032W        W51832   0.453   4.866  11.734 -0.1695 -0.3393  0.0595
43033W        W51833  24.223   4.418  35.530  0.2909 -0.1923  0.0862
43034W        W51834  21.338   5.456  25.289 -0.0391 -0.0273  0.1207
43035W        W51835  19.355   3.048   3.238 -0.1352  0.0614  0.2547
43036W        W51836   9.528   5.049  10.465  0.1947  0.0100 -0.0100
43037W        W51837  14.963   4.054   2.400  0.1415  0.0246 -0.1851
43038W        W51838  19.835   3.891   1.520  0.3174  0.0546  0.1423
43039W        W51839  11.357   4.403  10.747  0.1948  0.0243  0.1027
43040W        W51840   9.921   2.436   0.672 -0.0236 -0.0563 -0.1151
43041W        W51841  21.675   5.956   6.991 -0.1397 -0.0510 -0.2900
43042W        W51842   0.904   3.127  28.284 -0.0460  0.1060 -0.2371
43043W        W51843   7.739   2.648  12.299 -0.1546 -0.2795 -0.1731
43044W        W51844  10.890   5.348  22.183  0.1223  0.0427 -0.1335
43045W        W51845   2.551   4.464  23.631  0.2167 -0.1736  0.2796
43046W        W51846  13.178   5.140  28.905  0.2657 -0.0923 -0.0240
43047W        W51847   6.973   0.084   1.779 -0.0493  0.1883 -0.1266
43048W        W51848   5.266   1.463   2.086 -0.2419  0.0766  0.1630
43049W        W51849  14.650   0.033   2.258  0.3141 -0.0130 -0.1204
43050W        W51850  15.709   5.356  30.152 -0.2771 -0.1170  0.0828
43051W        W51851  19.874   4.409  25.398  0.0114  0.2175  0.1002
43052W        W51852  25.152   3.204   2.499  0.0121  0.1603  0.0953
43053W        W51853   9.103   1.463  22.801 -0.1035  0.0259  0.0585
43054W        W51854   1.523   0.650  23.105 -0.0879 -0.5076 -0.1979
43055W        W51855  18.747   3.810  29.931 -0.3010  0.1471 -0.3644
43056W        W51856  24.623   1.672   8.504  0.2478 -0.4865  0.1409
43057W        W51857  20.171   4.736   7.806  0.0963  0.0555 -0.0613
43058W        W51858  10.948   3.261  29.364 -0.3069  0.2513  0.0504
43059W        W51859   9.575   3.662  14.527  0.0996 -0.2384  0.1386
43060W        W51860  22.882   0.932  29.342 -0.0481  0.1420  0.0359
43061W        W51861   5.649   6.538  22.238 -0.2089  0.2238 -0.0118
43062W        W51862  21.502   2.541  10.444 -0.2709  0.1111 -0.1323
43063W        W51863  16.595   2.483  24.908 -0.0556  0.1797 -0.3160
43064W        W51864   8.431   3.582  22.828  0.1907 -0.0668 -0.0113
43065W        W51865  23.843   4.121  14.779  0.2510 -0.0474  0.1470
43066W        W51866  21.376   0.237   8.948  0.2185  0.2886 -0.1786
43067W        W51867  16.275   1.504   5.525  0.0098 -0.0361  0.1793
43068W        W51868  10.005   3.579  30.829  0.1979 -0.0485  0.1209
43069W        W51869  14.936   5.343   5.615  0.0669  0.1367  0.6432
43070W        W51870  17.773   1.932   6.584  0.0923 -0.1354 -0.0481
43071W        W51871   6.361   1.835  30.869 -0.4781 -0.1546 -0.3655
43072W        W51872  26.408   2.161  32.061 -0.1004  0.0606 -0.1688
43073W        W51873  11.330   5.394  31.159 -0.2799  0.0524  0.1163
43074W        W51874  25.440   1.384  25.560 -0.2179 -0.0324  0.0619
43075W        W51875  10.988   2.373  21.009 -0.2840 -0.0680  0.0379
43076W        W51876  25.489   4.339  10.928  0.2274 -0.0439  0.1124
43077W        W51877  14.712   3.217   0.497 -0.2320  0.2020  0.0035
43078W        W51878  23.198   4.955  13.952 -0.1620 -0.0589  0.1473
43079W        W51879  10.563   1.647   3.771 -0.1652 -0.1238 -0.1797
43080W        W51880  25.262   3.575  14.408 -0.1081  0.0555  0.1383
43081W        W51881  17.150   1.034  12.056 -0.1265  0.0308 -0.0643
43082W        W51882  26.369   3.857  22.551  0.0870 -0.1207  0.0824
43083W        W51883  20.041   3.738  24.471 -0.0028 -0.1797 -0.2078
43084W        W51884  22.291   0.464   5.428 -0.1254  0.1746 -0.1790
43085W        W51885   9.082   6.524   5.184 -0.0904  0.2056  0.0247
43086W        W51886  24.673   2.551  23.464 -0.2966  0.2425 -0.1083
43087W        W51887  13.420   2.094  29.941  0.2707  0.0925  0.1039
43088W        W51888  24.547   5.556   0.024  0.1916  0.2537 -0.0838
43089W        W51889  22.433   1.731  33.091  0.1053  0.1016 -0.0365
43090W        W51890  11.211   3.210   2.911 -0.2308 -0.0587 -0.1744
43091W        W51891  24.852   0.301   0.843  0.0226 -0.2448 -0.1456
43092W        W51892   0.618   5.507  14.702  0.1101  0.0861  0.2322
43093W        W51893  12.246   6.316   7.423 -0.1083  0.0011 -0.4214
43094W        W51894  15.044   5.783  23.365  0.0451  0.2939  0.0966
43095W        W51895   9.329   3.932  26.683  0.1599  0.0600  0.1450
43096W        W51896   5.541   2.040   9.098  0.1213  0.0804 -0.0519
43097W        W51897   7.699   5.041  16.258 -0.0246 -0.3222  0.1073
43098W        W51898   9.303   2.707  35.073  0.0713  0.0891 -0.1455
43099W        W51899  18.900   2.967  29.073 -0.0752 -0.1436  0.2119
43100W        W51900  12.578   3.722   9.722 -0.2124 -0.2111 -0.0830
43101W        W51901   0.960   2.487  15.131  0.1107  0.1723  0.2444
43102W        W51902  13.648   3.667  31.990 -0.0365 -0.0786 -0.2169
43103W        W51903   2.021   1.233  31.144 -0.2867  0.0267  0.1132
43104W        W51904  14.023   3.104  13.987  0.0893  0.2439 -0.0674
43105W        W51905  19.780   1.664   1.118 -0.0233  0.0259  0.3115
43106W        W51906  16.801   2.945   4.572  0.0132  0.2611  0.0354
43107W        W51907   5.772   0.407  31.412 -0.1926  0.0815  0.0301
43108W        W51908  24.244   1.205  29.281 -0.4677  0.2223 -0.0581
43109W        W51909   0.166   2.649   0.011 -0.1486  0.0425  0.0419
43110W        W51910  22.715   5.654  28.715  0.1658 -0.2685 -0.2805
43111W        W51911  23.796   3.029  28.275  0.2284 -0.0176 -0.0208
43112W        W51912  11.849   0.611  27.661 -0.0352  0.2412  0.1758
43113W        W51913  24.323   5.550  33.300  0.0913 -0.2096  0.0782
43114W        W51914  12.028   5.328  34.628 -0.2844 -0.1283  0.0589
43115W        W51915   4.702   0.487  31.055 -0.1476 -0.0118  0.0496
43116W        W51916   3.536   1.889   4.310 -0.1477 -0.0133 -0.0764
43117W        W51917  11.356   4.558  21.995  0.0897 -0.2646  0.1749
43118W        W51918  11.447   1.040   2.767  0.3104 -0.0250  0.1555
43119W        W51919  19.468   0.260  24.121 -0.1729  0.1604  0.0894
43120W        W51920   8.852   1.001  33.842  0.0142  0.0595 -0.1008
43121W        W51921  14.254   1.881  33.995  0.0229  0.1558 -0.2744
43122W        W51922  14.922   2.220  10.626 -0.0518  0.0004  0.1671
43123W        W51923   2.612   1.233   8.884  0.2668 -0.1190  0.1075
43124W        W51924   9.791   4.543  31.864  0.1485 -0.0450  0.1262
43125W        W51925  19.715   4.002  31.505 -0.2230  0.0088  0.1493
43126W        W51926   1.001   5.184   0.959 -0.0299 -0.0057 -0.1333
43127W        W51927  22.352   4.049   6.453 -0.0772 -0.1206 -0.2063
43128W        W51928   1.365   1.001   9.579 -0.0137 -0.1293 -0.2577
43129W        W51929   0.049   0.613  31.434 -0.0833  0.1411  0.1659
43130W        W51930   1.072   1.683   5.835  0.0579 -0.0975 -0.0499
43131W        W51931   8.430   4.448  26.227 -0.0455 -0.1152 -0.0169
43132W        W51932   6.752   2.932  15.259 -0.1493  0.3723  0.0649
43133W        W51933   3.429   6.084  23.598  0.3161 -0.3253 -0.4457
43134W        W51934   3.022   5.433   7.391  0.0653  0.0948 -0.2310
43135W        W51935   4.207   3.587  23.633 -0.0584 -0.0192 -0.0265
43136W        W51936  12.698   2.967  23.531 -0.2354 -0.2785  0.0097
43137W        W51937  15.485   3.718   9.588  0.1619  0.2628 -0.1576
43138W        W51938   1.811   2.667  29.008 -0.0255  0.0058  0.0555
43139W        W51939  24.632   0.468   6.124  0.2068 -0.3563  0.1267
43140W        W51940   6.415   3.642  30.863 -0.0043  0.2897  0.1658
43141W        W51941  20.187   6.419  10.525 -0.3076  0.2672  0.1670
43142W        W51942   3.743   5.736  30.953 -0.0163 -0.1496  0.0549
43143W        W51943  15.797   0.949  15.345 -0.2089  0.0741 -0.0764
43144W        W51944   3.411   1.774  35.722  0.1633  0.1396 -0.1865
43145W        W51945  11.578   1.152  32.877 -0.0598  0.0839 -0.1468
43146W        W51946  20.004   5.328   8.495  0.1849 -0.0503 -0.0349
43147W        W51947  14.189   4.452  22.924  0.0428  0.1454 -0.0706
43148W        W51948  12.454   4.864  34.853  0.0013 -0.1580 -0.2290
43149W        W51949  14.478   3.468  11.394  0.0793 -0.0131  0.0543
43150W        W51950  19.188   5.988  25.976 -0.1683  0.0456  0.0615
43151W        W51951  18.510   0.362  10.169  0.3547  0.0287 -0.0334
43152W        W51952  21.075   1.953  26.181 -0.1890 -0.4752 -0.2525
43153W        W51953   9.842   4.279  28.594  0.1762 -0.4253  0.1614
43154W        W51954  24.025   5.147  31.138  0.4154 -0.2781 -0.1480
43155W        W51955  23.321   3.289  10.822 -0.1823  0.2579 -0.0744
43156W        W51956   3.701   1.034  14.762 -0.1573  0.1701 -0.0324
43157W        W51957  25.229   2.658   9.461 -0.0716  0.4206  0.0381
43158W        W51958  11.503   2.778   6.150  0.2300 -0.0570  0.2299
43159W        W51959  24.106   4.965   6.801  0.3699 -0.2637  0.2646
43160W        W51960  14.839   1.946  26.048 -0.2832  0.1500 -0.2073
43161W        W51961  18.962   4.663  33.708 -0.0890  0.0306  0.0830
43162W        W51962   8.572   2.283  31.241 -0.1855  0.0083  0.0659
43163W        W51963   5.404   6.589  24.272  0.1047 -0.0931 -0.0151
43164W        W51964  13.287   3.919  27.258  0.1046 -0.0669 -0.1513
43165W        W51965  15.967   1.065  24.840 -0.1962  0.1907 -0.1873
43166W        W51966  11.926   0.177  29.597 -0.0167  0.0053  0.1819
43167W        W51967   7.573   2.452   8.059  0.0334 -0.1576  0.1835
43168W        W51968   8.417   1.056   4.790  0.0219  0.0760  0.0908
43169W        W51969   0.661   3.788  29.341 -0.2291 -0.5579  0.0297
43170W        W51970  12.726   0.774  33.125 -0.1519  0.0008  0.3117
43171W        W51971  24.045   6.522  12.573 -0.0440 -0.3383  0.0961
43172W        W51972   7.676   4.115   8.121  0.0714 -0.0009  0.0397
43173W        W51973  16.782   3.679  22.539  0.3827  0.1475 -0.3477
43174W        W51974   0.461   1.820  12.595  0.3536  0.0135  0.0493
43175W        W51975  22.241   5.516  11.024  0.0281 -0.2989 -0.0721
43176W        W51976  25.565   3.147  25.049  0.1273 -0.2827 -0.0916
43177W        W51977   7.000   3.628   8.909 -0.1237  0.0622 -0.1726
43178W        W51978  10.624   0.254   1.254  0.1090 -0.3553  0.1615
43179W        W51979  19.939   1.399  26.703 -0.0654  0.0694  0.1749
43180W        W51980   8.130   3.726   3.661  0.2174  0.2239 -0.1500
43181W        W51981  25.405   1.036  10.291  0.1748 -0.2073  0.0017
43182W        W51982  15.488   0.713   4.462  0.1620 -0.1674 -0.3034
43183W        W51983   7.152   1.046  35.091  0.1653  0.0118  0.0300
43184W        W51984   7.556   1.871  22.707 -0.1819 -0.1077  0.2012
43185W        W51985   4.608   0.429  35.565 -0.0201 -0.2027 -0.0508
43186W        W51986  14.285   3.711  29.664 -0.1701  0.1884  0.1050
43187W        W51987  18.271   5.598  21.295 -0.0083  0.1805 -0.0166
43188W        W51988  25.860   0.028  35.245  0.2293  0.3630 -0.1455
43189W        W51989   5.169   2.221  36.010  0.1796 -0.2180  0.1813
43190W        W51990   7.808   4.723   4.384 -0.3752 -0.1178 -0.0840
43191W        W51991  18.483   3.533   4.638 -0.0033  0.0781  0.0910
43192W        W51992  24.163   1.859  25.545 -0.0351  0.0494 -0.4276
43193W        W51993   4.903   1.750   4.222 -0.0688 -0.1848  0.0585
43194W        W51994  12.114   4.818  13.193 -0.1771  0.1385 -0.1240
43195W        W51995  22.893   6.236   3.396 -0.0398 -0.0827 -0.1901
43196W        W51996  24.881   4.069  26.675  0.2024  0.1064  0.1178
43197W        W51997   0.902   1.953   0.383 -0.2354  0.1941 -0.0862
43198W        W51998  12.233   0.478  12.401  0.2021 -0.1057  0.0204
43199W        W51999  13.013   1.992   4.346 -0.3299 -0.0996 -0.1548
43200W        W52000  14.529   1.604  32.857  0.2676  0.0324  0.0074
43201W        W52001  21.380   1.783   9.864 -0.1739  0.1204  0.1468
43202W        W52002  18.209   4.650   7.567 -0.2001 -0.2019  0.0681
43203W        W52003  20.912   0.647  22.278 -0.0068  0.0983  0.0265
43204W        W52004   9.341   4.464  24.885 -0.0594  0.1147 -0.2588
43205W        W52005   4.829   6.552  14.611 -0.3971  0.2960 -0.1979
43206W        W52006  21.966   1.104  25.029 -0.3126  0.2097 -0.0494
43207W        W52007   9.224   2.423   7.635 -0.2546 -0.2930  0.0307
43208W        W52008  21.087   2.703  21.747  0.1097  0.1785 -0.0611
43209W        W52009  14.158   0.439  34.221 -0.0882 -0.4757 -0.0851
43210W        W52010   3.725   5.300  10.306 -0.0173 -0.1547 -0.0330
43211W        W52011  10.669   3.882  26.625  0.1981  0.2393 -0.0368
43212W        W52012  10.449   2.117  30.073  0.0344 -0.0103  0.2225
43213W        W52013   9.023   3.980  23.985 -0.0359 -0.1489 -0.1639
43214W        W52014  20.334   1.846  24.418 -0.2084 -0.0338 -0.0700
43215W        W52015   3.829   5.018  24.608  0.1771 -0.3171  0.0038
43216W        W52016   5.500   1.241  34.619  0.0442 -0.0189  0.2738
43217W        W52017  10.751   1.029  34.521  0.0562 -0.1881  0.0009
43218W        W52018  18.562   2.109  13.826 -0.0553  0.4697  0.1113
43219W        W52019  20.939   1.593  31.421  0.2694 -0.0756 -0.2913
43220W        W52020  17.908   2.879  32.839  0.0214  0.0564  0.2563
43221W        W52021  13.220   0.750  10.908 -0.0402 -0.0122 -0.0316
43222W        W52022  13.006   5.686   0.317 -0.3158  0.2214 -0.2555
43223W        W52023  20.058   0.017  24.294  0.0500  0.2248 -0.1318
43224W        W52024   9.156   6.232  21.921 -0.0751 -0.1674  0.1918
43225W        W52025  16.936   3.804  25.157  0.0897  0.0202  0.0124
43226W        W52026  25.227   3.983   3.978  0.0300 -0.3572  0.0184
43227W        W52027   7.858   4.501  22.167 -0.1201 -0.0171 -0.1047
43228W        W52028   1.206   4.307   7.706  0.0927 -0.3094 -0.0923
43229W        W52029  14.778   4.573  25.925  0.2044 -0.3390  0.0594
43230W        W52030   0.162   0.683   2.811  0.0006 -0.2826  0.2239
43231W        W52031  21.638   2.951   9.425  0.0356 -0.1886  0.0466
43232W        W52032  15.117   4.777   2.818 -0.2645 -0.1580 -0.0278
43233W        W52033  24.357   6.300  34.756 -0.5116  0.0239  0.2046
43234W        W52034   7.844   4.254  32.975 -0.2492  0.0539 -0.1655
43235W        W52035  21.865   1.035  24.053  0.1590 -0.0236  0.0340
43236W        W52036  22.545   0.724  25.936  0.1261 -0.1467 -0.2560
43237W        W52037  14.625   2.613  27.130  0.2295  0.0183  0.0663
43238W        W52038  13.049   4.071  15.407  0.0633 -0.0929 -0.1492
43239W        W52039  25.866   4.106  34.694  0.0952  0.3964  0.0572
43240W        W52040  19.869   3.016  32.666  0.1794  0.2815 -0.3713
43241W        W52041   3.557   2.323   7.107  0.2491  0.0525  0.0864
43242W        W52042   5.160   6.507   1.577  0.0094  0.1358  0.0035
43243W        W52043  15.530   5.831  15.203  0.2270 -0.0507  0.1267
43244W        W52044  18.891   2.829   3.659 -0.0858 -0.0173 -0.1843
43245W        W52045   3.998   3.016  22.402 -0.1818  0.0611  0.1669
43246W        W52046   9.123   4.058  34.831 -0.0188  0.0941  0.2020
43247W        W52047   3.640   0.898  24.277  0.2277  0.0776 -0.4182
43248W        W52048  23.865   1.511   9.246 -0.0646  0.0096 -0.1103
43249W        W52049  21.775   4.814   0.760 -0.2481 -0.0638  0.0469
43250W        W52050   5.719   1.045  31.289  0.1222 -0.1474  0.0503
43251W        W52051  17.567   1.639   8.520 -0.1568  0.1553  0.0952
43252W        W52052  15.544   0.427  10.732 -0.1584  0.1651 -0.0915
43253W        W52053  13.808   6.217   1.655 -0.2663 -0.1629  0.2946
43254W        W52054  13.594   3.386   7.929  0.1534  0.1353 -0.0891
43255W        W52055  25.395   0.241  19.718 -0.3151 -0.1388 -0.0308
43256W        W52056   5.001   6.551  34.129 -0.0743  0.1206  0.0362
43257W        W52057  16.418   1.155  27.204  0.1716  0.1905 -0.1035
43258W        W52058   0.333   4.167   8.562 -0.1804  0.3027 -0.2233
43259W        W52059  23.596   5.336  11.671  0.2035 -0.0523 -0.0169
43260W        W52060  24.269   2.064  12.988 -0.1534  0.2561  0.0055
43261W        W52061  26.313   3.119   3.379  0.0184 -0.3847  0.2109
43262W        W52062   4.587   3.060  34.584  0.3724  0.2465 -0.2011
43263W        W52063   6.408   3.169  14.989 -0.3472 -0.1865  0.3561
43264W        W52064  19.622   5.664  28.323 -0.2018 -0.2869  0.0350
43265W        W52065   8.200   4.135  30.097 -0.0650 -0.1443 -0.2333
43266W        W52066  10.581   4.075  14.546 -0.1189 -0.0544 -0.0851
43267W        W52067   2.981   5.555  33.011  0.2581 -0.1471 -0.3029
43268W        W52068  20.089   5.941  26.351 -0.0848  0.1205 -0.1498
43269W        W52069  15.947   4.338  13.416 -0.0984  0.2961 -0.3098
43270W        W52070   6.865   1.418   1.830 -0.0136  0.1767 -0.0324
43271W        W52071  22.589   0.992  11.590 -0.0510 -0.1902 -0.1482
43272W        W52072   6.925   0.781  27.979  0.1487  0.0603 -0.1700
43273W        W52073  23.053   2.959   4.650 -0.1518 -0.1152  0.1521
43274W        W52074  18.902   4.575   2.296 -0.3706  0.1498 -0.1170
43275W        W52075  12.441   0.444  22.875  0.1820 -0.2192 -0.0576
43276W        W52076  11.393   4.153  32.539 -0.0037 -0.0598  0.1966
43277W        W52077  24.506   5.540  11.847 -0.1037  0.1227  0.0749
43278W        W52078   0.057   5.322  30.341  0.1409 -0.1740 -0.1025
43279W        W52079   2.215   2.613  29.324 -0.3875  0.0835 -0.2773
43280W        W52080   0.249   1.622  30.811  0.1963  0.1118  0.3850
43281W        W52081  10.027   1.213  28.557 -0.4019 -0.0785  0.1517
43282W        W52082   9.899   4.138   0.415 -0.0042 -0.1519 -0.0720
43283W        W52083  16.989   4.251   5.823 -0.1692 -0.1763 -0.0332
43284W        W52084  25.787   5.148  21.908 -0.2014  0.3850 -0.1658
43285W        W52085  18.942   6.220   8.463 -0.0435 -0.1751 -0.0458
43286W        W52086  25.545   5.751  20.647  0.3427 -0.1516 -0.3928
43287W        W52087  17.846   3.529  28.299 -0.2498  0.0658  0.1169
43288W        W52088  22.296   0.788   8.510  0.3567  0.1060 -0.2752
43289W        W52089  21.783   1.172  33.591 -0.2547  0.1046 -0.1021
43290W        W52090  11.227   2.462   9.851 -0.0721 -0.0484 -0.0822
43291W        W52091  15.248   1.294  28.888 -0.0767  0.1040 -0.0313
43292W        W52092  21.181   4.241  33.397  0.1344  0.0842  0.4215
43293W        W52093  12.948   0.476  22.214  0.0305 -0.2125 -0.2602
43294W        W52094   5.635   5.019  32.404 -0.0703  0.1622  0.0927
43295W        W52095  21.476   4.118   6.255 -0.3552 -0.0962 -0.2618
43296W        W52096  11.738   3.644   5.935  0.1879 -0.0564  0.1274
43297W        W52097  20.783   4.583  26.582 -0.0471 -0.1819  0.1908
43298W        W52098  21.181   6.319  27.287 -0.2162 -0.1384 -0.3020
43299W        W52099  22.140   6.452  23.521 -0.0232  0.0635 -0.2816
43300W        W52100  21.231   0.008  30.486 -0.1475 -0.0340  0.2258
43301W        W52101   6.370   1.372  10.926  0.1790  0.0922  0.0421
43302W        W52102  18.439   1.941   1.269  0.1420 -0.1817  0.0034
43303W        W52103   4.240   2.181  28.034  0.0927 -0.1118  0.0115
43304W        W52104  17.472   0.523   3.980 -0.0703 -0.1863 -0.1715
43305W        W52105   9.071   2.183  25.140 -0.2210  0.0411  0.4622
43306W        W52106  21.045   1.541  30.072  0.0621 -0.0534  0.0157
43307W        W52107   2.169   2.883   2.329 -0.0214 -0.3139  0.0476
43308W        W52108  10.152   0.016  25.386 -0.2759  0.2664 -0.0070
43309W        W52109   9.463   0.199  10.306 -0.1977 -0.0221 -0.1452
43310W        W52110  12.630   0.027  26.131  0.2722 -0.0053  0.1700
43311W        W52111  15.715   5.787   4.805 -0.1816  0.1480 -0.2450
43312W        W52112  22.663   0.320  32.202  0.1289  0.0054  0.0556
43313W        W52113  19.998   0.872  15.135 -0.0573 -0.0312  0.2353
43314W        W52114  21.211   3.879  31.206  0.2587  0.0889  0.2859
43315W        W52115   1.814   3.856   0.888  0.1038 -0.0061 -0.1604
43316W        W52116  22.585   5.502   9.644  0.0531 -0.2037 -0.0486
43317W        W52117   0.234   2.604  19.848 -0.1716  0.1945  0.2785
43318W        W52118  22.499   4.396   5.706  0.4249  0.0964  0.2551
43319W        W52119  16.585   3.087  28.275 -0.2605 -0.1205  0.4595
43320W        W52120   4.853   5.876  27.860  0.0423  0.1735 -0.3125
43321W        W52121  23.851   4.345   4.668  0.1119 -0.5219  0.2240
43322W        W52122  14.024   4.169   9.351  0.1386  0.2764  0.0151
43323W        W52123  18.189   0.614  11.427  0.2791  0.3784 -0.0347
43324W        W52124  16.084   4.285  29.362  0.0972 -0.1412 -0.0338
43325W        W52125  24.600   0.209  34.975  0.1210  0.1187 -0.1639
43326W        W52126   6.940   4.875   1.580  0.0994  0.2099  0.1997
43327W        W52127  12.173   2.249   1.677  0.2033  0.0524 -0.0297
43328W        W52128  12.273   2.180  22.541  0.0229 -0.0935 -0.3231
43329W        W52129   9.165   5.029  13.337 -0.0824  0.2017  0.2311
43330W        W52130  11.163   6.474  12.693  0.0406 -0.0114  0.0942
43331W        W52131  14.867   6.426   0.635  0.0012  0.2529 -0.0360
43332W        W52132   4.769   3.665   8.343 -0.3550 -0.0238 -0.1773
43333W        W52133   7.618   6.367   7.142 -0.1088  0.0471  0.4026
43334W        W52134  19.898   4.566  31.386  0.1137  0.1339 -0.1494
43335W        W52135   5.301   3.529  33.455 -0.3751  0.0173  0.0074
43336W        W52136   8.627   1.115  33.012  0.1178  0.0239  0.1838
43337W        W52137   2.379   3.081  34.424  0.2567 -0.0201  0.1905
43338W        W52138   2.728   0.719   8.690  0.0625  0.0876  0.1562
43339W        W52139  19.344   1.836   7.885  0.1790 -0.1423  0.0498
43340W        W52140  18.218   5.254  30.188 -0.1399  0.1851 -0.0827
43341W        W52141   0.700   6.222   3.162 -0.1250  0.0817 -0.0107
43342W        W52142  23.147   2.643  31.288  0.0660  0.0761 -0.0829
43343W        W52143  21.906   3.974  22.842 -0.2673  0.1359 -0.0170
43344W        W52144   2.567   3.973  13.102 -0.4876 -0.2689  0.1298
43345W        W52145  26.300   3.470  24.696  0.2472 -0.0328  0.0741
43346W        W52146  24.893   0.376  23.202  0.1481 -0.3436  0.0866
43347W        W52147  21.876   0.697   5.137 -0.1411 -0.0424  0.0445
43348W        W52148  24.951   0.533  31.916 -0.2486 -0.2874 -0.1199
43349W        W52149  26.025   3.913  10.014 -0.0238 -0.2061  0.1217
43350W        W52150  14.171   3.244  23.886 -0.1034  0.0902 -0.0493
43351W        W52151   1.665   0.606   5.390  0.0523  0.1784 -0.0715
43352W        W52152   8.773   1.826  25.082  0.0077  0.1334  0.1454
43353W        W52153   4.420   2.888   0.137 -0.1239 -0.2543 -0.0538
43354W        W52154  15.789   1.951  32.189  0.1911  0.1808  0.0091
43355W        W52155  21.094   5.809  33.194  0.1992  0.2218  0.1596
43356W        W52156  21.324   0.559  30.061 -0.0533  0.1030 -0.2066
43357W        W52157   1.224   0.755   6.293 -0.1733  0.1643 -0.0871
43358W        W52158   2.810   4.865  29.233  0.0010 -0.1991 -0.2789
43359W        W52159  23.729   2.907   9.964 -0.1578  0.0476 -0.1234
43360W        W52160  13.870   5.437  14.790 -0.0919  0.0804 -0.0874
43361W        W52161  25.946   0.568  20.911 -0.0564 -0.1072 -0.2616
43362W        W52162  11.607   1.469  10.823 -0.1832  0.0537  0.3445
43363W        W52163   9.767   2.918  35.969  0.4030  0.1921 -0.3150
43364W        W52164   9.916   3.410  32.515 -0.3169  0.0971 -0.1127
43365W        W52165  15.969   1.520  14.271 -0.3126 -0.1446 -0.0830
43366W        W52166  14.973   0.755  28.343 -0.0260  0.1363  0.1079
43367W        W52167   5.251   2.840  22.019  0.0799  0.0806 -0.1950
43368W        W52168  10.983   6.068  36.092  0.0635 -0.1633 -0.2503
43369W        W52169   7.317   4.393  23.913 -0.3608  0.1339  0.0046
43370W        W52170   3.393   2.213  10.623 -0.1201 -0.1397  0.1351
43371W        W52171   0.218   0.029  21.304 -0.1324  0.3321  0.2205
43372W        W52172   7.407   3.022  32.191 -0.0439  0.0033  0.1738
43373W        W52173   0.953   5.949   0.515  0.1361 -0.1018  0.0951
43374W        W52174   7.097   0.949   9.307  0.0787  0.3263 -0.4772
43375W        W52175  18.056   0.620   6.255  0.1731  0.1916 -0.0133
43376W        W52176  26.087   1.429  10.214  0.0934  0.2734  0.1580
43377W        W52177  24.099   3.623  26.655  0.1153  0.0294  0.2631
43378W        W52178  18.630   2.924  28.064  0.2252  0.1361  0.1063
43379W        W52179  21.383   4.275   5.223 -0.0223 -0.0872  0.0177
43380W        W52180  19.498   4.846  24.311  0.0086 -0.0341 -0.3227
43381W        W52181  13.403   3.668  25.010  0.3823  0.0948 -0.2831
43382W        W52182  19.639   1.834  25.091  0.1112  0.0093  0.3800
43383W        W52183   2.322   3.513   3.921  0.0208 -0.2664  0.1894
43384W        W52184  21.928   3.741   0.723 -0.2030  0.0484 -0.2508
43385W        W52185  20.224   5.469  26.403  0.1186  0.1865  0.1301
43386W        W52186   0.467   0.912  20.660 -0.0624 -0.3079  0.0135
43387W        W52187   0.039   6.579   1.804  0.2055 -0.0589  0.0528
43388W        W52188   0.124   3.856  24.878 -0.1217  0.1236  0.2246
43389W        W52189  23.055   2.760  25.675  0.0484  0.0363  0.2623
43390W        W52190   1.846   1.883  35.080  0.0873 -0.0499  0.2109
43391W        W52191   8.120   0.459  25.529 -0.0693  0.2175 -0.1948
43392W        W52192   0.444   5.471   2.034 -0.0172  0.1088 -0.0754
43393W        W52193   1.321   2.231  22.118  0.2677  0.4094 -0.3295
43394W        W52194   1.287   0.391  20.577 -0.0458  0.1227 -0.0818
43395W        W52195  20.545   2.069  26.209 -0.2450  0.0599  0.1773
43396W        W52196  24.985   6.295  20.721 -0.1414  0.0527  0.0870
43397W        W52197  20.796   0.332  24.685 -0.1916 -0.0052  0.0489
43398W        W52198   4.273   4.942   6.400  0.0312 -0.1341 -0.2512
43399W        W52199  17.869   2.034   4.724 -0.1879  0.0299 -0.1421
43400W        W52200  25.356   4.232   7.544 -0.1778 -0.2374 -0.0483
43401W        W52201  11.579   0.153   0.956 -0.0620  0.2498  0.1648
43402W        W52202  16.853   3.476  15.846 -0.3385  0.0489 -0.1462
43403W        W52203   9.595   5.465   1.094  0.1137  0.1730 -0.3681
43404W        W52204   7.371   2.721  34.501 -0.0896  0.1769 -0.0424
43405W        W52205  15.887   4.489   0.508 -0.2640  0.2542  0.0092
43406W        W52206   0.650   1.195   6.928  0.0135 -0.0595  0.2107
43407W        W52207  18.117   4.200  24.932 -0.0537 -0.2447 -0.1763
43408W        W52208  21.818   3.887   2.962 -0.2570 -0.0950 -0.1337
43409W        W52209   5.566   4.843   5.138  0.0590  0.1020 -0.0713
43410W        W52210  14.204   2.087   2.998 -0.0792  0.0354 -0.2227
43411W        W52211  12.726   4.631   1.223 -0.0542 -0.0002 -0.0052
43412W        W52212   0.425   2.964  27.080  0.0351 -0.0581  0.2227
43413W        W52213  10.826   0.535  31.620  0.1112 -0.2105  0.0267
43414W        W52214   2.201   0.452  14.036  0.1300 -0.0960  0.3503
43415W        W52215  21.017   1.151   4.751 -0.0610  0.0533  0.6260
43416W        W52216  15.113   5.870  21.244  0.1925  0.1910 -0.2041
43417W        W52217   5.242   4.543  13.990  0.0879  0.2617 -0.0137
43418W        W52218  25.566   3.390   3.978  0.5125 -0.3377  0.0589
43419W        W52219   3.598   2.398   4.310  0.2733 -0.0039 -0.1607
43420W        W52220   5.073   0.037  20.629  0.1034 -0.1841  0.0999
43421W        W52221  19.140   1.463   5.660  0.1418  0.1828  0.1410
43422W        W52222   7.498   4.363  21.852 -0.0236  0.2321  0.2313
43423W        W52223  25.375   3.993  25.652 -0.0611 -0.7069 -0.0354
43424W        W52224  19.514   4.653   5.657 -0.5355  0.0966  0.0392
43425W        W52225   8.827   5.485  28.756  0.0305 -0.1023 -0.0096
43426W        W52226  13.853   2.349  11.358 -0.0464  0.0499 -0.1293
43427W        W52227   7.982   0.873  34.960 -0.3516 -0.2624 -0.1717
43428W        W52228  11.564   3.106   0.117  0.3191 -0.3224 -0.0087
43429W        W52229  11.690   5.506  31.518 -0.0107 -0.0184  0.0076
43430W        W52230   7.625   0.124  24.702 -0.0776 -0.2037 -0.1743
43431W        W52231  23.214   2.833  29.020 -0.0938 -0.1712 -0.2022
43432W        W52232   3.623   1.674  26.411  0.1846 -0.1915  0.3688
43433W        W52233   9.938   5.816   9.103  0.2740 -0.0209  0.1481
43434W        W52234   5.310   3.471  13.303  0.0012 -0.0354  0.0636
43435W        W52235  17.257   6.185   3.038  0.0619  0.1583  0.2254
43436W        W52236  18.552   3.140  27.030  0.0028  0.0351  0.1808
43437W        W52237  14.732   6.472  35.410 -0.2203  0.0115 -0.1883
43438W        W52238  25.983   2.295   5.362  0.0241  0.0810 -0.3268
43439W        W52239   4.879   1.738  14.979 -0.3631 -0.0167 -0.2117
43440W        W52240  18.203   5.155  34.510  0.0455 -0.0869 -0.0010
43441W        W52241   6.227   0.788  15.462  0.0035  0.1254 -0.1415
43442W        W52242  22.010   3.069  30.842  0.0681  0.0629 -0.1589
43443W        W52243   1.803   5.434  28.588 -0.0889 -0.0828  0.0816
43444W        W52244   5.528   4.997   8.938  0.0573 -0.0247  0.0534
43445W        W52245   5.111   3.328  25.100 -0.3324 -0.1300 -0.1551
43446W        W52246   5.244   4.995   1.543 -0.0320  0.1742  0.0127
43447W        W52247   9.205   2.233   1.169  0.1330 -0.0702 -0.1461
43448W        W52248  25.248   5.584  29.192  0.1527  0.1190 -0.0319
43449W        W52249  13.974   0.889  34.302 -0.1722 -0.2143  0.0723
43450W        W52250  21.366   5.303  21.965 -0.2049 -0.1162 -0.2087
43451W        W52251  23.345   0.374  28.513 -0.2799 -0.1045 -0.1226
43452W        W52252  13.868   1.305  23.977 -0.0379 -0.1107  0.2099
43453W        W52253  14.663   4.624  22.826 -0.0936 -0.1595  0.1174
43454W        W52254  15.219   0.812  36.081 -0.0031 -0.0527 -0.2026
43455W        W52255  16.289   0.270  14.325 -0.0794 -0.1260 -0.1371
43456W        W52256  22.023   2.380  30.387 -0.0730 -0.0272 -0.0454
43457W        W52257  12.505   1.370  21.476  0.0917  0.0052  0.0474
43458W        W52258   4.581   0.792  29.781  0.2339  0.1318 -0.1114
43459W        W52259   6.015   1.276   2.531  0.0823  0.1109 -0.1166
43460W        W52260  20.292   1.443  13.349  0.0911  0.1799  0.0145
43461W        W52261  17.399   3.547  27.233 -0.2356  0.0451 -0.0666
43462W        W52262  11.656   1.253  12.203  0.0318 -0.3878  0.0433
43463W        W52263  18.838   4.821  27.585 -0.2608 -0.0039  0.0607
43464W        W52264   1.421   5.943  10.031 -0.2676 -0.1291 -0.2118
43465W        W52265   0.774   3.385  29.582  0.0433  0.0263  0.0373
43466W        W52266  13.816   0.560   0.599 -0.0078  0.0491 -0.1745
43467W        W52267  20.622   0.773   7.456  0.0451  0.2436 -0.1018
43468W        W52268   8.816   2.646  11.036 -0.0567 -0.0739  0.2537
43469W        W52269  23.280   3.378   9.376  0.2011 -0.0982 -0.2581
43470W        W52270  19.469   5.673  13.510  0.1823  0.1222  0.0790
43471W        W52271  12.882   3.294  31.308 -0.2504  0.3498 -0.0720
43472W        W52272  17.343   0.569   2.048 -0.0614  0.0432 -0.1025
43473W        W52273  18.138   1.813  31.774  0.0727 -0.1593 -0.0278
43474W        W52274  10.303   3.664  33.973  0.0165  0.1762 -0.1433
43475W        W52275  18.828   5.663  24.418  0.0012 -0.2734 -0.1911
43476W        W52276   8.898   0.947  32.494  0.1902 -0.0288 -0.0923
43477W        W52277  20.920   1.502   6.979 -0.1086 -0.0886 -0.0493
43478W        W52278  14.973   3.076   3.430 -0.1717  0.1244  0.2421
43479W        W52279  21.252   0.654  26.002 -0.2802 -0.1377  0.1758
43480W        W52280  14.273   5.297  36.067  0.0525 -0.3785  0.1194
43481W        W52281   0.999   1.849  28.394 -0.1643  0.2820  0.0611
43482W        W52282   1.315   3.166  21.189  0.1073  0.0269  0.2899
43483W        W52283  17.309   4.693   2.782 -0.3405 -0.1755 -0.1284
43484W        W52284   7.898   5.873  21.204  0.3787 -0.0400 -0.1557
43485W        W52285   0.735   0.062   0.076 -0.2361  0.0520 -0.1499
43486W        W52286   4.119   3.852  33.024  0.1255  0.1081 -0.1094
43487W        W52287  20.612   3.662  14.528 -0.1052  0.1121 -0.1408
43488W        W52288  23.640   4.665  13.667  0.0159 -0.1044 -0.0267
43489W        W52289  22.489   0.965  14.533  0.0974 -0.1763  0.0699
43490W        W52290   7.033   0.827   1.324  0.1330  0.2383 -0.0049
43491W        W52291   8.812   3.995  14.882 -0.3410  0.0391  0.1876
43492W        W52292  14.977   3.977  32.745  0.0974 -0.1181  0.1841
43493W        W52293  11.580   5.171  27.440 -0.1467  0.0424 -0.2141
43494W        W52294  25.023   4.477   1.151  0.0273  0.1648  0.1596
43495W        W52295  25.691   2.333  29.860 -0.0554 -0.0521  0.2438
43496W        W52296  17.277   1.322  30.871 -0.1693 -0.0998  0.0167
43497W        W52297  22.253   5.690  27.952 -0.0348  0.1744  0.1833
43498W        W52298  25.066   3.754   1.805  0.0887 -0.4810 -0.0803
43499W        W52299  15.869   1.920  13.938 -0.1339  0.0306 -0.1297
43500W        W52300  15.812   5.538   6.642  0.0043 -0.0403  0.1289
43501W        W52301  25.103   0.081  35.990 -0.3215  0.3359  0.5369
43502W        W52302   2.454   6.472  30.628 -0.1505 -0.0625 -0.1463
43503W        W52303  19.947   1.452  33.525  0.3353 -0.3143 -0.0099
43504W        W52304   6.684   4.634  35.719  0.1597  0.0322 -0.0380
43505W        W52305  25.698   5.055  29.634 -0.1454 -0.0325 -0.0651
43506W        W52306  20.485   5.409  28.307  0.2148  0.3106 -0.0607
43507W        W52307  25.119   0.290  11.900  0.1212  0.1230  0.1257
43508W        W52308  17.361   2.800   5.248 -0.1509 -0.1110 -0.1299
43509W        W52309   3.299   0.393  10.268  0.2359 -0.0293 -0.2545
43510W        W52310   4.908   2.377   8.819  0.2191  0.0217  0.0997
43511W        W52311  18.390   5.254   3.425 -0.1661  0.0106  0.0756
43512W        W52312   4.847   6.108   6.550  0.0248  0.0476  0.3955
43513W        W52313  11.267   2.587   3.866  0.2425 -0.0776 -0.0846
43514W        W52314  22.128   4.129   5.536  0.0959  0.0367 -0.0135
43515W        W52315  12.012   0.117   2.510  0.1717  0.3647  0.0332
43516W        W52316  14.071   4.352   6.278  0.0082 -0.0117 -0.1046
43517W        W52317  18.781   3.177  21.851  0.0535  0.0704 -0.0909
43518W        W52318   3.288   0.073  29.972  0.0277 -0.1458  0.5109
43519W        W52319   9.667   1.154  24.542 -0.0386 -0.0747 -0.2014
43520W        W52320  19.054   6.167  12.434  0.5270 -0.1447  0.1253
43521W        W52321  15.192   5.204  23.291  0.0458 -0.0256  0.0526
43522W        W52322   4.609   6.511  22.534  0.1700 -0.2704  0.0472
43523W        W52323   8.646   6.310   0.593  0.0505  0.0013  0.2446
43524W        W52324   9.128   0.249  12.335  0.1349 -0.2804  0.2516
43525W        W52325  23.651   5.366   1.977 -0.1629 -0.4370  0.1482
43526W        W52326  13.302   2.496   8.088 -0.1635  0.2747 -0.1694
43527W        W52327  13.475   6.253  33.000  0.2973  0.1259 -0.0219
43528W        W52328  26.130   5.471   3.098  0.1466  0.1025 -0.2729
43529W        W52329  17.948   1.953  13.247  0.0599  0.1692 -0.0509
43530W        W52330  13.752   3.931  24.705 -0.2826 -0.0060 -0.0605
43531W        W52331  18.255   2.939  29.520  0.0582 -0.3460  0.0644
43532W        W52332   5.220   6.180  26.242  0.1106 -0.1161 -0.1980
43533W        W52333  17.327   5.212  22.115  0.2121  0.0129 -0.1675
43534W        W52334  15.765   5.779  26.338 -0.0866 -0.1072  0.0663
43535W        W52335  10.871   1.572  13.631  0.0880 -0.3079  0.1063
43536W        W52336  23.472   3.744  20.486 -0.1354 -0.4157  0.0671
43537W        W52337  13.189   2.152  33.736 -0.0570  0.0468  0.1188
43538W        W52338  16.883   0.363   9.405  0.0051 -0.0706  0.1098
43539W        W52339  14.275   4.637   2.475 -0.1322  0.2414 -0.1415
43540W        W52340   8.978   2.202  29.676 -0.0710 -0.1503 -0.2813
43541W        W52341  11.899   4.729  29.765 -0.1455  0.1866  0.1105
43542W        W52342  12.578   2.184  15.526  0.0656  0.2690 -0.0972
43543W        W52343  10.070   5.576   1.154 -0.2405  0.3310  0.2251
43544W        W52344  16.237   2.357  33.043 -0.0888  0.0199  0.2409
43545W        W52345   4.025   5.581  14.793 -0.3197  0.0009  0.0522
43546W        W52346  15.748   5.768   4.253 -0.0623 -0.0145  0.2730
43547W        W52347   0.601   5.730   3.343  0.0044  0.1206  0.2523
43548W        W52348   4.743   0.530  33.388 -0.0378 -0.0652  0.2080
43549W        W52349  25.492   1.620   1.677  0.2039 -0.0588 -0.0921
43550W        W52350  13.708   1.097   7.376 -0.1532 -0.2732  0.1643
43551W        W52351   4.091   1.618  32.262  0.2506 -0.4966  0.2724
43552W        W52352   4.542   3.581   0.466  0.4181 -0.1954  0.1386
43553W        W52353  23.172   3.264  13.316  0.1453  0.1888 -0.2107
43554W        W52354   8.098   3.053  27.069 -0.0759 -0.0409 -0.1554
43555W        W52355  23.033   1.270  11.469 -0.1287 -0.3557  0.1507
43556W        W52356   9.738   4.210   7.633  0.2972  0.2002 -0.2139
43557W        W52357   8.498   2.981   4.583  0.0681 -0.0573 -0.0587
43558W        W52358   3.866   1.580  11.941 -0.2730  0.1162 -0.2072
43559W        W52359  11.687   0.088  10.702 -0.0109  0.0988  0.2500
43560W        W52360  11.463   0.175   2.860 -0.1242  0.0122  0.1334
43561W        W52361  11.016   5.242  10.233 -0.0753 -0.0330 -0.2787
43562W        W52362  16.720   2.625   0.153 -0.2898 -0.0152  0.0910
43563W        W52363   1.043   6.356   3.538 -0.0388 -0.0367 -0.0675
43564W        W52364  25.417   6.272   8.427  0.0468 -0.2129 -0.0194
43565W        W52365  17.228   6.122   6.035 -0.0629 -0.0036  0.3258
43566W        W52366  12.719   3.728  36.180  0.2139 -0.3651 -0.1418
43567W        W52367  17.913   2.383  22.219  0.0508  0.4997 -0.3866
43568W        W52368   8.104   3.226  33.068 -0.1321 -0.1653  0.1054
43569W        W52369   6.725   4.840   7.559 -0.1130 -0.0622  0.0300
43570W        W52370  16.691   2.522  23.730  0.2097 -0.0929  0.1385
43571W        W52371   9.562   0.772   2.793 -0.1185  0.0001 -0.0755
43572W        W52372   3.267   3.073   1.205  0.1869 -0.1989 -0.2620
43573W        W52373   9.956   3.897  11.187  0.0416  0.1919  0.2723
43574W        W52374  16.510   5.511  24.532  0.0672 -0.1638 -0.0620
43575W        W52375   1.286   4.279   6.675  0.0457  0.2918 -0.3569
43576W        W52376  18.981   1.268  29.528 -0.1775  0.2128 -0.0473
43577W        W52377   4.874   0.807  28.960  0.3234  0.2403 -0.2488
43578W        W52378  10.795   4.299  11.600  0.1361 -0.1989  0.3220
43579W        W52379  20.151   4.889  25.211  0.1823  0.0742  0.0244
43580W        W52380  24.052   5.325   0.782  0.1582 -0.0202  0.3430
43581W        W52381  13.744   0.079   8.269  0.0062  0.1269 -0.3146
43582W        W52382   0.852   2.247  11.043 -0.0461 -0.3322 -0.2480
43583W        W52383   8.885   2.850   8.440 -0.2743 -0.1185  0.2046
43584W        W52384   0.188   3.179   7.764 -0.2156  0.0198  0.1389
43585W        W52385  13.927   0.070  22.581 -0.3342 -0.0556 -0.2598
43586W        W52386   7.427   4.029   5.029  0.1028 -0.4122  0.0108
43587W        W52387   9.893   1.087  12.945  0.0916 -0.1624 -0.4195
43588W        W52388  23.763   3.414  31.830 -0.0509  0.1796 -0.1019
43589W        W52389  18.952   2.907   7.256  0.0298  0.0739  0.1989
43590W        W52390   7.580   4.267   5.445  0.2235 -0.0596 -0.0433
43591W        W52391  19.170   1.873  27.868  0.0637  0.1000 -0.1140
43592W        W52392   6.318   1.760   1.940 -0.1154 -0.3177 -0.2837
43593W        W52393  26.319   0.196  21.680 -0.0926  0.0700 -0.0813
43594W        W52394   3.523   3.655  21.899  0.1997  0.0648 -0.2658
43595W        W52395  11.138   4.266  29.435  0.0536 -0.0912 -0.3128
43596W        W52396   9.843   2.498  27.395  0.0422  0.1320 -0.0261
43597W        W52397  15.240   2.820  24.388 -0.1080  0.0725  0.0598
43598W        W52398   7.764   5.231  24.845 -0.1866  0.2503 -0.5143
43599W        W52399  24.978   3.855   8.960  0.1640  0.0032  0.1554
43600W        W52400   0.412   1.068   5.952 -0.0289  0.1732  0.1114
43601W        W52401   7.478   3.204  25.470 -0.0886  0.1287  0.1110
43602W        W52402  17.746   3.887  21.100 -0.0291  0.2959 -0.1592
43603W        W52403   2.767   5.135  22.541  0.0774  0.0813  0.1080
43604W        W52404   7.638   0.262   8.384 -0.2808  0.0600  0.0502
43605W        W52405  18.466   4.035   4.432  0.0210  0.2770  0.1717
43606W        W52406  23.865   3.649   0.735  0.3277 -0.0587 -0.2019
43607W        W52407  23.455   4.949  27.121  0.3205  0.0224 -0.1897
43608W        W52408  17.018   2.388  28.204 -0.0777  0.2168 -0.1772
43609W        W52409  17.009   5.434  11.018 -0.1293 -0.2727 -0.2973
43610W        W52410  11.643   0.654   6.565  0.1294  0.2092  0.1660
43611W        W52411  25.363   5.157   4.300 -0.1612 -0.3135 -0.0533
43612W        W52412  20.827   4.833  31.727  0.1052  0.0806 -0.0918
43613W        W52413  13.702   5.981  29.872 -0.3336  0.3973  0.2447
43614W        W52414   8.260   6.323  10.782 -0.1506 -0.0193 -0.0884
43615W        W52415  20.384   2.041  35.780  0.2721 -0.0701 -0.1942
43616W        W52416   4.701   0.506  28.341 -0.2291  0.2372  0.0728
43617W        W52417  14.607   4.121   1.772 -0.0063  0.1933 -0.1946
43618W        W52418   6.703   4.342  13.826  0.1278 -0.2156 -0.1512
43619W        W52419  22.044   5.896  22.355 -0.1393 -0.2872 -0.2747
43620W        W52420  17.501   4.265   4.107 -0.0197 -0.1509  0.1054
43621W        W52421  19.431   0.146  28.267  0.3590  0.2718  0.0323
43622W        W52422  11.351   4.035   5.654  0.3501 -0.1606  0.2207
43623W        W52423  21.580   2.325  35.838 -0.0387 -0.0453 -0.0107
43624W        W52424  15.754   1.259   3.690  0.2517  0.1193 -0.0374
43625W        W52425   9.707   1.936  26.631 -0.0023  0.2502  0.0396
43626W        W52426   8.709   4.930  27.891  0.0733  0.1122  0.1057
43627W        W52427   7.465   1.586  28.037 -0.1501 -0.1333 -0.1281
43628W        W52428  19.602   2.920  12.721  0.2504  0.1812 -0.1501
43629W        W52429  14.007   5.623  32.829 -0.3978  0.1081 -0.1160
43630W        W52430   2.893   4.465  28.142  0.1809  0.0927 -0.0177
43631W        W52431  16.791   2.063  11.411  0.3096  0.1858  0.1322
43632W        W52432  14.840   2.440  28.193 -0.0729 -0.0223 -0.1493
43633W        W52433   8.277   1.702  10.131 -0.1395 -0.2089 -0.0484
43634W        W52434  14.056   4.895  30.400  0.0316  0.2453  0.0920
43635W        W52435   2.937   2.683  27.341  0.1476  0.0394 -0.2538
43636W        W52436   6.028   4.665  12.821 -0.1688 -0.0010  0.2326
43637W        W52437  14.362   3.075  15.353  0.1952  0.2172  0.2597
43638W        W52438  12.912   0.187   8.737  0.1688  0.1025  0.0387
43639W        W52439  12.438   4.102   0.544  0.1807  0.0945  0.0221
43640W        W52440   7.144   5.727   2.391 -0.0805 -0.0681 -0.1169
43641W        W52441  23.972   6.603  35.739  0.3796  0.3634  0.3584
43642W        W52442  25.380   5.475  12.431 -0.1357  0.0976 -0.2285
43643W        W52443   8.330   2.001  15.389  0.0839 -0.1609  0.0410
43644W        W52444  14.765   3.166  26.379  0.0418  0.2079  0.0678
43645W        W52445  18.372   1.195  14.166  0.0643 -0.0288  0.1320
43646W        W52446   5.883   3.428  29.102  0.0714  0.0823 -0.1558
43647W        W52447   7.343   2.089  34.369 -0.2967 -0.1748  0.4802
43648W        W52448  11.689   4.072   6.246 -0.4134 -0.5419 -0.1290
43649W        W52449  22.321   1.144  30.578  0.0493 -0.0333 -0.1348
43650W        W52450   7.406   6.082  29.116 -0.1102 -0.2544  0.2119
43651W        W52451   8.347   3.196  12.801  0.0721  0.0416  0.0017
43652W        W52452   6.514   1.969   8.794 -0.0227  0.2291  0.3107
43653W        W52453  21.507   5.261  10.437 -0.0767 -0.3905  0.1363
43654W        W52454  19.624   2.218   2.012 -0.0083 -0.3243 -0.3780
43655W        W52455  25.475   3.407   5.729 -0.0833  0.0720  0.0265
43656W        W52456   0.107   6.477  24.112 -0.1550  0.1787  0.0573
43657W        W52457   8.939   2.766  10.534 -0.2253  0.2990 -0.0504
43658W        W52458  16.729   3.844   9.976 -0.1566  0.0886  0.4215
43659W        W52459   8.965   0.908   0.861 -0.2339  0.1340 -0.1622
43660W        W52460   2.618   4.653  22.758  0.1143 -0.0994 -0.1143
43661W        W52461  24.382   2.262  24.498 -0.2342 -0.3381  0.4995
43662W        W52462   0.995   3.797  23.000  0.2471 -0.1565 -0.1566
43663W        W52463  24.468   4.162  32.123  0.5320  0.1068  0.1605
43664W        W52464  19.015   4.436  30.963 -0.3464  0.2842  0.2594
43665W        W52465  15.472   3.499  30.999  0.3188 -0.3720 -0.0142
43666W        W52466  15.251   0.235  32.316 -0.1703  0.0017 -0.1986
43667W        W52467  22.500   6.519  10.702 -0.2421  0.0507 -0.0056
43668W        W52468   2.839   1.514   2.214  0.1687 -0.4268  0.1917
43669W        W52469  24.968   5.234   5.391  0.0043  0.2105  0.1599
43670W        W52470  25.548   1.054   9.443 -0.0193  0.2510  0.3304
43671W        W52471  20.550   0.731  23.308 -0.4324 -0.1301 -0.1070
43672W        W52472  12.165   1.746  26.472 -0.0100 -0.0069  0.3826
43673W        W52473   8.354   2.237  26.363 -0.3056  0.0802  0.3874
43674W        W52474  15.812   0.545  23.372  0.1114 -0.1673 -0.0332
43675W        W52475  18.827   5.570  33.997 -0.1979  0.2693  0.1183
43676W        W52476  21.327   2.204   3.013 -0.0028  0.1675  0.0074
43677W        W52477   7.607   3.436  29.774 -0.0957  0.1570 -0.0294
43678W        W52478   0.339   0.126  11.930 -0.0474 -0.2430 -0.0977
43679W        W52479   7.092   5.746  12.095  0.0195 -0.1582  0.0655
43680W        W52480  16.545   4.496  32.495 -0.0656 -0.0878  0.0515
43681W        W52481  14.246   6.208  29.937 -0.1559  0.1259 -0.3105
43682W        W52482  24.507   4.896  27.116 -0.0463  0.1377 -0.0252
43683W        W52483  25.840   5.990  24.507 -0.0771  0.1693  0.3407
43684W        W52484  25.581   2.395  10.914  0.0810 -0.2780 -0.1310
43685W        W52485  10.310   3.052   4.537  0.2483  0.1209 -0.0356
43686W        W52486  18.206   1.172  10.708  0.3716  0.0892  0.3800
43687W        W52487   2.572   6.496  33.231 -0.1015 -0.0663  0.4200
43688W        W52488   3.083   1.844  22.559 -0.1427  0.1379 -0.0902
43689W        W52489   2.635   6.009  32.215 -0.2189 -0.2439 -0.0364
43690W        W52490  11.788   0.280   7.748  0.0867  0.0090 -0.0122
43691W        W52491   6.029   3.825  12.306  0.1069  0.0832 -0.0834
43692W        W52492   9.589   5.357  23.522 -0.2284 -0.0099 -0.0824
43693W        W52493  17.342   5.081   6.172  0.2243 -0.2071  0.0449
43694W        W52494   0.833   1.056  22.434 -0.1610  0.1217 -0.1474
43695W        W52495   9.334   2.908   7.532  0.3049  0.0350 -0.2174
43696W        W52496  23.130   4.408  27.100  0.2361  0.0330  0.0304
43697W        W52497  14.615   0.511  11.091 -0.1249  0.3009 -0.1201
43698W        W52498  14.409   0.703  32.571 -0.0206 -0.1329 -0.0683
43699W        W52499  15.462   0.054   1.969  0.0193  0.1609  0.1535
43700W        W52500  19.518   3.734  33.616  0.0302 -0.0573 -0.0158
43701W        W52501   1.608   3.210  34.348  0.2234  0.2838  0.0285
43702W        W52502  10.787   1.271   3.017  0.1091 -0.0794  0.0750
43703W        W52503   0.698   0.906  11.327  0.0978 -0.0818  0.1545
43704W        W52504   8.677   5.271   1.371  0.1507 -0.1105  0.1156
43705W        W52505   1.457   1.798   5.320  0.2064  0.0483  0.1610
43706W        W52506   6.091   4.702  13.405 -0.1253  0.2823 -0.0930
43707W        W52507  20.327   2.138  30.761 -0.1955 -0.0404  0.3474
43708W        W52508  10.491   2.673  26.891 -0.1252  0.0515 -0.1758
43709W        W52509   1.576   4.108  13.451 -0.1822  0.0638  0.1722
43710W        W52510  17.827   6.320  15.101  0.1040  0.4053  0.4132
43711W        W52511   2.775   0.083  32.805 -0.4126 -0.0907  0.1638
43712W        W52512  22.249   2.911   5.234  0.1484  0.0527  0.1460
43713W        W52513   8.996   5.813  22.199  0.2203 -0.1226 -0.0786
43714W        W52514  18.414   2.303  26.861  0.2642  0.0228  0.2406
43715W        W52515   3.120   1.833  14.758  0.2116 -0.0379 -0.2628
43716W        W52516   3.561   3.299   7.994 -0.2638  0.0425  0.1758
43717W        W52517  12.346   1.930   1.997  0.0268  0.1259 -0.0779
43718W        W52518  14.605   1.709  31.630 -0.2271  0.1154  0.1389
43719W        W52519   9.089   5.514  31.754  0.0262 -0.3016 -0.2571
43720W        W52520   1.596   3.719  26.126  0.4193 -0.2774 -0.1066
43721W        W52521  16.693   1.470  33.143  0.0315  0.3466 -0.1275
43722W        W52522  21.085   1.144   8.606 -0.3696 -0.0510 -0.2367
43723W        W52523  21.557   4.328   7.054  0.0989 -0.0121  0.0186
43724W        W52524  16.207   0.214   8.682  0.0515  0.1102  0.0461
43725W        W52525   0.118   1.343  29.420 -0.0241  0.1470  0.1449
43726W        W52526   5.378   4.717  25.040  0.1026 -0.2062  0.2642
43727W        W52527  23.669   1.145  13.084  0.1772 -0.0404  0.1527
43728W        W52528  11.821   5.347   5.044 -0.0670 -0.1657  0.3880
43729W        W52529   0.418   6.030  35.392  0.0268 -0.0382 -0.1253
43730W        W52530   2.285   0.580  28.479  0.0174  0.0109 -0.3732
43731W        W52531  10.606   2.619   6.358  0.0721  0.1238 -0.2746
43732W        W52532  26.288   2.068   0.826  0.1911  0.1555  0.2700
43733W        W52533   2.203   4.840  29.921 -0.2079 -0.1439 -0.1540
43734W        W52534  15.332   4.940  29.191  0.2154  0.1310  0.3719
43735W        W52535  16.063   4.304   8.032 -0.0791 -0.2653  0.0186
43736W        W52536  26.128   4.172  25.871 -0.1668  0.1560 -0.1619
43737W        W52537  13.870   2.069   5.951 -0.1280 -0.2747 -0.0187
43738W        W52538  17.150   5.615  13.442 -0.0800 -0.5240  0.2149
43739W        W52539   4.485   6.068   5.590 -0.2453  0.2093 -0.1896
43740W        W52540   9.570   4.636  15.516 -0.0984  0.1811  0.1607
43741W        W52541  17.413   1.368   3.316  0.0857 -0.0406 -0.1398
43742W        W52542  13.854   0.349  26.697  0.1059  0.0573  0.0297
43743W        W52543  18.042   0.303   3.842 -0.0749 -0.0477  0.1892
43744W        W52544   7.326   1.622  20.934 -0.0506 -0.0464  0.0369
43745W        W52545  26.050   0.756  27.350 -0.0611  0.1151  0.0757
43746W        W52546  16.106   3.566  34.534  0.0008 -0.2414  0.0048
43747W        W52547  14.315   4.433  24.006  0.2731 -0.1425  0.1772
43748W        W52548   7.503   0.801  34.860  0.0817  0.4093  0.2888
43749W        W52549  16.769   5.189  25.499 -0.0689 -0.1335  0.1627
43750W        W52550  26.423   3.796  32.604  0.1949  0.1357 -0.2171
43751W        W52551  24.608   0.479   7.342  0.1211  0.0238  0.2359
43752W        W52552  23.475   2.221   3.502  0.0562 -0.2699 -0.0683
43753W        W52553   0.465   6.289  14.194  0.0290  0.0765  0.3418
43754W        W52554   0.797   3.870  28.868 -0.3282  0.2721  0.0747
43755W        W52555  26.370   1.377  24.965  0.1494 -0.2016  0.0380
43756W        W52556   3.234   6.058  32.171  0.1596  0.0284  0.3296
43757W        W52557  12.440   6.296  30.826 -0.0217 -0.3597  0.2571
43758W        W52558  15.719   4.889   5.278  0.1951  0.3529 -0.0694
43759W        W52559  15.529   2.496  13.190 -0.1555  0.0950  0.0748
43760W        W52560  25.861   4.818  26.087  0.2749  0.0369  0.0781
43761W        W52561  20.370   0.177  22.663 -0.1316  0.1276 -0.1143
43762W        W52562  11.463   5.369  26.968 -0.3567  0.1257  0.0515
43763W        W52563  24.577   5.934  30.698  0.2929  0.1375 -0.1828
43764W        W52564  26.166   5.705  35.974 -0.1509 -0.0407  0.0057
43765W        W52565   2.360   6.191   6.489  0.1336 -0.2026  0.2046
43766W        W52566  22.039   0.901  32.526 -0.0992  0.4795  0.1655
43767W        W52567   8.509   3.773  28.788 -0.0401  0.3717 -0.0002
43768W        W52568  15.907   5.345   8.379 -0.2121 -0.2653 -0.0152
43769W        W52569  23.605   1.957  14.644  0.3502 -0.1885  0.0124
43770W        W52570   6.198   3.558  22.614  0.0934  0.2248 -0.3654
43771W        W52571  20.707   1.300   7.375  0.2184  0.0780 -0.2585
43772W        W52572   7.421   2.582  30.099  0.3154 -0.1143 -0.1058
43773W        W52573  17.728   3.453   6.329 -0.3089 -0.0125 -0.2752
43774W        W52574  11.331   4.565  35.184  0.0609  0.2512  0.2612
43775W        W52575  16.694   1.360  15.434 -0.5470  0.2146 -0.1908
43776W        W52576  19.896   6.338  21.058  0.1833  0.0214 -0.2393
43777W        W52577  20.877   5.958   9.923  0.0823 -0.0083  0.0644
43778W        W52578  25.292   4.882  29.821 -0.1094 -0.3886 -0.0846
43779W        W52579  10.672   3.827  30.294  0.3826  0.0249  0.0758
43780W        W52580  10.464   3.393  20.461  0.0678 -0.2481 -0.1078
43781W        W52581  12.494   0.596   8.554  0.5520 -0.3230 -0.0766
43782W        W52582  14.531   2.916  22.268 -0.1169 -0.0718 -0.1657
43783W        W52583  17.844   5.317  33.789 -0.0751 -0.0019  0.1579
43784W        W52584  13.297   4.774   6.007 -0.2310 -0.0076 -0.0458
43785W        W52585  17.721   5.077  20.562 -0.0308  0.0815  0.0656
43786W        W52586  15.295   2.921  10.238  0.0215 -0.0015  0.0031
43787W        W52587   4.222   0.855  10.023  0.0872  0.3122 -0.1071
43788W        W52588   5.163   4.763  30.777 -0.1828  0.0855  0.2442
43789W        W52589  19.864   1.937   6.573 -0.1217 -0.0037  0.0191
43790W        W52590  18.868   1.825  29.090  0.1220  0.1780  0.2096
43791W        W52591  21.396   2.357   5.712 -0.0450  0.0807 -0.0875
43792W        W52592  18.402   4.074   5.691 -0.0156 -0.2654 -0.0459
43793W        W52593   7.421   5.209  23.043  0.3379  0.2435 -0.1491
43794W        W52594   9.141   3.037  34.729  0.0564  0.4100 -0.0711
43795W        W52595  25.260   2.773  32.525 -0.1893 -0.4446 -0.3046
43796W        W52596   0.993   0.618  32.985 -0.0348  0.1572  0.1522
43797W        W52597  25.316   6.106  25.479  0.1077  0.0883  0.0427
43798W        W52598  12.015   1.918  13.556  0.0995  0.2873 -0.0641
43799W        W52599  23.356   3.876   2.239 -0.1309 -0.1155  0.3575
43800W        W52600  17.876   4.384  26.798  0.0785 -0.0856  0.0691
43801W        W52601  25.663   1.723   9.207  0.2644 -0.0545 -0.1742
43802W        W52602   9.959   4.020  11.780  0.1878  0.0859 -0.0338
43803W        W52603  20.782   2.069  36.182  0.1915  0.0932  0.1326
43804W        W52604   0.831   3.519   9.677 -0.2970  0.3404  0.0721
43805W        W52605   4.235   1.981  35.644 -0.0721 -0.1673  0.1903
43806W        W52606   5.603   3.915   9.661  0.0864  0.3180  0.1582
43807W        W52607  14.893   2.953  25.002 -0.2598  0.0649 -0.1061
43808W        W52608  22.724   2.487   2.378 -0.1030  0.2078  0.2781
43809W        W52609  24.452   2.839  35.717 -0.0677  0.0848  0.0941
43810W        W52610  19.038   2.986   5.236  0.1183  0.0746  0.0466
43811W        W52611  17.795   0.093   8.955 -0.1742  0.1166 -0.0126
43812W        W52612  18.289   1.760  21.019 -0.2862  0.1063  0.3957
43813W        W52613  10.936   2.519  35.980 -0.2202  0.3144  0.5027
43814W        W52614   5.833   4.168  35.425 -0.0628 -0.3751 -0.0909
43815W        W52615  20.935   2.728  28.947  0.0642 -0.3200  0.1987
43816W        W52616  12.379   5.408  23.589  0.1921  0.4264 -0.0031
43817W        W52617  16.448   6.257   9.958  0.0926  0.1310 -0.0684
43818W        W52618  17.319   1.446  25.877 -0.0275  0.0275  0.1723
43819W        W52619  14.998   4.257  23.548 -0.0728 -0.0911  0.0572
43820W        W52620  26.224   0.316  20.387  0.1875  0.0764 -0.1364
43821W        W52621  22.785   5.965   2.063 -0.1689 -0.2812  0.0235
43822W        W52622  16.594   3.720  24.766  0.0501 -0.0481 -0.0896
43823W        W52623   6.710   3.834   0.178 -0.1336  0.0778 -0.0338
43824W        W52624  23.119   5.770  10.855  0.1147  0.1507 -0.0725
43825W        W52625   7.778   0.268  22.319  0.0107  0.0127 -0.1118
43826W        W52626   1.733   4.012  34.364  0.0094  0.0246 -0.1387
43827W        W52627   9.103   2.826  23.730 -0.0205  0.1834  0.0109
43828W        W52628  25.884   0.846  11.978 -0.0543 -0.0938 -0.0882
43829W        W52629  16.062   3.607   1.618 -0.0746  0.3009  0.4262
43830W        W52630  23.147   2.125  24.061 -0.0380  0.3171  0.0953
43831W        W52631  15.767   4.971   8.678 -0.2961  0.1376 -0.0809
43832W        W52632  23.654   2.535   4.049  0.4323  0.3197 -0.0124
43833W        W52633   6.067   1.716   0.354 -0.2007  0.3072  0.0006
43834W        W52634  25.724   6.088   9.081  0.1269  0.0280  0.2843
43835W        W52635  20.294   1.269  29.192 -0.0748 -0.0630  0.0726
43836W        W52636  10.594   1.211   8.095  0.1581  0.0452 -0.0487
43837W        W52637  24.102   1.721  21.758 -0.2092 -0.2028 -0.1034
43838W        W52638   2.190   5.493   5.363 -0.0164  0.0442 -0.0246
43839W        W52639   3.748   4.530   7.618  0.5323  0.0885 -0.0255
43840W        W52640   9.708   0.906  32.330 -0.1151  0.0982  0.1423
43841W        W52641  20.907   1.573  20.634 -0.1002  0.1365  0.0988
43842W        W52642  10.358   2.884  11.855 -0.0063 -0.0790 -0.1856
43843W        W52643  13.639   3.875  12.864  0.1376 -0.2854  0.1266
43844W        W52644  23.535   0.043  20.546 -0.2774 -0.2817  0.0485
43845W        W52645  25.569   3.576   1.866  0.0387  0.0038  0.0330
43846W        W52646  11.228   3.178  30.621 -0.1924 -0.1479 -0.0290
43847W        W52647   5.115   2.361  10.085 -0.1991  0.0999  0.3241
43848W        W52648  13.227   4.537  33.796  0.1990  0.1273 -0.1514
43849W        W52649  22.991   2.237  10.146 -0.0940 -0.2607  0.3831
43850W        W52650   7.416   1.461  22.141  0.1410 -0.1411  0.1665
43851W        W52651   8.635   6.172   7.165 -0.1803 -0.0279 -0.1811
43852W        W52652   1.866   1.142  20.408  0.4122  0.0342  0.1361
43853W        W52653  11.532   2.736  35.044 -0.0897 -0.0215 -0.0498
43854W        W52654   2.379   3.019  22.212 -0.1372 -0.3877  0.1600
43855W        W52655   6.179   0.942   2.140 -0.3728 -0.2039  0.0082
43856W        W52656   2.221   5.259  21.000 -0.0039 -0.1098 -0.0487
43857W        W52657  13.591   1.134  10.946 -0.1497 -0.2500 -0.1830
43858W        W52658  13.944   6.528   6.474 -0.0720 -0.0499  0.0328
43859W        W52659  13.842   6.593  16.362  0.0958 -0.1008 -0.0668
43860W        W52660   8.177   2.412  12.423 -0.2440 -0.0439 -0.3709
43861W        W52661  22.158   6.604   5.290 -0.0214  0.1505 -0.0224
43862W        W52662   2.697   1.782   1.755 -0.0326 -0.2371 -0.1099
43863W        W52663  16.604   0.942   5.101 -0.1324  0.1296  0.2095
43864W        W52664  23.208   4.905   1.131 -0.0067 -0.0434 -0.0165
43865W        W52665  13.398   2.640   2.041  0.0349 -0.0141 -0.1036
43866W        W52666  23.542   1.623   2.668  0.0910 -0.1343 -0.1228
43867W        W52667  12.796   5.008  24.484 -0.2175  0.0308  0.0479
43868W        W52668  16.705   1.810  12.161  0.0140 -0.0821 -0.2106
43869W        W52669  25.876   6.398   5.684  0.2403  0.1882  0.1967
43870W        W52670  13.233   5.203  24.502 -0.0725 -0.0549  0.0038
43871W        W52671  17.043   6.146  30.446 -0.2902  0.0415  0.1352
43872W        W52672  22.490   5.270  23.766  0.2455 -0.0417 -0.0016
43873W        W52673   5.177   1.428   1.555 -0.0492 -0.0355  0.3826
43874W        W52674  15.750   4.892  27.264 -0.2938 -0.1217  0.0838
43875W        W52675   3.757   6.344  27.003 -0.2221  0.1699 -0.0295
43876W        W52676  15.925   4.606  13.847  0.0597  0.0139  0.2626
43877W        W52677   4.921   5.318   8.649 -0.1832 -0.0925  0.2385
43878W        W52678  14.736   2.136   8.751 -0.1122 -0.1586  0.4395
43879W        W52679   8.378   5.857  20.476 -0.4191  0.0521  0.1608
43880W        W52680  18.611   6.010  14.421 -0.0591  0.2431  0.1986
43881W        W52681   7.862   5.262  27.814 -0.2501 -0.2692 -0.0985
43882W        W52682  20.524   0.316  35.833  0.1280 -0.1376  0.0917
43883W        W52683  10.892   2.161  32.962 -0.1955 -0.2143 -0.0357
43884W        W52684  18.725   2.945  33.679  0.1372 -0.2188 -0.2098
43885W        W52685   3.803   2.064  22.191  0.2701  0.1074 -0.1590
43886W        W52686  20.699   5.231   9.307 -0.0294 -0.0497 -0.0004
43887W        W52687  10.452   0.348  23.661 -0.0452  0.0978  0.0503
43888W        W52688  18.997   0.148  25.778 -0.2022 -0.0185  0.1721
43889W        W52689  14.360   2.165  12.953 -0.2643  0.2248  0.2077
43890W        W52690  25.056   4.334   5.930 -0.0097  0.3965  0.1270
43891W        W52691  25.279   1.651  32.950 -0.0435 -0.0293  0.0225
43892W        W52692  22.618   2.572  31.332  0.2162 -0.2898  0.3128
43893W        W52693  22.809   5.156  29.022  0.1998  0.0590  0.2201
43894W        W52694  11.001   2.395   8.027 -0.1038  0.3645 -0.2354
43895W        W52695   7.373   0.551   0.522  0.1098  0.0183 -0.2773
43896W        W52696  18.715   1.138   9.273 -0.2415 -0.1899 -0.0136
43897W        W52697  13.027   5.265  13.144  0.0951  0.1214  0.1932
43898W        W52698   8.594   2.111  24.736  0.0591 -0.2633 -0.0876
43899W        W52699  21.673   5.236  30.319 -0.5141 -0.0527  0.3713
43900W        W52700  25.030   3.875  26.246 -0.0030 -0.2573  0.1897
43901W        W52701  23.106   1.303  21.482  0.0598 -0.0702  0.1599
43902W        W52702   9.354   1.911  35.071  0.2235  0.1253 -0.3855
43903W        W52703  14.068   3.138   2.393 -0.0142  0.1878 -0.1193
43904W        W52704   6.094   1.639  12.228  0.0389  0.1493  0.2432
43905W        W52705  24.609   2.926  22.458  0.2910  0.0826 -0.1440
43906W        W52706  18.522   5.529  32.094  0.0853 -0.3344 -0.0799
43907W        W52707  25.865   1.487  12.844  0.2004  0.1546 -0.2465
43908W        W52708  20.512   3.202  14.211  0.3460 -0.1106 -0.3150
43909W        W52709  19.169   2.120  28.693 -0.2005  0.2564 -0.0694
43910W        W52710   6.612   6.483  34.646  0.0440  0.0460 -0.0900
43911W        W52711  23.254   0.182   8.390 -0.1534  0.2256  0.1786
43912W        W52712  21.796   5.362  35.089  0.1886 -0.0239 -0.0598
43913W        W52713  12.287   1.636   4.643  0.0520 -0.0028 -0.2503
43914W        W52714  23.234   3.432   8.720 -0.3413 -0.1266 -0.0447
43915W        W52715  22.857   1.664  27.785 -0.0247  0.0991 -0.0948
43916W        W52716  20.181   1.787  29.513  0.2291  0.0938  0.0500
43917W        W52717  16.063   2.976  26.932 -0.1435  0.0671 -0.2628
43918W        W52718  17.048   2.074  24.747  0.2008 -0.3047 -0.2404
43919W        W52719   6.699   1.381  12.880 -0.1999  0.2577  0.1887
43920W        W52720  17.500   4.622  33.525 -0.0440  0.1828  0.0017
43921W        W52721  16.253   6.418  29.800  0.0924  0.4020 -0.1025
43922W        W52722  11.067   2.700   5.865 -0.1476  0.0086 -0.0616
43923W        W52723   4.301   3.233  31.060 -0.0591  0.1697 -0.2249
43924W        W52724  18.862   0.575  31.201 -0.0037  0.0400 -0.1094
43925W        W52725  10.714   3.106   4.197 -0.1078 -0.1956  0.0008
43926W        W52726  13.305   0.460  27.710  0.2644 -0.3696 -0.1402
43927W        W52727   5.755   6.207   0.243  0.1312 -0.2799 -0.0740
43928W        W52728  16.036   0.137  33.960 -0.0388  0.0803  0.0468
43929W        W52729  15.798   6.335  14.810 -0.1154  0.1445  0.0284
43930W        W52730   4.646   1.020  11.797  0.1577 -0.3957 -0.3039
43931W        W52731  20.726   4.139  13.853 -0.2235  0.1062  0.0833
43932W        W52732  16.779   3.739  26.493 -0.2203 -0.0236  0.2631
43933W        W52733   1.111   5.521  24.545  0.0594 -0.1097  0.0340
43934W        W52734   5.851   1.322   1.213 -0.0011 -0.0045 -0.1428
43935W        W52735   6.730   2.067  28.063  0.0835 -0.0524 -0.1034
43936W        W52736   4.376   3.120   4.093 -0.1237 -0.1034 -0.1306
43937W        W52737  23.005   4.760   6.896  0.0864 -0.1261 -0.1624
43938W        W52738  24.557   5.082  19.832  0.0863  0.1416 -0.0501
43939W        W52739  24.771   6.455   4.806 -0.1059 -0.0688 -0.2383
43940W        W52740  19.142   4.805  22.630  0.1894  0.1528 -0.0967
43941W        W52741  13.223   6.435  14.900 -0.1389  0.0029 -0.0831
43942W        W52742  20.558   1.799  31.092 -0.1176 -0.0167  0.1166
43943W        W52743  16.738   2.965  24.892 -0.1061  0.1628 -0.0666
43944W        W52744   7.079   5.267   3.502  0.1457 -0.0098 -0.0396
43945W        W52745  14.932   5.388   2.212  0.1629 -0.1395  0.0713
43946W        W52746   3.396   1.884   9.596  0.1479 -0.1521  0.0929
43947W        W52747   3.081   4.804  22.751  0.0734 -0.0428  0.0977
43948W        W52748  15.244   4.299  26.069 -0.0830  0.0251  0.3454
43949W        W52749   2.445   1.854   2.640 -0.2862 -0.0503  0.2492
43950W        W52750  14.457   1.155  24.515 -0.2189  0.0979 -0.1115
43951W        W52751   1.965   3.485  14.352 -0.0189 -0.0031  0.0360
43952W        W52752  26.159   4.681  22.894  0.3227  0.0681  0.0287
43953W        W52753   7.775   5.981   5.393  0.1065  0.0553 -0.1148
43954W        W52754  11.036   5.387   3.713  0.0338 -0.1814  0.1086
43955W        W52755  22.359   4.083  32.828 -0.1009  0.0330 -0.1343
43956W        W52756  12.760   5.136   9.949  0.0576 -0.0149  0.0025
43957W        W52757   7.476   0.929   2.527 -0.1145  0.1986  0.0000
43958W        W52758   2.745   3.561  35.501  0.0706 -0.0240 -0.4009
43959W        W52759  25.060   4.950   4.765 -0.0349 -0.3383  0.0336
43960W        W52760  16.469   0.569   4.082  0.4537  0.1986  0.1313
43961W        W52761  13.628   2.671   9.232  0.1346 -0.1576  0.2417
43962W        W52762  24.015   0.833  23.900  0.0656  0.2254 -0.1064
43963W        W52763   3.350   6.592   3.551  0.0933 -0.1112 -0.0631
43964W        W52764  13.415   5.036  22.881 -0.0967 -0.0664  0.1697
43965W        W52765   0.987   3.661  35.525  0.0967 -0.2268  0.0690
43966W        W52766  10.187   3.054   0.762  0.1528 -0.1331  0.1601
43967W        W52767   2.575   1.862  30.830  0.3549 -0.0998  0.0847
43968W        W52768  22.501   6.340  31.123  0.1247  0.1544 -0.2752
43969W        W52769  10.317   3.151  31.725 -0.0421  0.1871  0.1859
43970W        W52770   0.404   6.517  29.519  0.2363  0.1139 -0.0459
43971W        W52771  20.405   4.686  27.880  0.1426 -0.2689  0.2883
43972W        W52772   8.233   4.750  14.515 -0.1529 -0.2523 -0.0129
43973W        W52773  10.415   1.290  11.267 -0.0247  0.1649 -0.1323
43974W        W52774  20.903   2.098  13.554  0.1313 -0.1952  0.2562
43975W        W52775   2.297   3.118  23.055  0.1197  0.1439  0.3395
43976W        W52776  10.031   1.765   6.280 -0.1048 -0.0347  0.2090
43977W        W52777  14.592   1.203   3.036 -0.1954  0.1697 -0.1781
43978W        W52778   4.986   4.731  25.955  0.1095  0.1972 -0.3053
43979W        W52779  25.463   1.598   0.843 -0.1030  0.2852 -0.1506
43980W        W52780  25.829   5.372  31.083 -0.1047 -0.0649 -0.1186
43981W        W52781  12.364   5.663   8.724  0.1810 -0.1072  0.2927
43982W        W52782  23.548   0.090  13.371 -0.3492  0.0392  0.1403
43983W        W52783   7.600   2.071   5.436  0.0190 -0.0602 -0.0064
43984W        W52784   1.836   4.843  29.377 -0.0561  0.0454  0.0071
43985W        W52785  25.401   4.840  23.227 -0.3826  0.2679 -0.0951
43986W        W52786  17.946   5.221  24.916  0.2240 -0.2094  0.0271
43987W        W52787   5.168   4.217  11.368  0.0144  0.0353  0.2921
43988W        W52788  12.919   2.874  10.275  0.2664 -0.3023  0.1732
43989W        W52789   8.333   6.033   2.005 -0.1216 -0.4381  0.5169
43990W        W52790   9.675   6.259  12.767  0.1847  0.4124  0.1880
43991W        W52791  10.539   2.237  35.047  0.3537  0.1248  0.3066
43992W        W52792  18.537   2.716  31.512  0.2366  0.1443  0.0407
43993W        W52793   3.791   5.759   6.830  0.2466  0.0410 -0.2839
43994W        W52794  12.031   0.810  34.785  0.0601  0.1943  0.3645
43995W        W52795  26.051   0.304  31.521 -0.0814 -0.1930 -0.0865
43996W        W52796  10.605   4.314  25.463 -0.0280  0.2505 -0.1889
43997W        W52797   1.460   0.066  34.801 -0.0452  0.1306 -0.0355
43998W        W52798  23.575   2.129  34.633 -0.1710 -0.0381  0.1517
43999W        W52799  22.800   2.748  23.312 -0.1348  0.1090 -0.0480
44000W        W52800  25.297   3.141  20.734 -0.0991  0.1571  0.2149
44001W        W52801  24.748   1.467  28.986  0.2517  0.1440 -0.0924
44002W        W52802  12.613   5.194  26.535 -0.0165  0.0313  0.1015
44003W        W52803   0.586   4.925  10.732  0.0750  0.0191 -0.0380
44004W        W52804  14.357   5.295  30.449 -0.3334  0.4502  0.1900
44005W        W52805  10.569   0.528   0.881  0.0712  0.3683 -0.0196
44006W        W52806  12.219   2.677  32.933 -0.1150 -0.0777  0.0437
44007W        W52807  19.377   2.816  29.219  0.0045 -0.2296  0.2338
44008W        W52808   6.146   3.273  32.833 -0.1455 -0.0575 -0.0546
44009W        W52809   5.033   4.322  34.704  0.2333 -0.1957  0.3164
44010W        W52810  23.469   1.068  13.602  0.1200  0.1797 -0.2212
44011W        W52811  15.629   2.178  33.247  0.0663  0.1413 -0.3108
44012W        W52812  25.666   0.923   8.905  0.1535 -0.1342 -0.0817
44013W        W52813   0.344   2.113  32.996  0.1444  0.1481  0.1025
44014W        W52814  20.535   4.828  35.816  0.0313  0.0835 -0.0604
44015W        W52815  19.594   1.554  30.195 -0.2609  0.1328 -0.2005
44016W        W52816   1.549   5.600  15.283  0.2312  0.0403 -0.0476
44017W        W52817  19.930   3.160  27.412 -0.1014 -0.2742  0.2315
44018W        W52818  15.748   0.148   7.365 -0.1213 -0.2366 -0.0495
44019W        W52819   4.101   2.615   1.502  0.0232 -0.0155  0.0156
44020W        W52820  22.987   3.384  13.958 -0.2618  0.4150  0.1478
44021W        W52821  15.681   4.705   3.941 -0.0315  0.0152  0.2308
44022W        W52822  19.038   0.347  35.767 -0.0417  0.0105  0.3979
44023W        W52823   7.736   3.041  21.993  0.1614 -0.0901  0.0851
44024W        W52824  11.598   5.518  29.351 -0.1568 -0.0871  0.0679
44025W        W52825   7.272   4.546   1.788  0.1951 -0.0588  0.1406
44026W        W52826  12.688   5.408  27.742 -0.1223  0.0643  0.0924
44027W        W52827   0.901   4.069   6.375 -0.0031 -0.1457 -0.0730
44028W        W52828   5.887   0.503  35.591  0.1250  0.1478 -0.1993
44029W        W52829  25.883   3.984  35.186 -0.1029 -0.2923 -0.2590
44030W        W52830   0.748   3.906   8.588 -0.2165 -0.3481 -0.3210
44031W        W52831   6.138   4.521  24.559 -0.1160  0.0792 -0.1896
44032W        W52832  11.695   0.132   6.523  0.0882 -0.0438 -0.3271
44033W        W52833  20.396   1.458  33.776  0.0491 -0.0467 -0.1977
44034W        W52834   7.144   4.866   7.864  0.0601  0.0437  0.0623
44035W        W52835  13.914   2.191  35.141 -0.0716  0.0575 -0.1680
44036W        W52836   7.449   0.908  29.515 -0.0394  0.2673  0.1260
44037W        W52837  18.374   5.546  28.773 -0.2189 -0.1051 -0.0536
44038W        W52838  22.212   4.652  34.012  0.0052 -0.0955  0.1032
44039W        W52839  22.556   5.961   8.321  0.2532 -0.1291 -0.0922
44040W        W52840   5.934   5.925  28.361 -0.2882 -0.1625 -0.2204
44041W        W52841  15.060   2.671  28.596  0.1201 -0.2274 -0.0150
44042W        W52842  14.927   5.872   3.583 -0.0086  0.4657 -0.0209
44043W        W52843  16.510   1.711  24.152 -0.2208 -0.1147  0.0260
44044W        W52844   9.210   2.129  28.532 -0.0988  0.2586 -0.1350
44045W        W52845  25.151   5.969  20.325  0.1677 -0.1183  0.0943
44046W        W52846   3.177   0.479  12.462 -0.2683 -0.1665  0.0316
44047W        W52847  14.592   0.885  29.455  0.0539 -0.1993 -0.1192
44048W        W52848  19.494   5.121  24.880 -0.2862 -0.0752 -0.2322
44049W        W52849  15.224   2.052  24.861 -0.1464 -0.2060 -0.2507
44050W        W52850  13.775   3.385  14.789  0.3223 -0.2691 -0.0810
44051W        W52851  12.403   4.523  14.156 -0.0546 -0.0589  0.0485
44052W        W52852  10.679   1.245   5.393  0.2405  0.0986 -0.1012
44053W        W52853  19.703   3.784   0.098 -0.5435  0.3070  0.0960
44054W        W52854  18.405   3.439  32.313 -0.0712  0.1949 -0.1402
44055W        W52855  11.490   3.980  29.411 -0.2030 -0.1346 -0.2091
44056W        W52856   1.545   3.102   7.442 -0.3887 -0.0959 -0.1841
44057W        W52857   7.224   1.862  24.690  0.1663  0.1003  0.1249
44058W        W52858  21.691   3.682  27.447  0.2849  0.0016  0.3360
44059W        W52859   3.626   0.420   3.656 -0.0565  0.1947  0.2306
44060W        W52860  10.659   1.436  23.758  0.4329 -0.2803  0.3536
44061W        W52861   7.694   2.444   5.018  0.1497  0.1115  0.0806
44062W        W52862  14.746   0.789  23.862 -0.2647  0.0342  0.2573
44063W        W52863  24.488   6.363   1.130  0.1138 -0.1247  0.1319
44064W        W52864  21.500   2.128   1.624 -0.1545  0.0659 -0.1266
44065W        W52865  14.072   3.145  22.119  0.0043 -0.3249  0.1047
44066W        W52866  10.043   2.313  30.393 -0.1259 -0.0613 -0.0880
44067W        W52867   2.940   1.920   6.361  0.3067  0.0382  0.1374
44068W        W52868  17.690   3.018  28.421  0.0996 -0.2439  0.1430
44069W        W52869   1.247   1.542  12.860 -0.0373 -0.0342  0.3431
44070W        W52870  23.459   2.999  27.887  0.0478  0.2739 -0.2862
44071W        W52871   2.258   1.995   4.267 -0.0163 -0.0059  0.1019
44072W        W52872  19.354   5.062   5.956  0.1499 -0.0954  0.2431
44073W        W52873  19.751   1.992   9.078 -0.3448 -0.2099  0.0590
44074W        W52874  13.576   2.346  21.148 -0.0861  0.1266 -0.4057
44075W        W52875  24.178   4.398   9.300 -0.1265  0.0587 -0.2497
44076W        W52876  16.638   2.089  10.452 -0.1382  0.2166 -0.0203
44077W        W52877  11.063   1.858  32.446 -0.1483  0.4759 -0.1901
44078W        W52878   2.660   5.224   9.705  0.1714 -0.0038 -0.0491
44079W        W52879  11.609   1.359  34.675 -0.1396 -0.4320 -0.1325
44080W        W52880  12.035   6.384   8.388 -0.1644 -0.0267 -0.2232
44081W        W52881   3.687   0.666  12.425 -0.0535  0.4627  0.0539
44082W        W52882  25.243   0.281  31.474  0.0961  0.0477 -0.0513
44083W        W52883   4.443   2.217  23.984  0.1556 -0.0577  0.1672
44084W        W52884  10.317   3.216  26.756 -0.0852  0.0962 -0.1409
44085W        W52885  16.040   5.641  22.619  0.3324 -0.1179  0.1839
44086W        W52886  20.926   3.221   8.465 -0.1441  0.0664 -0.3028
44087W        W52887  22.674   5.854  23.593 -0.0266  0.4420  0.0245
44088W        W52888   5.847   3.972   8.158 -0.3379  0.2173 -0.0654
44089W        W52889  23.582   3.273  21.923  0.0723  0.1826  0.0669
44090W        W52890  18.213   4.783  21.838 -0.2351 -0.2697  0.1752
44091W        W52891   5.635   4.119   4.669  0.1295  0.2681 -0.0292
44092W        W52892   9.197   3.345  13.349 -0.1479 -0.2233  0.0304
44093W        W52893   5.404   1.955   3.820  0.1706  0.0654  0.2047
44094W        W52894   2.402   3.641  27.283 -0.2741  0.0248  0.0602
44095W        W52895  10.455   5.685   3.329 -0.0451  0.1069  0.1799
44096W        W52896  23.904   0.710  31.931 -0.2392  0.1975 -0.1947
44097W        W52897  16.932   0.797   6.792  0.0480 -0.0820 -0.0277
44098W        W52898   7.253   3.877  31.056 -0.0501 -0.1876 -0.1051
44099W        W52899   0.831   0.152  14.997 -0.0225  0.0735  0.3313
44100W        W52900   8.162   0.127  24.072 -0.0485  0.1484  0.1763
44101W        W52901  20.405   0.281   8.791  0.4608 -0.0678  0.0308
44102W        W52902  18.732   6.185  12.880  0.0212 -0.0939 -0.1320
44103W        W52903  11.950   5.647  22.727  0.1224 -0.1805  0.2655
44104W        W52904  13.694   4.362   9.019 -0.0362  0.1321  0.2094
44105W        W52905  11.299   4.492  13.543  0.0008 -0.1937  0.2740
44106W        W52906  21.210   4.810  36.133  0.0571 -0.1273 -0.1224
44107W        W52907   2.385   2.388  23.450 -0.3074  0.0365  0.1202
44108W        W52908   9.207   5.482   7.028 -0.2390  0.0732 -0.3678
44109W        W52909  22.275   1.097   6.802 -0.2192 -0.0160  0.0025
44110W        W52910   1.176   1.798   2.170 -0.4706 -0.1794 -0.3952
44111W        W52911  19.562   5.341  27.789  0.1366 -0.1341 -0.1448
44112W        W52912  12.841   0.850   6.561 -0.0775  0.3469  0.0439
44113W        W52913  24.915   1.316  24.075 -0.0826 -0.1890  0.3796
44114W        W52914  16.749   4.329  24.585 -0.2418 -0.0437 -0.1891
44115W        W52915   7.907   6.062  10.382 -0.1272 -0.1552  0.0866
44116W        W52916  15.731   0.149  31.344 -0.1397  0.0965  0.1023
44117W        W52917   5.946   6.392   2.540 -0.2466 -0.0848  0.0112
44118W        W52918  22.118   5.476  13.743  0.0925  0.0938  0.0832
44119W        W52919   3.011   0.192   1.073  0.2499  0.0863 -0.3106
44120W        W52920   4.993   2.527  34.578 -0.2825 -0.1750  0.0598
44121W        W52921   8.931   5.565  13.246 -0.1583 -0.1441 -0.0396
44122W        W52922  25.843   3.283   6.024 -0.0636 -0.0734  0.4099
44123W        W52923   1.529   0.650  11.955 -0.3828  0.0465 -0.0707
44124W        W52924   7.951   6.316  21.532 -0.0121  0.1239 -0.2859
44125W        W52925   8.618   0.080  10.894 -0.1140 -0.1460  0.0672
44126W        W52926  10.438   3.058  26.223  0.0191 -0.0637 -0.0396
44127W        W52927  10.826   6.100   2.101 -0.1324 -0.1861 -0.1820
44128W        W52928  25.418   3.302  14.766  0.0802  0.1072 -0.1113
44129W        W52929   6.578   4.476   1.091 -0.1113 -0.0037  0.0439
44130W        W52930  18.727   1.549  24.827  0.0648  0.0337  0.0050
44131W        W52931   4.382   2.549  25.466 -0.2775 -0.1366  0.2050
44132W        W52932  16.563   0.155   4.316  0.1843 -0.2394 -0.2494
44133W        W52933  12.828   1.888  31.261  0.0747 -0.2628 -0.0658
44134W        W52934   4.957   3.549  32.585 -0.0468  0.0094 -0.0248
44135W        W52935  24.487   4.626  13.093 -0.3146  0.4709  0.0963
44136W        W52936  18.256   6.118   7.905  0.1788  0.0124  0.0271
44137W        W52937  24.425   2.703   8.472 -0.2284  0.1496 -0.2663
44138W        W52938   6.325   5.243   7.529  0.0184  0.2483  0.0265
44139W        W52939  19.758   1.885  33.604  0.1235 -0.1052 -0.0629
44140W        W52940  18.745   4.937  29.608 -0.3133  0.0398 -0.0985
44141W        W52941  24.539   3.995   9.232 -0.1451  0.0965 -0.1449
44142W        W52942  18.373   1.912  27.941  0.1411 -0.0876 -0.0817
44143W        W52943  14.346   3.335  14.915  0.2584  0.2105  0.0097
44144W        W52944   2.892   1.830  13.126  0.1307 -0.1007 -0.1607
44145W        W52945   0.537   2.252  13.968 -0.0154 -0.1057  0.2522
44146W        W52946   9.957   5.019  10.086  0.3836 -0.1758 -0.0123
44147W        W52947   0.282   5.286  28.107  0.0306  0.2215 -0.2214
44148W        W52948   1.505   1.744  28.321  0.0126 -0.0351  0.2598
44149W        W52949  21.391   3.573  21.492  0.2610 -0.0104  0.2811
44150W        W52950  15.250   3.815  28.138  0.0679  0.2542 -0.0196
44151W        W52951  21.607   3.487  12.245 -0.1228  0.0046 -0.0087
44152W        W52952   6.728   2.289  14.461 -0.1467  0.2808  0.3482
44153W        W52953   8.946   6.229  11.729  0.4494  0.0097  0.1828
44154W        W52954   3.976   0.655  30.343 -0.2539  0.0161 -0.3289
44155W        W52955   8.313   4.637   4.178  0.0081  0.2216  0.2123
44156W        W52956  11.287   5.827  24.338 -0.1213 -0.1422  0.1490
44157W        W52957  15.849   2.229   8.352 -0.1503 -0.0950  0.0751
44158W        W52958   6.809   3.568  11.139  0.1145 -0.0957  0.1877
44159W        W52959   7.501   0.889  14.294 -0.4360  0.0474  0.0159
44160W        W52960  19.359   4.010  13.310 -0.1970  0.3139 -0.0305
44161W        W52961  24.159   2.408   9.144 -0.1306  0.2611 -0.0791
44162W        W52962   8.579   1.060   1.700  0.0007 -0.1465  0.2162
44163W        W52963   8.462   4.466   2.788 -0.0657  0.0821  0.0032
44164W        W52964   4.211   2.876   2.181 -0.2732 -0.0037  0.0381
44165W        W52965  13.013   0.605  32.375 -0.2439  0.1210 -0.1144
44166W        W52966   8.792   1.179   2.672 -0.1554  0.0522 -0.1624
44167W        W52967   4.083   2.842  25.232  0.2530 -0.0801  0.2469
44168W        W52968  20.469   2.456  35.140 -0.2346 -0.0078  0.0465
44169W        W52969  21.269   0.366  12.758 -0.0167  0.0488  0.1964
44170W        W52970  16.469   4.001  25.592  0.2986 -0.2375 -0.3802
44171W        W52971  23.599   6.389   8.984 -0.0589  0.1751 -0.1017
44172W        W52972  20.484   1.093  25.854  0.0140  0.4516  0.0133
44173W        W52973   3.819   2.588  10.324  0.0939 -0.0312 -0.3183
44174W        W52974   0.441   3.632  24.581  0.1309  0.2652  0.0140
44175W        W52975  13.495   4.851  33.524 -0.2070  0.0403  0.2311
44176W        W52976   8.002   4.324  10.620  0.0880 -0.2624  0.1196
44177W        W52977   7.488   4.989   3.011  0.1626  0.2213  0.2420
44178W        W52978  15.127   4.928  14.242  0.1239 -0.0586  0.1644
44179W        W52979  12.265   4.985   7.609 -0.2484  0.0276  0.0624
44180W        W52980   5.133   5.776  23.587 -0.1062 -0.0879  0.2367
44181W        W52981   8.535   4.097  25.343  0.3148 -0.0318  0.3336
44182W        W52982  20.823   2.908   0.820 -0.1351 -0.1413  0.2493
44183W        W52983   6.604   2.130  35.276 -0.1641 -0.3148 -0.1980
44184W        W52984   4.951   3.806  33.164 -0.0296  0.1128  0.0374
44185W        W52985  16.806   0.953   6.301 -0.2242 -0.2106  0.1589
44186W        W52986  17.346   4.378   4.566 -0.0236  0.3297 -0.2543
44187W        W52987   8.860   5.820  29.557  0.0807 -0.1610 -0.1779
44188W        W52988   0.394   5.573  27.633 -0.1418  0.3709  0.1889
44189W        W52989  12.077   4.127   6.595  0.0540  0.1295 -0.1642
44190W        W52990  20.415   5.778   9.981  0.0278 -0.2437 -0.0231
44191W        W52991   8.317   1.977  30.876  0.0305  0.1422 -0.2196
44192W        W52992   4.156   4.413  15.192  0.6889 -0.3527  0.3577
44193W        W52993  10.573   4.186   8.921 -0.1150  0.0655 -0.2395
44194W        W52994   9.988   5.394   4.315  0.1988 -0.1538 -0.2440
44195W        W52995  23.194   5.513  12.582 -0.3571 -0.1231  0.0384
44196W        W52996   7.664   0.339  13.656  0.0798  0.0422  0.1194
44197W        W52997  16.250   3.157  23.051  0.2095 -0.0978 -0.1614
44198W        W52998  16.855   3.941   8.783  0.0242  0.5153  0.1295
44199W        W52999  18.294   6.360   4.299 -0.2108 -0.0506 -0.3315
44200W        W53000   6.286   5.225  10.508 -0.2197 -0.3900  0.2701
44201W        W53001  16.577   3.995  29.317 -0.0658 -0.1325 -0.2388
44202W        W53002  12.853   0.819   2.557  0.0073  0.0431 -0.0125
44203W        W53003   7.703   4.835   6.894  0.1055 -0.2140  0.1814
44204W        W53004   5.036   3.234   5.788  0.1278  0.1864 -0.2354
44205W        W53005  26.311   0.437   9.448 -0.2897 -0.0084  0.4227
44206W        W53006  26.352   4.347  23.566 -0.0561  0.2400  0.2768
44207W        W53007   8.720   3.878  31.613 -0.1901  0.1867  0.0273
44208W        W53008   6.741   2.132   7.677  0.0547 -0.0219  0.0648
44209W        W53009  22.890   1.749  28.694 -0.2314 -0.1062 -0.1077
44210W        W53010  24.040   3.289  33.971 -0.1173  0.1561 -0.0242
44211W        W53011   9.907   0.405   6.199 -0.0395 -0.0083  0.0512
44212W        W53012  25.760   3.929  13.383  0.1029 -0.0320  0.0057
44213W        W53013  11.777   4.127  36.060  0.1181  0.2418 -0.2996
44214W        W53014  25.860   0.788  36.185  0.0875 -0.1926 -0.3832
44215W        W53015   3.726   4.888  22.241 -0.0560  0.0328 -0.0630
44216W        W53016  15.461   4.765   5.815 -0.0525 -0.0972  0.2448
44217W        W53017  17.580   4.566  10.863 -0.0719 -0.4894  0.1630
44218W        W53018  23.917   4.995   5.559 -0.1172  0.1407  0.1620
44219W        W53019  12.351   5.940   0.135  0.1204  0.0311 -0.3232
44220W        W53020  21.965   5.960  35.744 -0.2401  0.0329 -0.1767
44221W        W53021  16.332   4.782   6.171  0.3644  0.0262 -0.1306
44222W        W53022  19.242   1.003  22.206  0.1344 -0.0925  0.2593
44223W        W53023  19.580   3.650  33.096 -0.0342  0.0877 -0.2322
44224W        W53024   6.036   2.611  12.647  0.1560 -0.1633 -0.0068
44225W        W53025   5.867   2.736   0.205 -0.4017  0.0878 -0.0402
44226W        W53026  25.567   5.722   1.620 -0.2022 -0.0830  0.0714
44227W        W53027  24.696   1.965  28.808  0.1541 -0.0518  0.2012
44228W        W53028   4.511   5.614  12.362 -0.2974  0.2741  0.0176
44229W        W53029  20.055   3.490  23.359 -0.0785 -0.0634 -0.0199
44230W        W53030  10.629   6.103  32.927 -0.0415 -0.0524 -0.0002
44231W        W53031   0.627   4.958  24.846 -0.1248  0.0240  0.1699
44232W        W53032   5.346   4.394   6.956  0.3350  0.0491 -0.1401
44233W        W53033   8.625   5.994  34.326  0.1901  0.2351 -0.1594
44234W        W53034   3.034   3.338  29.995  0.0093  0.1073  0.1420
44235W        W53035  14.187   2.655   9.785 -0.3982  0.0613 -0.1926
44236W        W53036  20.506   0.904   4.702  0.0092 -0.2846 -0.3127
44237W        W53037  18.206   0.276  21.122 -0.0800 -0.0924 -0.1586
44238W        W53038   3.363   2.331  14.703 -0.1700 -0.1407 -0.1037
44239W        W53039  15.830   1.733   3.584  0.2041  0.1197 -0.1829
44240W        W53040   1.470   0.964  25.205 -0.0821 -0.3230 -0.0056
44241W        W53041  24.575   4.225  31.153 -0.2808  0.1201  0.0241
44242W        W53042   2.284   5.603   9.543  0.3495  0.0644  0.2821
44243W        W53043   2.651   4.515  24.881  0.1019 -0.2632 -0.0990
44244W        W53044  14.876   2.827  25.505 -0.1805 -0.0320  0.1490
44245W        W53045  10.372   3.288   1.269  0.1252  0.1276  0.0276
44246W        W53046   4.084   3.431   1.301 -0.1162 -0.1692  0.2092
44247W        W53047   2.054   4.185   8.073 -0.0624 -0.3965  0.1155
44248W        W53048  22.935   0.462  26.547 -0.0088 -0.1861  0.3626
44249W        W53049   3.102   4.789  24.819 -0.1154 -0.0549 -0.2930
44250W        W53050  15.371   1.098  34.749  0.0273 -0.0264 -0.1057
44251W        W53051  17.058   3.803  28.123  0.3212 -0.2953  0.0034
44252W        W53052   4.173   1.198   3.830 -0.1838 -0.1005 -0.0178
44253W        W53053   6.535   6.002  22.613 -0.1622 -0.4361 -0.1664
44254W        W53054   0.044   2.144  33.425  0.0372  0.1281 -0.0589
44255W        W53055  23.163   0.624   1.763 -0.2136 -0.1527 -0.2634
44256W        W53056  18.372   3.317  24.052  0.0608 -0.0467  0.2119
44257W        W53057   5.579   1.670  32.016  0.1660  0.1542 -0.1251
44258W        W53058   6.876   4.393  22.547 -0.0508 -0.0222  0.1924
44259W        W53059  16.700   0.966  13.863 -0.0964  0.0349  0.0870
44260W        W53060  15.110   0.040  22.440 -0.0395  0.1982 -0.3042
44261W        W53061   3.689   5.550  11.124  0.1448 -0.0669  0.0130
44262W        W53062   3.258   0.497  23.338  0.0862 -0.3766  0.0366
44263W        W53063   3.232   4.891  13.092 -0.0457 -0.0921  0.0666
44264W        W53064   3.010   3.694  29.219 -0.0464 -0.4675  0.1292
44265W        W53065  23.988   5.914  21.948 -0.0791  0.1019 -0.1727
44266W        W53066  21.128   5.902  30.922  0.1331  0.2171  0.0510
44267W        W53067  21.847   5.970  29.837 -0.0399 -0.0293 -0.0221
44268W        W53068   1.510   5.551  23.833  0.0594 -0.0246  0.0959
44269W        W53069   2.818   3.533   8.979 -0.1360 -0.4429  0.0106
44270W        W53070   6.931   4.483  11.516 -0.2773 -0.1629  0.0155
44271W        W53071  25.724   2.530   7.609  0.4196 -0.1051  0.1141
44272W        W53072  14.236   5.778  31.981  0.0081 -0.1837  0.1154
44273W        W53073  24.838   1.132  21.822  0.3274  0.1378  0.1611
44274W        W53074  18.620   6.498  28.842 -0.2034 -0.0955 -0.0438
44275W        W53075  21.371   0.961  27.003  0.3041 -0.0769  0.0758
44276W        W53076  18.788   4.588   7.374  0.0378  0.3224 -0.2857
44277W        W53077  10.816   6.044  25.865 -0.2943  0.1729  0.1294
44278W        W53078   1.611   2.667  22.840 -0.1021  0.2962 -0.2832
44279W        W53079  14.451   1.455   1.529  0.1983 -0.1695  0.3758
44280W        W53080  12.833   5.805   5.528 -0.2871  0.0889  0.0955
44281W        W53081  20.228   2.000  25.825  0.0544  0.0217 -0.0179
44282W        W53082   7.794   3.203  11.437  0.0078  0.1979 -0.0258
44283W        W53083  20.604   2.304  14.387  0.0515 -0.2232  0.0215
44284W        W53084  19.383   4.698  23.136  0.0592 -0.2314  0.0441
44285W        W53085   3.658   4.784  23.623  0.3488  0.0511 -0.2034
44286W        W53086  21.858   5.473  28.625  0.2535 -0.1128 -0.1854
44287W        W53087   5.411   2.106  13.658  0.3717 -0.0553 -0.1350
44288W        W53088   3.911   2.176   7.876 -0.3404  0.3752  0.0273
44289W        W53089   2.850   4.458   4.874  0.2779  0.2529  0.2063
44290W        W53090  10.714   0.053   0.661  0.2571 -0.0274  0.1974
44291W        W53091   0.618   6.136   3.663 -0.2038 -0.2405  0.1476
44292W        W53092  23.628   2.829  13.389  0.1359 -0.3882 -0.0080
44293W        W53093  16.415   3.387  35.852 -0.0562 -0.0216  0.0720
44294W        W53094  22.283   4.377  27.447  0.0239 -0.0509  0.1368
44295W        W53095   3.638   5.418  34.115  0.2560 -0.0540  0.1326
44296W        W53096   2.861   2.627  32.110  0.0351 -0.1898 -0.0484
44297W        W53097  11.196   0.507  10.661 -0.2731 -0.1411  0.1508
44298W        W53098   0.030   0.103  11.166 -0.2577 -0.3762 -0.0768
44299W        W53099  22.541   5.546  32.381  0.0186  0.0772  0.0766
44300W        W53100  11.718   2.071  35.312 -0.0718 -0.0199  0.2306
44301W        W53101   7.533   5.640  35.041  0.0644 -0.2295 -0.0945
44302W        W53102  23.593   4.116  22.709 -0.4221  0.2546  0.0747
44303W        W53103   8.856   6.345  26.700  0.0594 -0.0101  0.3095
44304W        W53104  15.335   2.724  33.144 -0.1861 -0.1671 -0.2611
44305W        W53105   8.223   4.111   9.824 -0.1276  0.1953 -0.2950
44306W        W53106  25.623   4.297  24.217 -0.1614 -0.1658  0.0992
44307W        W53107  19.556   0.828  25.419 -0.3166  0.0978  0.0447
44308W        W53108  23.780   2.341   7.924 -0.2493  0.1130 -0.1514
44309W        W53109   9.077   3.111  11.938  0.0417 -0.0451  0.0034
44310W        W53110   6.241   6.428  30.288  0.0594  0.0157 -0.2250
44311W        W53111   7.384   5.479  25.676  0.0196  0.3854  0.0907
44312W        W53112   2.249   2.927   1.076 -0.0085 -0.2155  0.0044
44313W        W53113   2.384   4.681   8.756  0.0033  0.0515 -0.3788
44314W        W53114   9.880   1.294   1.003 -0.1602 -0.0723 -0.0063
44315W        W53115  22.375   4.570  33.516  0.1144 -0.0562  0.3686
44316W        W53116  22.557   0.947  36.124  0.2677  0.0708  0.0454
44317W        W53117  25.593   4.480  32.415 -0.0599 -0.0366  0.0998
44318W        W53118  11.579   4.304  31.589 -0.1862  0.2551  0.0020
44319W        W53119  25.767   5.769  13.624  0.1698 -0.0171  0.2672
44320W        W53120  25.450   0.889   5.616  0.0032  0.1146  0.0117
44321W        W53121  12.225   0.917  25.446  0.1178  0.1291  0.1268
44322W        W53122  13.970   3.790   8.797 -0.0661  0.0627  0.1643
44323W        W53123  23.253   5.556  23.361 -0.0477 -0.2743 -0.0190
44324W        W53124  22.142   3.504  15.069 -0.1042 -0.0795  0.1272
44325W        W53125   7.713   1.058   5.932  0.1275  0.1154 -0.1039
44326W        W53126   2.006   4.136  32.614 -0.0145 -0.1990  0.0087
44327W        W53127  16.059   3.549   6.468 -0.2466 -0.0799  0.2843
44328W        W53128   1.362   5.094  34.716 -0.0729  0.1500 -0.0473
44329W        W53129  16.452   0.545   5.523 -0.1571 -0.0259  0.0208
44330W        W53130   6.035   2.167  33.763  0.2757 -0.0469  0.1405
44331W        W53131  13.287   3.167   3.011 -0.0989  0.0208  0.0518
44332W        W53132   4.517   3.871  24.378 -0.2275 -0.1410 -0.1459
44333W        W53133   7.322   4.235  11.331 -0.0928 -0.1027  0.4466
44334W        W53134  23.104   5.743  33.694 -0.2622  0.0768  0.0569
44335W        W53135  19.266   6.165  35.891 -0.3246 -0.3934  0.0587
44336W        W53136  19.068   2.464  27.817  0.1539  0.1789 -0.0805
44337W        W53137   0.753   4.607  10.378  0.3581  0.0682  0.2036
44338W        W53138   7.939   2.711   2.947 -0.3991 -0.0742 -0.0188
44339W        W53139  12.212   3.743  25.597  0.0134  0.1025  0.2369
44340W        W53140   9.239   1.215  31.515  0.0475 -0.0963  0.0814
44341W        W53141   8.461   2.285  35.002 -0.0556  0.0043  0.0801
44342W        W53142  17.525   1.800  31.043 -0.0486 -0.1395 -0.2471
44343W        W53143  16.382   4.482  34.214 -0.2661  0.0301  0.1073
44344W        W53144  25.841   6.281   8.029 -0.4068  0.2511  0.0115
44345W        W53145  20.944   1.432  14.711  0.2949  0.1409  0.1425
44346W        W53146  16.706   5.545  24.065 -0.1361 -0.0173 -0.1068
44347W        W53147  23.579   0.583  25.881  0.0527  0.5634 -0.1764
44348W        W53148   1.755   2.934  35.234 -0.0557 -0.1931  0.2331
44349W        W53149   0.547   1.814  29.941 -0.0082 -0.0625  0.1933
44350W        W53150  15.208   2.264   8.798 -0.1392 -0.0083 -0.2978
44351W        W53151  17.345   3.767   8.790 -0.0299  0.1197 -0.0087
44352W        W53152  11.070   2.099   1.604  0.3016 -0.2161 -0.1283
44353W        W53153   5.522   5.541  10.943 -0.0625  0.0050  0.3003
44354W        W53154   8.408   1.355  26.741  0.0658  0.2535  0.1910
44355W        W53155  20.847   6.322  28.612 -0.1908  0.0266  0.1875
44356W        W53156   0.132   4.959  23.822  0.2364 -0.0784 -0.0851
44357W        W53157  22.910   0.531  27.036 -0.1550 -0.2866 -0.0338
44358W        W53158   5.356   1.389  26.553 -0.1477 -0.0589 -0.2893
44359W        W53159   4.007   0.854   0.793  0.3608  0.1049 -0.1769
44360W        W53160  23.245   2.398  33.256 -0.0162 -0.3561  0.3207
44361W        W53161   1.892   2.515  15.130 -0.1856  0.3021  0.2475
44362W        W53162   8.735   5.931  25.846  0.2615  0.1052  0.1066
44363W        W53163  25.739   1.794   5.395  0.0598  0.1709  0.2062
44364W        W53164  25.957   3.793  33.894 -0.2276 -0.0866 -0.1772
44365W        W53165   5.294   1.450   5.796  0.0245 -0.0831 -0.0560
44366W        W53166   8.558   5.930  26.406  0.1537 -0.1271  0.1054
44367W        W53167   1.790   3.247   6.939 -0.0365 -0.3416 -0.1571
44368W        W53168  25.300   0.503  33.342  0.1015 -0.0272  0.0017
44369W        W53169  20.815   4.528  20.724 -0.0230  0.3403  0.3492
44370W        W53170  25.121   3.223   8.371 -0.1429  0.5254 -0.1488
44371W        W53171   4.116   2.514  33.374  0.0217  0.1344  0.0838
44372W        W53172   6.543   2.693   3.553  0.2675  0.1333  0.1381
44373W        W53173   1.316   3.856  22.594  0.1717 -0.0539  0.0266
44374W        W53174  25.895   0.682  20.345 -0.0678 -0.3474 -0.1251
44375W        W53175   1.457   2.568   4.792 -0.1277 -0.0330  0.2222
44376W        W53176  11.813   0.467   6.057 -0.1842 -0.1620  0.0339
44377W        W53177  12.288   6.538  13.699  0.1466  0.2011  0.1070
44378W        W53178   9.840   5.140  20.886  0.2087 -0.1390 -0.2267
44379W        W53179   0.217   3.084   0.230 -0.0038 -0.3775 -0.2149
44380W        W53180   6.278   3.528  20.851  0.0088 -0.2184  0.2707
44381W        W53181   5.456   6.213  35.175  0.0410 -0.0534 -0.2413
44382W        W53182   9.815   2.656  24.844  0.2793  0.0755 -0.0263
44383W        W53183   2.873   6.461  31.990 -0.0320  0.0100  0.0480
44384W        W53184  10.916   2.672  33.090  0.2300  0.0213  0.3010
44385W        W53185  15.030   6.371  25.359 -0.3031  0.1093 -0.2915
44386W        W53186  21.356   5.784  28.165  0.0959 -0.0205 -0.0512
44387W        W53187  21.460   5.385   3.295 -0.1817  0.1909  0.1471
44388W        W53188  11.419   5.638  23.795  0.0592 -0.2660 -0.0202
44389W        W53189  23.513   2.986  31.131 -0.2101  0.2965 -0.1187
44390W        W53190   2.981   5.793  10.724  0.2538  0.0719  0.2009
44391W        W53191  19.287   1.010  23.725 -0.2018  0.2555  0.2335
44392W        W53192  22.347   2.228   8.033 -0.0068  0.1758  0.0116
44393W        W53193   3.069   5.759   6.983 -0.0202  0.0200  0.1485
44394W        W53194   4.816   6.475  24.274  0.1778 -0.1953  0.1455
44395W        W53195  25.368   6.604   0.739  0.0449  0.0172  0.1719
44396W        W53196  24.164   0.355   6.997 -0.3213  0.1162 -0.0680
44397W        W53197  18.035   0.431  12.316 -0.0730 -0.4490 -0.3020
44398W        W53198  18.276   3.897  12.337 -0.0305  0.1776 -0.0554
44399W        W53199  20.222   4.482   8.337 -0.1452 -0.0606  0.1889
44400W        W53200  15.128   3.223   4.610  0.0550  0.2297 -0.1759
44401W        W53201   9.205   2.713  31.817  0.3352 -0.1732 -0.0629
44402W        W53202  15.816   2.683  21.015  0.0007 -0.1251 -0.1518
44403W        W53203  13.980   0.920   7.750 -0.0438  0.0032  0.3791
44404W        W53204  13.702   2.883  24.616  0.1791 -0.0307  0.1605
44405W        W53205  25.184   1.203   5.890  0.2308 -0.0644  0.2097
44406W        W53206   5.931   2.522  27.070  0.1621  0.0146 -0.0336
44407W        W53207   3.933   5.496  27.838 -0.1546 -0.2660  0.0625
44408W        W53208   4.544   1.661   4.599  0.0525  0.2123  0.1319
44409W        W53209  12.127   0.736  33.105 -0.1841  0.0528  0.1754
44410W        W53210  12.475   3.022  22.522  0.0575 -0.2549 -0.2607
44411W        W53211  22.683   5.125   8.147  0.1387 -0.1635 -0.0182
44412W        W53212  16.925   6.292  20.452 -0.2634  0.0438  0.0987
44413W        W53213  15.103   2.762  11.479 -0.3821  0.0514  0.1000
44414W        W53214   1.740   5.875   5.361 -0.0700 -0.2342  0.0351
44415W        W53215  16.213   5.567  26.645 -0.0447 -0.0580 -0.3402
44416W        W53216  24.785   5.428  28.586  0.2308 -0.0574  0.1174
44417W        W53217   0.640   5.690   9.214 -0.0669  0.0244  0.3388
44418W        W53218   6.536   2.403  12.492 -0.2575  0.0174  0.1880
44419W        W53219   6.604   0.700   9.275  0.2772 -0.1166  0.3847
44420W        W53220   4.012   1.091   9.385  0.0036  0.1754  0.0059
44421W        W53221   4.124   0.859  31.924  0.0082 -0.1671 -0.2343
44422W        W53222  18.852   5.437  28.900 -0.3171 -0.2425 -0.1942
44423W        W53223  19.137   4.332   7.791 -0.2588 -0.0135  0.0936
44424W        W53224   5.738   5.646   7.281 -0.1818  0.2077  0.2595
44425W        W53225  16.365   0.745   6.534 -0.0789 -0.2983  0.3902
44426W        W53226  15.121   1.588   5.618 -0.1066 -0.1123  0.0321
44427W        W53227   7.564   1.625  34.163  0.2104  0.0787 -0.0350
44428W        W53228   3.406   4.237   4.864 -0.3329 -0.0344 -0.1402
44429W        W53229   9.367   0.686  34.717  0.1124  0.1061  0.0382
44430W        W53230   5.039   3.858  34.534 -0.0056  0.2946  0.0372
44431W        W53231  11.734   0.067   4.845  0.1020 -0.2689  0.0076
44432W        W53232  22.825   2.903  24.611 -0.1499  0.1048  0.0786
44433W        W53233  21.105   4.526  24.399 -0.1737  0.2707  0.2392
44434W        W53234  21.921   5.717  30.441  0.1963 -0.1297 -0.0710
44435W        W53235   7.599   0.653  25.741  0.0153  0.1956  0.0873
44436W        W53236  21.930   1.772  22.101 -0.0677  0.2197  0.0884
44437W        W53237  25.044   3.843  10.021 -0.1482 -0.2603 -0.3423
44438W        W53238  13.844   3.484   4.376 -0.0264  0.2906 -0.2141
44439W        W53239  16.485   5.780   3.705  0.1258 -0.0021 -0.0114
44440W        W53240  19.458   6.292  28.210 -0.1703 -0.1854  0.0015
44441W        W53241  24.047   1.985   4.451  0.1542 -0.0952 -0.1312
44442W        W53242  25.821   0.418  23.543 -0.1983  0.3001 -0.2830
44443W        W53243  17.338   4.030  23.035 -0.0790 -0.1401  0.2318
44444W        W53244   8.902   2.671   3.601  0.0044 -0.2251  0.1489
44445W        W53245   4.555   0.778   3.147  0.1203  0.2775 -0.0120
44446W        W53246   8.288   2.822   6.144 -0.0089  0.1423  0.1131
44447W        W53247   9.808   0.000  22.555 -0.1205  0.0030  0.2149
44448W        W53248  13.349   2.571  15.452 -0.1320 -0.1099  0.2202
44449W        W53249   3.025   5.333   7.900 -0.0296 -0.0824  0.3106
44450W        W53250  20.115   4.087  10.372 -0.0278  0.0482  0.2634
44451W        W53251   3.920   5.516  25.743  0.2364 -0.1681 -0.2161
44452W        W53252  25.393   1.098   3.652  0.1642 -0.0429  0.1800
44453W        W53253  25.511   3.639  28.973  0.0340  0.4331  0.0486
44454W        W53254   0.037   5.332  31.901  0.0468 -0.1284 -0.1279
44455W        W53255   8.720   1.730  23.040  0.1639  0.1721 -0.1287
44456W        W53256   2.497   1.900  21.327  0.0508  0.4967 -0.0425
44457W        W53257  20.651   3.530  35.966  0.2530  0.2445  0.1323
44458W        W53258   7.959   5.401   3.845 -0.0002 -0.1020 -0.1076
44459W        W53259   9.856   4.826   8.679  0.2068 -0.0215 -0.2149
44460W        W53260  14.223   6.089   5.513  0.2201  0.1136 -0.1662
44461W        W53261   8.447   2.044   5.880 -0.2650 -0.0056 -0.0589
44462W        W53262  10.351   1.336  29.581  0.1932  0.1664 -0.1512
44463W        W53263  21.342   5.276  35.289  0.0535  0.0320 -0.1166
44464W        W53264  21.812   6.193   3.371  0.1311 -0.4716 -0.1291
44465W        W53265  16.139   2.757   0.887 -0.1183 -0.2278  0.0621
44466W        W53266   2.635   2.948  10.649 -0.1391  0.2765  0.0093
44467W        W53267  18.904   2.534  35.946  0.0665  0.1496  0.2458
44468W        W53268   8.542   5.891  13.054  0.1104 -0.2236  0.1888
44469W        W53269  22.749   1.667   4.628  0.0183  0.1864 -0.2282
44470W        W53270  10.243   4.791  26.444 -0.1615 -0.2887 -0.0804
44471W        W53271   1.218   1.617  11.045 -0.2003 -0.0780 -0.2590
44472W        W53272   8.979   4.017   7.847  0.1647 -0.3115  0.0551
44473W        W53273  18.874   1.377   6.116 -0.1996  0.3547  0.1099
44474W        W53274  11.843   4.084  35.178  0.3967 -0.1582 -0.1230
44475W        W53275   2.195   4.357   0.395 -0.0150 -0.0322 -0.2646
44476W        W53276  15.316   5.256  13.383 -0.1751 -0.0723  0.1702
44477W        W53277  20.344   3.015  27.789 -0.0141 -0.2546 -0.0416
44478W        W53278   6.805   1.237  22.633  0.2426  0.1612 -0.0553
44479W        W53279  24.276   0.871  11.994 -0.2494 -0.3947  0.2048
44480W        W53280  10.218   2.549  10.822 -0.0119 -0.2208  0.1287
44481W        W53281   4.661   4.019  34.878 -0.1556  0.0486 -0.0097
44482W        W53282  14.727   4.636  32.331 -0.0428 -0.0868  0.0902
44483W        W53283   3.899   0.602  28.279 -0.0017  0.0793  0.1225
44484W        W53284  26.316   3.309  13.565  0.1415  0.2712 -0.0307
44485W        W53285  18.759   3.321  30.182  0.1791 -0.0081 -0.0555
44486W        W53286   5.360   4.008   8.002  0.0009 -0.2528  0.2806
44487W        W53287  19.444   0.649  13.373  0.1003  0.2960 -0.3359
44488W        W53288   4.360   6.135   4.438  0.0040  0.2516 -0.2779
44489W        W53289  23.432   1.450   1.144  0.2448 -0.2442  0.0547
44490W        W53290  21.326   4.978  27.549  0.0314 -0.0887 -0.2703
44491W        W53291   3.707   5.987  35.182 -0.0477  0.0236 -0.3180
44492W        W53292   5.956   4.646  22.740 -0.2981  0.2450  0.0111
44493W        W53293   2.965   1.074   0.538 -0.0055 -0.0843  0.1178
44494W        W53294   4.950   4.863   4.064 -0.1117  0.0951 -0.2670
44495W        W53295  25.990   5.169  10.801 -0.1081  0.0842  0.0533
44496W        W53296  10.753   1.651   0.914  0.4290  0.3241 -0.3161
44497W        W53297  13.213   6.100  33.932  0.1114  0.0903 -0.1127
44498W        W53298  16.497   3.582  30.997  0.1355 -0.1190  0.1169
44499W        W53299   5.791   1.053  25.545  0.1893  0.0623 -0.0661
44500W        W53300  25.774   4.381  13.706 -0.2408  0.1402 -0.0903
44501W        W53301  15.389   0.215  31.757  0.0281 -0.0451 -0.3395
44502W        W53302   9.261   2.355   3.855 -0.1409  0.3509 -0.1100
44503W        W53303   6.005   1.780   7.865 -0.0102 -0.0024 -0.0257
44504W        W53304  12.118   2.380  13.459 -0.0967  0.1550 -0.1691
44505W        W53305   1.009   1.435   0.115 -0.0534  0.1650 -0.3250
44506W        W53306  17.548   3.689   3.268 -0.0790 -0.3715  0.0256
44507W        W53307  14.342   0.115  26.890 -0.0347  0.0308 -0.0632
44508W        W53308  10.654   0.395   6.851 -0.0012 -0.1097  0.1524
44509W        W53309   4.598   0.407  14.758  0.1041 -0.0123 -0.0761
44510W        W53310  25.816   3.079  15.134  0.1904 -0.0851  0.0663
44511W        W53311  13.132   5.275   5.276  0.0413  0.0147  0.0703
44512W        W53312   1.060   0.703  10.246 -0.1420  0.0210  0.1862
44513W        W53313  22.066   6.367  31.708  0.0362 -0.0418  0.0978
44514W        W53314   7.439   3.813   8.553  0.0625 -0.0703  0.0109
44515W        W53315  25.362   3.263  33.797 -0.1612  0.2360  0.2256
44516W        W53316  18.798   1.714  27.510 -0.0507 -0.0976  0.1857
44517W        W53317  13.520   0.330   1.022 -0.4306  0.2339  0.2008
44518W        W53318  26.346   5.692  33.637 -0.0479  0.1570 -0.0731
44519W        W53319   3.149   3.745   0.441 -0.1550  0.4963 -0.1406
44520W        W53320   6.335   0.209  33.362  0.1484  0.0040  0.2784
44521W        W53321   9.645   0.821  35.796 -0.0270  0.1092 -0.3114
44522W        W53322  19.984   0.139   1.785  0.1058 -0.0379  0.0385
44523W        W53323   2.070   5.650  27.313  0.0156 -0.0706  0.1395
44524W        W53324   4.968   5.626   0.391 -0.5774 -0.0098 -0.1728
44525W        W53325   4.357   0.529  33.029  0.1692  0.0658  0.1130
44526W        W53326  15.115   0.375  27.385  0.0497 -0.0384  0.2232
44527W        W53327  25.416   5.093   9.025  0.0608  0.0153  0.2522
44528W        W53328  20.434   6.405  11.854 -0.0321  0.3091 -0.2423
44529W        W53329   4.406   3.951  11.736  0.2221 -0.2342  0.0638
44530W        W53330   2.499   5.928  27.296  0.0948  0.3085 -0.0002
44531W        W53331   0.414   0.200  29.909  0.2559  0.0099 -0.0673
44532W        W53332   4.243   4.043   6.551 -0.0682 -0.3659 -0.1527
44533W        W53333   6.273   3.763  10.410 -0.0194  0.0226  0.2025
44534W        W53334  21.954   0.269  22.510 -0.0180 -0.0107  0.0943
44535W        W53335   8.355   2.653  28.490  0.0812  0.1061  0.1419
44536W        W53336  23.383   0.924  24.672 -0.1485 -0.3779  0.3220
44537W        W53337  18.520   4.384   5.319 -0.0039  0.1610  0.1459
44538W        W53338  16.986   5.723  33.307  0.0003  0.0547  0.1091
44539W        W53339  19.608   3.098  14.467  0.1467 -0.3313 -0.1792
44540W        W53340   1.977   2.357  30.343 -0.0462 -0.0283 -0.3384
44541W        W53341   8.613   0.140  21.851 -0.2913 -0.1695 -0.0739
44542W        W53342  20.843   4.127  24.252 -0.3505 -0.0651  0.2625
44543W        W53343  20.360   5.441   3.692 -0.2580 -0.1530  0.2477
44544W        W53344   3.071   3.530  30.868  0.2254 -0.1602  0.1689
44545W        W53345  15.522   5.891  22.924 -0.1137 -0.2102 -0.1544
44546W        W53346  24.395   1.469  15.130  0.0318 -0.0340  0.1312
44547W        W53347  11.722   2.153  30.229  0.0919  0.2333  0.4482
44548W        W53348  15.207   1.727  25.808  0.0643 -0.0260  0.3553
44549W        W53349   2.418   1.380   1.715 -0.0983 -0.2239 -0.0349
44550W        W53350   1.954   0.439  23.020  0.2419  0.0756  0.0208
44551W        W53351   1.136   2.593  27.817  0.0812 -0.1886 -0.0784
44552W        W53352  16.212   1.919  28.327 -0.0044 -0.0077 -0.0849
44553W        W53353  18.526   3.599   5.194 -0.1900  0.0417 -0.0835
44554W        W53354  24.056   3.307   1.051 -0.2010 -0.1322 -0.2290
44555W        W53355   3.040   0.597  22.888 -0.0555  0.0009  0.2632
44556W        W53356   6.975   1.044  10.483  0.0665 -0.2848  0.0158
44557W        W53357  21.269   6.554  32.502  0.0681  0.0555 -0.2381
44558W        W53358  11.996   0.359  28.164 -0.2516  0.3143 -0.0909
44559W        W53359  16.597   1.346  12.758  0.0995  0.1092 -0.2388
44560W        W53360  12.939   5.741   8.499  0.1111  0.2153  0.0819
44561W        W53361  18.481   6.549   7.430  0.3031 -0.0801  0.0523
44562W        W53362  14.703   3.344   4.861  0.0011 -0.0454  0.0401
44563W        W53363  17.237   2.227  22.039  0.2967  0.0576 -0.2512
44564W        W53364  13.982   0.987  13.406 -0.0271  0.1271  0.0954
44565W        W53365  21.637   5.768   1.721  0.1112  0.0596 -0.0668
44566W        W53366  13.352   3.610  11.227 -0.0865 -0.0542  0.0822
44567W        W53367   3.775   1.325  30.430 -0.0712  0.1193  0.4503
44568W        W53368   0.828   6.494  14.548  0.0806  0.1270  0.2202
44569W        W53369   1.802   6.554  25.663  0.0526  0.1794  0.0952
44570W        W53370  18.202   4.023   1.326 -0.1558  0.0023 -0.0457
44571W        W53371   6.871   5.495  23.724  0.1091 -0.0087  0.2423
44572W        W53372  18.603   3.298  33.309  0.0346  0.0233  0.1301
44573W        W53373  10.326   3.928  33.148  0.1052  0.1033 -0.0719
44574W        W53374  12.513   0.600  24.113 -0.3025 -0.1118 -0.5694
44575W        W53375  24.367   1.449  10.748  0.0740  0.2278  0.1152
44576W        W53376   3.773   0.011   8.200 -0.0195  0.0471 -0.1916
44577W        W53377  19.116   5.540   5.921 -0.2043 -0.0838  0.1725
44578W        W53378  22.932   1.813  31.813 -0.1106 -0.0159  0.0923
44579W        W53379  11.398   5.067  32.322  0.0567 -0.0892  0.0096
44580W        W53380   8.954   4.400  31.444 -0.1283  0.0900  0.1644
44581W        W53381   3.430   5.179   8.143  0.0841  0.0434  0.1253
44582W        W53382  24.606   3.056  30.506 -0.1598  0.1588 -0.4262
44583W        W53383  13.753   1.711  28.730  0.2693 -0.0492  0.1537
44584W        W53384   9.930   5.356  32.733 -0.1367 -0.1982  0.0485
44585W        W53385  24.775   1.256   0.415  0.3204 -0.2071 -0.0010
44586W        W53386  26.158   5.457  11.721 -0.2799 -0.2048  0.4644
44587W        W53387   0.413   4.167  23.543 -0.0177  0.0861 -0.2247
44588W        W53388  19.328   1.435  34.045  0.3613 -0.0824  0.0184
44589W        W53389  18.996   1.782  26.445 -0.0701 -0.0172 -0.0260
44590W        W53390   5.754   3.717  32.570  0.2163 -0.0211  0.2387
44591W        W53391   5.619   3.113  30.387  0.0293  0.0205 -0.1761
44592W        W53392  13.986   5.706  35.818 -0.0908  0.0639 -0.3586
44593W        W53393  25.858   0.363   6.761 -0.0468 -0.2201  0.1719
44594W        W53394  19.560   0.504  29.683 -0.0944  0.1157 -0.2976
44595W        W53395  23.515   3.830   4.022  0.1358  0.3031 -0.0800
44596W        W53396   7.867   6.371  22.068 -0.0696 -0.2746 -0.1786
44597W        W53397  12.558   1.171  31.976 -0.3365  0.3477 -0.0959
44598W        W53398  19.329   5.024  26.054 -0.0157  0.0451  0.1092
44599W        W53399  22.564   1.452  35.018  0.0199 -0.2586  0.2695
44600W        W53400   7.694   0.677  24.735  0.1051 -0.2568 -0.0417
44601W        W53401  15.780   3.122  15.568  0.1211  0.1007  0.0773
44602W        W53402  18.465   2.857   2.281 -0.1759  0.1520  0.1847
44603W        W53403   0.858   3.351  23.206 -0.2227  0.0026 -0.0209
44604W        W53404  20.683   6.038  12.709 -0.0969 -0.2793  0.2948
44605W        W53405  21.964   1.937   7.899 -0.2126 -0.1234  0.2346
44606W        W53406   6.076   3.698  35.363  0.2208 -0.0235 -0.1681
44607W        W53407   2.423   0.556  26.309 -0.2491  0.0071 -0.0601
44608W        W53408   8.239   1.754  30.337 -0.1195 -0.1189 -0.2319
44609W        W53409   8.797   3.972   5.842 -0.0970 -0.0287  0.0089
44610W        W53410   6.668   4.511  33.281 -0.0950  0.2236  0.0794
44611W        W53411  19.336   2.402   0.105 -0.1654  0.0505 -0.2289
44612W        W53412  21.446   2.470  27.593 -0.1290  0.0332  0.2287
44613W        W53413   8.142   3.742   0.649  0.1398 -0.0614  0.0480
44614W        W53414  22.339   5.656   4.821  0.2635  0.1525  0.2271
44615W        W53415   9.713   6.448   8.202  0.1888 -0.2770 -0.2122
44616W        W53416  10.998   1.462  25.097  0.0454 -0.2223  0.2049
44617W        W53417  20.584   1.237  10.339 -0.2794 -0.2411  0.3621
44618W        W53418  10.776   1.344   6.643  0.1445  0.1721 -0.3323
44619W        W53419   9.518   2.090  11.220 -0.3272  0.2187  0.0161
44620W        W53420  21.139   1.175   5.775 -0.4554 -0.0989  0.0939
44621W        W53421   5.371   0.595  26.874  0.0497 -0.0113 -0.0617
44622W        W53422  20.296   6.325  28.317  0.0970 -0.2178 -0.5321
44623W        W53423   3.608   5.566  30.439  0.0022 -0.1048  0.0286
44624W        W53424  22.999   5.721  33.137  0.0708  0.1808  0.0966
44625W        W53425   2.727   1.412   3.027  0.0334  0.1041  0.1025
44626W        W53426   3.942   2.425   1.038 -0.0013 -0.2597 -0.2789
44627W        W53427  15.230   5.998  14.624  0.1124  0.0085  0.4239
44628W        W53428   5.214   5.343   6.456 -0.1467 -0.0059  0.0379
44629W        W53429  16.723   1.778   6.696 -0.0732 -0.1089  0.0478
44630W        W53430  19.414   3.579  15.324 -0.1525  0.1806  0.2271
44631W        W53431   3.228   0.796   2.553 -0.3752  0.1450 -0.1916
44632W        W53432  16.349   5.434  15.346  0.0348  0.0249  0.0355
44633W        W53433  18.815   2.438  29.818  0.0727  0.0674 -0.0298
44634W        W53434  15.230   0.875   8.828 -0.3087  0.4238 -0.3539
44635W        W53435  15.995   0.607  26.143  0.1227  0.3172  0.3234
44636W        W53436   2.723   6.487  13.723  0.3065  0.3296  0.0449
44637W        W53437  21.886   4.805  30.117  0.1510 -0.0225  0.1297
44638W        W53438  21.187   6.293   4.985  0.3846  0.1208 -0.0300
44639W        W53439  19.451   3.102  27.206 -0.0193  0.0979  0.1020
44640W        W53440  13.425   1.320  12.916 -0.1131  0.0966  0.5586
44641W        W53441  19.525   1.826  24.510  0.2755 -0.1889 -0.1678
44642W        W53442  13.017   0.538   7.043 -0.1033  0.2445  0.2178
44643W        W53443  16.041   5.351   0.834  0.1846  0.0291  0.1797
44644W        W53444  16.721   5.718  26.961  0.3742  0.0172 -0.0156
44645W        W53445  17.814   4.353  27.980  0.1176  0.5928 -0.0585
44646W        W53446   5.270   0.710   8.887 -0.3568  0.0239  0.0169
44647W        W53447  24.875   2.371  24.385 -0.0948  0.0589 -0.1026
44648W        W53448   3.593   1.922   8.148  0.0170 -0.0753 -0.1206
44649W        W53449  23.863   5.830  24.224 -0.1272 -0.1178  0.0922
44650W        W53450  20.069   4.852  14.861 -0.1303  0.2861  0.0942
44651W        W53451  23.996   0.756   7.268 -0.3533  0.0788  0.1499
44652W        W53452  11.552   5.811  21.318 -0.1187  0.0620 -0.1009
44653W        W53453   0.597   5.532  30.904 -0.3491 -0.0247 -0.1804
44654W        W53454   6.533   2.288   6.035 -0.0165 -0.1212 -0.0639
44655W        W53455  14.067   5.783  29.589  0.1340 -0.0261 -0.2359
44656W        W53456  10.201   2.859  22.443 -0.2530  0.0557  0.2265
44657W        W53457   8.841   3.434  34.785 -0.0078 -0.4550 -0.1853
44658W        W53458  14.361   2.998   4.914  0.1682 -0.1731  0.1036
44659W        W53459   7.806   2.138  26.042  0.0973  0.2545 -0.1920
44660W        W53460   3.850   2.558  12.655  0.0159  0.0343 -0.0534
44661W        W53461   1.470   4.799  14.740 -0.2370 -0.0873  0.0644
44662W        W53462  18.651   5.996  11.685 -0.1769 -0.3001  0.0199
44663W        W53463   3.795   4.169   9.244  0.0013  0.0462 -0.2891
44664W        W53464   8.102   2.998   2.010  0.0480  0.1094  0.0080
44665W        W53465  19.963   2.837  23.634  0.1130 -0.0753  0.0810
44666W        W53466  19.581   2.110  30.351  0.1665  0.2712 -0.1104
44667W        W53467  23.782   4.242  14.227 -0.5540 -0.1303  0.0650
44668W        W53468   8.409   0.613  24.143  0.0598 -0.2186 -0.2068
44669W        W53469  16.193   1.313  15.508 -0.1454 -0.0815 -0.0154
44670W        W53470   2.305   5.225  14.538 -0.1988  0.0882 -0.2441
44671W        W53471  17.700   5.921   3.165 -0.0388  0.2828  0.1843
44672W        W53472   1.316   3.927  35.233  0.0638 -0.1435 -0.2012
44673W        W53473  21.117   5.929   4.591 -0.1990 -0.0849  0.1933
44674W        W53474   2.538   0.301  20.374 -0.1701 -0.0207  0.4020
44675W        W53475  13.908   6.426  12.014 -0.1231  0.0661 -0.2250
44676W        W53476  25.002   4.294   9.202 -0.0802 -0.2680  0.1538
44677W        W53477   1.735   5.101  20.966  0.1107  0.1452  0.3132
44678W        W53478   6.259   1.703  15.141 -0.0498 -0.2780  0.3271
44679W        W53479   8.275   6.466   5.690  0.1174 -0.0870  0.0118
44680W        W53480   6.263   4.914   6.246  0.0852  0.0615 -0.2103
44681W        W53481   1.529   1.340  34.225  0.1416 -0.0520  0.2097
44682W        W53482   1.892   0.690  25.071 -0.3527 -0.0235 -0.0230
44683W        W53483  18.039   3.146  10.588 -0.1176  0.0874 -0.0244
44684W        W53484  14.995   1.733   1.606  0.0769  0.1504  0.2705
44685W        W53485  26.378   1.214  11.128 -0.1377  0.2802 -0.1737
44686W        W53486   5.749   3.747  13.342 -0.5584  0.0735 -0.0778
44687W        W53487   4.836   4.586  29.620 -0.3422  0.2958  0.1664
44688W        W53488  23.099   6.559  11.353  0.0584 -0.0333 -0.0383
44689W        W53489   0.310   1.693  20.848 -0.2304 -0.1935  0.1807
44690W        W53490  20.157   1.035  23.867  0.0774 -0.1761 -0.5531
44691W        W53491  23.019   4.372  25.516 -0.2375 -0.1190  0.0359
44692W        W53492  13.174   5.643  14.999  0.0646 -0.0498  0.1240
44693W        W53493   3.649   5.686  12.146 -0.1342  0.2027  0.0519
44694W        W53494   4.640   6.079  22.966  0.1589  0.2317 -0.2818
44695W        W53495   0.404   0.511  11.417  0.1464  0.0022  0.1646
44696W        W53496  17.551   6.444  25.325  0.0634 -0.2689  0.1708
44697W        W53497  19.131   3.605  13.058 -0.0898 -0.1885  0.1819
44698W        W53498   1.095   2.218   7.959 -0.2400  0.2467 -0.1864
44699W        W53499  21.603   4.327  11.347  0.3046  0.2843 -0.2323
44700W        W53500  23.474   2.032  32.953 -0.0377 -0.2341  0.0399
44701W        W53501  11.921   2.801  34.135  0.0212 -0.0067 -0.1897
44702W        W53502  20.303   5.533  10.400 -0.1271  0.0281 -0.0203
44703W        W53503  10.688   2.024  15.527 -0.1946  0.2889  0.0166
44704W        W53504  16.818   4.471  30.141  0.2617 -0.3193 -0.1823
44705W        W53505  18.840   5.273  23.993 -0.1023  0.1132  0.1835
44706W        W53506   0.422   3.053  29.416  0.5060  0.0083 -0.3045
44707W        W53507  11.318   0.461   4.044 -0.0159  0.0511  0.0612
44708W        W53508  17.405   3.694   1.151  0.0971 -0.0370 -0.1519
44709W        W53509   8.558   4.626  35.390  0.1504  0.0472 -0.1760
44710W        W53510  15.831   4.460   2.558 -0.0428 -0.0411  0.0943
44711W        W53511  23.664   5.990  12.170  0.2663  0.1486  0.2724
44712W        W53512   4.630   3.041  27.162  0.0918 -0.1553 -0.0537
44713W        W53513  16.306   2.506   8.467  0.0537 -0.1315 -0.3011
44714W        W53514  10.586   0.995   9.207 -0.0224 -0.3181 -0.0080
44715W        W53515  20.282   6.402   7.598 -0.0699 -0.4707  0.1032
44716W        W53516  14.536   2.738   8.759 -0.0887 -0.1538 -0.0497
44717W        W53517   2.670   0.664  32.822  0.2565  0.3167  0.1925
44718W        W53518  16.891   3.309  29.665  0.2122 -0.3358  0.0068
44719W        W53519  11.021   0.888   8.045  0.6398 -0.0899  0.2270
44720W        W53520   3.453   5.577  29.218 -0.1052  0.1435 -0.5637
44721W        W53521  20.700   1.966  30.346  0.0419  0.2024 -0.2831
44722W        W53522   6.448   3.902  32.588  0.0537 -0.1263  0.2092
44723W        W53523   4.389   3.344  11.684 -0.0847  0.0709  0.0631
44724W        W53524  25.999   5.434  13.008 -0.1345 -0.1737 -0.0522
44725W        W53525  24.823   0.265   4.499  0.2497 -0.3265  0.1037
44726W        W53526   5.488   1.926  26.764 -0.1331 -0.0790  0.6062
44727W        W53527  16.288   2.921   4.945  0.2628  0.1020  0.3925
44728W        W53528  11.572   0.223  15.334 -0.1960 -0.2773 -0.2496
44729W        W53529  11.594   4.604  11.852  0.4448  0.0335 -0.2487
44730W        W53530  26.396   2.191   9.236 -0.2664  0.0023  0.0471
44731W        W53531  10.152   0.873  13.309  0.1341  0.1046 -0.1228
44732W        W53532   7.455   4.447   3.737  0.1852 -0.0327  0.0707
44733W        W53533   7.516   1.951  10.542  0.0800 -0.2316 -0.0601
44734W        W53534  17.599   2.131   8.923 -0.0633 -0.0011  0.4515
44735W        W53535  23.945   6.320  27.372 -0.2876  0.1923  0.0540
44736W        W53536  12.157   0.204   6.256  0.1196  0.0538  0.1153
44737W        W53537   5.980   0.467   4.973  0.2797 -0.0217  0.2421
44738W        W53538  20.112   0.083  31.027 -0.1557 -0.0880 -0.0548
44739W        W53539   4.136   0.082  35.197  0.1568 -0.1953 -0.2846
44740W        W53540  11.736   0.022  32.197  0.0285 -0.2258 -0.0523
44741W        W53541   7.949   2.465   9.126 -0.1018 -0.0613 -0.1344
44742W        W53542   5.898   3.267  27.988 -0.0611 -0.1103  0.0865
44743W        W53543  18.738   4.820   9.922  0.3566  0.1025  0.0321
44744W        W53544   3.683   4.709  12.631 -0.1737 -0.2772 -0.2632
44745W        W53545   4.750   2.960   3.645  0.1936  0.1160  0.2114
44746W        W53546   0.326   5.594  26.143 -0.0648  0.2109 -0.2218
44747W        W53547  25.489   5.796  30.319  0.0112 -0.1199  0.0733
44748W        W53548  23.839   4.807  27.413  0.3254 -0.0511  0.2044
44749W        W53549  12.456   1.693  31.945 -0.1042  0.0209  0.0665
44750W        W53550  19.723   2.754   1.170  0.0118 -0.1895  0.0608
44751W        W53551  24.554   5.576  29.995 -0.2242  0.3000  0.2200
44752W        W53552   4.092   5.156  30.915  0.3123  0.0447  0.1092
44753W        W53553  15.871   5.011  10.743  0.0276  0.5198  0.1295
44754W        W53554   8.875   5.130  15.621  0.0935 -0.1257  0.1330
44755W        W53555  26.152   6.320  26.441 -0.2065  0.1121 -0.0545
44756W        W53556  19.857   0.602   0.203 -0.2932  0.0299  0.1682
44757W        W53557  22.302   0.202   7.262  0.1459 -0.0012 -0.1995
44758W        W53558  12.143   4.453   2.031  0.0913  0.1807  0.1770
44759W        W53559  22.594   3.427  24.520 -0.0156  0.3173 -0.0185
44760W        W53560  11.159   3.211   7.582  0.2058 -0.0065 -0.1802
44761W        W53561   6.253   5.002  15.842 -0.0182 -0.2310 -0.0438
44762W        W53562   1.024   0.432  33.866 -0.1139  0.0378  0.1912
44763W        W53563   3.748   3.110   6.348 -0.2169 -0.0232 -0.0102
44764W        W53564  19.708   5.243  29.622  0.0863  0.0618 -0.0789
44765W        W53565   1.314   3.585  11.752  0.0986  0.2455  0.0180
44766W        W53566  24.704   5.007  11.827 -0.0785  0.3721 -0.1973
44767W        W53567   9.744   4.003  14.871  0.1405 -0.0816  0.2058
44768W        W53568   3.235   3.173  12.554  0.0582 -0.1681 -0.4583
44769W        W53569   1.603   6.563   7.784  0.0044 -0.3520 -0.0107
44770W        W53570  20.288   5.585  22.756 -0.1204  0.0535  0.0102
44771W        W53571   1.485   5.421   7.504  0.3860 -0.0784 -0.2417
44772W        W53572  24.636   4.959   9.814  0.0202  0.0284  0.0252
44773W        W53573   0.742   2.950  26.460  0.2998 -0.0919 -0.0721
44774W        W53574  12.536   1.908  26.084  0.1019 -0.0724 -0.2036
44775W        W53575   5.851   4.414  29.512 -0.0954 -0.0471 -0.2194
44776W        W53576  18.988   4.678  13.892 -0.2380  0.1861  0.1641
44777W        W53577   2.938   6.331   1.451  0.1012  0.0550 -0.0610
44778W        W53578   2.202   3.133  29.264  0.3143 -0.0195 -0.1365
44779W        W53579  19.464   1.658  29.627 -0.0869 -0.0097 -0.1246
44780W        W53580  11.397   1.847  22.692 -0.2020 -0.1482 -0.1900
44781W        W53581   8.751   6.390   8.052  0.1552  0.0041 -0.0933
44782W        W53582  21.942   1.602  33.351 -0.0059 -0.2246 -0.1890
44783W        W53583  25.783   3.572  14.228 -0.2176  0.0471  0.0773
44784W        W53584   7.365   4.278   9.849  0.0772  0.0164  0.1738
44785W        W53585   0.141   1.722  14.144  0.1723 -0.1800 -0.2244
44786W        W53586   5.474   0.299  21.498  0.1259 -0.0096 -0.1240
44787W        W53587  10.218   1.910  14.126  0.0064 -0.0770 -0.2797
44788W        W53588  21.414   0.207  22.279 -0.1649  0.0099  0.0450
44789W        W53589  14.307   2.599  15.409 -0.2439  0.2472  0.0953
44790W        W53590  15.631   0.844  24.300 -0.1121  0.1042 -0.0478
44791W        W53591  24.844   2.479  33.092 -0.2418  0.1718 -0.0177
44792W        W53592   1.465   2.683  20.823 -0.2012 -0.0305  0.2816
44793W        W53593   5.189   3.438   1.126 -0.0070 -0.1712  0.3182
44794W        W53594  24.098   1.679   0.666  0.0402  0.0325 -0.1870
44795W        W53595   2.431   4.688   4.665  0.2558  0.0321 -0.1751
44796W        W53596  23.295   1.342  12.741 -0.1073  0.3109 -0.5298
44797W        W53597   0.632   3.843  15.066  0.1861 -0.1891  0.1117
44798W        W53598   9.771   6.251  33.071  0.0267  0.0272  0.3005
44799W        W53599  24.194   5.191   0.183 -0.0684  0.1015 -0.0590
44800W        W53600   1.829   4.797  26.315 -0.2285 -0.1601  0.0229
44801W        W53601   6.901   6.299  12.113  0.1589 -0.0295 -0.0466
44802W        W53602  15.083   4.630  21.487  0.0491 -0.3117  0.3050
44803W        W53603   2.023   4.679  26.895 -0.2569 -0.0908  0.0570
44804W        W53604   8.778   0.404  36.099 -0.1097 -0.2539 -0.1569
44805W        W53605  15.689   1.540   4.727 -0.0581 -0.0869  0.2846
44806W        W53606  24.733   5.259  24.421 -0.0586 -0.0221 -0.1659
44807W        W53607   2.234   2.830   9.830 -0.1250 -0.1569  0.1904
44808W        W53608  19.464   4.101  14.480 -0.1178 -0.0947  0.3947
44809W        W53609  14.818   6.425   7.380 -0.1909 -0.0224  0.0449
44810W        W53610   1.690   0.651  34.800  0.1676 -0.0376  0.2173
44811W        W53611  12.100   4.808  10.654 -0.2194  0.1940  0.0298
44812W        W53612  19.416   1.887  13.807 -0.2255 -0.2392 -0.2448
44813W        W53613  10.328   1.795  16.053 -0.1641 -0.2440  0.3100
44814W        W53614   4.464   0.950  23.894 -0.1911  0.2499  0.0159
44815W        W53615  18.094   0.908  22.858 -0.0877 -0.1657 -0.1856
44816W        W53616   7.439   0.444  21.777 -0.0308 -0.0271  0.0607
44817W        W53617  25.150   0.687   3.514  0.0938 -0.0487  0.0747
44818W        W53618  24.094   6.029   1.294  0.1933  0.3437 -0.0993
44819W        W53619  23.712   0.900   5.323  0.2220 -0.2342 -0.1156
44820W        W53620  12.604   1.910  35.025  0.0669  0.1692 -0.0298
44821W        W53621  17.576   5.500  23.173  0.1730 -0.0534 -0.2644
44822W        W53622  10.329   2.128   7.011  0.0379  0.2939  0.0569
44823W        W53623  13.522   0.929  30.594 -0.0668 -0.2931  0.0082
44824W        W53624  11.482   1.902  26.986 -0.1635 -0.0704 -0.2780
44825W        W53625  25.406   5.030  34.528  0.3480 -0.0641  0.2560
44826W        W53626  11.617   5.944  12.574 -0.2316 -0.0525 -0.2286
44827W        W53627  11.555   2.226  30.805  0.1861 -0.2353 -0.3008
44828W        W53628  15.212   5.833  21.789 -0.3149  0.0636  0.0365
44829W        W53629   1.421   3.587   9.555 -0.1176  0.1827 -0.0887
44830W        W53630  17.869   1.932   6.117  0.0223  0.0222  0.1968
44831W        W53631   7.797   3.464  26.821  0.1499 -0.0463  0.0354
44832W        W53632  25.772   6.266   9.997  0.2046 -0.0981  0.0024
44833W        W53633  12.798   5.536   9.089  0.0938 -0.0700  0.1789
44834W        W53634  17.090   1.682   5.812  0.2339  0.1800 -0.0207
44835W        W53635   4.092   1.399  20.654 -0.0605  0.0214 -0.1337
44836W        W53636   6.310   4.557   7.626  0.0123 -0.1463 -0.0691
44837W        W53637  24.684   2.355  26.926  0.0234 -0.0288 -0.3315
44838W        W53638   4.612   0.838  10.394  0.1267 -0.3007  0.1417
44839W        W53639  14.709   3.346   8.125  0.1852 -0.3625  0.0199
44840W        W53640  20.826   4.834   8.736 -0.2877  0.0108 -0.0047
44841W        W53641  17.835   1.122  35.725 -0.0805  0.2702  0.1297
44842W        W53642  20.242   1.183   1.268  0.0136  0.1025  0.2292
44843W        W53643  25.958   0.437  33.616  0.0780  0.0249 -0.0402
44844W        W53644  19.362   6.537   7.152 -0.0205 -0.2645  0.2571
44845W        W53645  11.011   0.216  21.791 -0.0401  0.0277 -0.0130
44846W        W53646  13.348   5.768  23.118 -0.1165  0.0585 -0.2601
44847W        W53647   6.257   4.767  27.804  0.2590 -0.0625 -0.1296
44848W        W53648  19.220   1.588  22.315 -0.0904 -0.1159 -0.0995
44849W        W53649   6.578   1.251  21.318  0.1557  0.0307  0.0576
44850W        W53650   2.920   1.195   6.213  0.0929  0.1615 -0.0851
44851W        W53651  15.524   0.450   5.677  0.2484 -0.0500  0.4144
44852W        W53652   3.166   0.446  33.642  0.0908  0.0204  0.0856
44853W        W53653   5.359   0.495  11.091 -0.0442  0.0933  0.1607
44854W        W53654  15.468   0.648  31.955 -0.1885  0.1776 -0.1485
44855W        W53655  13.767   4.272   5.384 -0.1604 -0.1332  0.2975
44856W        W53656  12.782   3.629  15.267 -0.4274 -0.0670  0.0238
44857W        W53657  15.362   2.699  34.058 -0.0158 -0.1971 -0.1360
44858W        W53658  21.055   0.791   4.314 -0.0957  0.2002  0.0221
44859W        W53659  25.445   3.199   9.268  0.2028 -0.0247  0.1815
44860W        W53660   7.064   0.946  14.033 -0.2950  0.2850 -0.0934
44861W        W53661  22.452   2.579  33.847 -0.1692 -0.0215  0.2084
44862W        W53662  18.000   0.162   6.604  0.1059 -0.1781  0.0943
44863W        W53663   8.225   0.896   7.158  0.3028  0.3566  0.0032
44864W        W53664   8.241   1.130  13.993  0.3078 -0.1553 -0.1122
44865W        W53665   8.647   6.150  11.216 -0.2954 -0.1024  0.2013
44866W        W53666   3.100   5.155  13.544  0.0216 -0.0888  0.1714
44867W        W53667  14.334   2.436  27.518 -0.0499  0.1524  0.3339
44868W        W53668  16.046   1.583  25.746  0.1383 -0.0127  0.1255
44869W        W53669   5.826   1.419   2.094 -0.0016  0.0145  0.1367
44870W        W53670   1.821   1.469   0.357 -0.3391  0.3236 -0.1123
44871W        W53671  15.158   2.397  22.163  0.2855 -0.0927  0.0018
44872W        W53672  24.578   4.577   4.118 -0.0622  0.1449 -0.0452
44873W        W53673  26.194   2.906  30.288 -0.0422 -0.1990  0.1894
44874W        W53674   3.325   5.637  10.281  0.1346 -0.0377 -0.3537
44875W        W53675   5.025   3.801   3.863  0.0062 -0.1025 -0.2664
44876W        W53676  23.809   0.119   1.936  0.0630  0.0628  0.0257
44877W        W53677   4.565   3.741  24.846  0.1699  0.0315 -0.0559
44878W        W53678  10.135   4.034  10.070 -0.0443  0.1110  0.1011
44879W        W53679   6.015   4.202  24.168  0.3440  0.1284  0.1957
44880W        W53680   3.402   0.028   1.366 -0.3159 -0.0105  0.0325
44881W        W53681  12.290   1.513   7.302 -0.1351 -0.0279 -0.2822
44882W        W53682  21.468   2.399   0.198 -0.0126  0.1426  0.3606
44883W        W53683  10.186   0.876  31.340  0.1482 -0.1018 -0.1055
44884W        W53684   1.094   0.304   7.685  0.2152  0.1724  0.1114
44885W        W53685  19.517   5.893   6.978 -0.1554  0.0270  0.0350
44886W        W53686  13.269   3.198   0.368 -0.0949 -0.0328  0.1365
44887W        W53687  10.803   5.807  35.673 -0.2399  0.2947 -0.0534
44888W        W53688  15.899   1.784  15.697 -0.0413  0.4085  0.1413
44889W        W53689  14.489   5.329  27.238 -0.0512 -0.0687 -0.0256
44890W        W53690  19.010   4.905  35.766  0.1259 -0.2488 -0.4197
44891W        W53691   1.005   0.193  10.000  0.0001  0.0687 -0.2816
44892W        W53692   7.567   3.692   6.161 -0.0928  0.0395  0.2839
44893W        W53693  22.152   2.298  31.417  0.1203 -0.3464 -0.0102
44894W        W53694  21.400   1.428  31.268  0.1733  0.1861 -0.0565
44895W        W53695   1.886   6.577   3.324  0.0591  0.0728 -0.0602
44896W        W53696   2.657   5.079   5.919 -0.1094 -0.1228  0.0222
44897W        W53697  11.693   5.593  35.560 -0.0315  0.1088  0.0858
44898W        W53698  24.758   6.397  24.677 -0.0836  0.0275  0.0050
44899W        W53699  25.274   0.618  30.544  0.1863  0.2007 -0.3213
44900W        W53700  17.046   2.607  21.757  0.2443 -0.1121 -0.0125
44901W        W53701   7.799   0.635   4.165 -0.0864 -0.2240 -0.0916
44902W        W53702  16.125   0.664   5.111  0.0594  0.1195  0.0602
44903W        W53703  18.880   6.598   4.476  0.0265 -0.1482  0.0464
44904W        W53704   0.175   6.323  15.356 -0.4630 -0.2629  0.0386
44905W        W53705  10.680   6.093   4.138  0.1126 -0.0820 -0.0148
44906W        W53706  11.055   2.472  24.874 -0.0921 -0.1678 -0.1929
44907W        W53707   7.360   0.125   1.416 -0.1856 -0.1113  0.2024
44908W        W53708  12.887   1.204   5.671  0.1062  0.1849  0.2338
44909W        W53709  12.864   1.855  32.977 -0.0773 -0.1040 -0.0806
44910W        W53710  14.272   6.577  35.526 -0.1278 -0.1147 -0.2307
44911W        W53711   0.804   2.645  20.266  0.1996 -0.0924 -0.1386
44912W        W53712  25.689   5.546   5.546  0.0039 -0.2569 -0.2462
44913W        W53713  16.097   6.013  30.466  0.0816  0.1633 -0.2875
44914W        W53714  22.519   0.056  34.288 -0.0247  0.1977  0.3649
44915W        W53715   8.773   3.177   0.325  0.0475 -0.0023 -0.2358
44916W        W53716  25.618   0.972   2.965  0.1218  0.1950 -0.0477
44917W        W53717   8.215   4.631  31.853 -0.0102  0.3500 -0.2666
44918W        W53718  22.742   5.752  13.923 -0.0237 -0.4286  0.0584
44919W        W53719   7.487   4.622  28.434 -0.0635  0.0623 -0.0129
44920W        W53720  17.304   4.834  33.122 -0.0273 -0.1255  0.0260
44921W        W53721  25.681   1.822   1.205 -0.0765  0.2682 -0.1162
44922W        W53722  18.778   1.576  12.264 -0.3025 -0.0715 -0.0099
44923W        W53723  15.083   4.541  22.577 -0.0383 -0.1438  0.3274
44924W        W53724   7.852   6.261  14.198 -0.2929 -0.0493  0.2447
44925W        W53725   2.081   1.309  12.414  0.0933 -0.1553  0.0523
44926W        W53726  20.906   2.079  29.842  0.0933 -0.0390  0.0037
44927W        W53727   6.703   2.089   0.097  0.0547  0.0118 -0.0209
44928W        W53728  15.452   0.229  21.348 -0.3915 -0.0691 -0.2734
44929W        W53729  13.332   4.195  24.790 -0.0851  0.1481 -0.2052
44930W        W53730   6.613   3.795   3.373  0.0455 -0.0627 -0.1880
44931W        W53731   5.670   5.641  24.437  0.2218 -0.0589 -0.1094
44932W        W53732  22.621   0.890   5.419  0.0031  0.2003  0.1913
44933W        W53733  14.164   5.616  11.788  0.0733 -0.0459 -0.0828
44934W        W53734   8.305   6.466  30.144  0.0308 -0.1139  0.0231
44935W        W53735  15.569   0.635  21.777 -0.2218 -0.1344 -0.0713
44936W        W53736  17.946   1.684   4.369 -0.2835 -0.3839 -0.1183
44937W        W53737  12.125   1.289  23.847 -0.3713  0.0594  0.0735
44938W        W53738   4.813   3.920   2.874 -0.3619  0.1628  0.2508
44939W        W53739   7.107   2.313   5.075  0.0479 -0.1213 -0.1563
44940W        W53740  16.966   2.235   6.802  0.3838  0.1686 -0.0011
44941W        W53741  11.477   1.053   8.323  0.0230  0.1067 -0.0269
44942W        W53742  17.735   0.234   8.248 -0.0760 -0.0236  0.0699
44943W        W53743   9.733   2.313   9.469  0.0904  0.0285  0.5231
44944W        W53744   6.847   4.323  33.699  0.3402  0.0948 -0.2090
44945W        W53745   0.804   5.270   5.733  0.1335  0.0722 -0.0139
44946W        W53746  20.815   2.173  30.796  0.0573  0.0385  0.1245
44947W        W53747   4.617   4.323  26.056 -0.2641 -0.0807  0.1952
44948W        W53748  19.188   5.569  33.148 -0.3185 -0.1195  0.3403
44949W        W53749  10.594   2.896   0.505 -0.0101  0.0702  0.1042
44950W        W53750  25.195   5.359  28.295 -0.0548  0.0803  0.1936
44951W        W53751   1.369   4.554  26.198  0.0514  0.1528 -0.2587
44952W        W53752   9.105   5.629  31.239 -0.3379 -0.0899  0.1236
44953W        W53753  24.695   2.424  13.089  0.0619 -0.2255 -0.2103
44954W        W53754   9.876   2.837   4.331  0.2778  0.0170  0.0076
44955W        W53755   7.697   2.642  32.316 -0.2109  0.0669 -0.1241
44956W        W53756   9.222   1.055  13.050  0.0396 -0.2640  0.0590
44957W        W53757   1.088   3.796   2.358 -0.0826 -0.2836  0.0954
44958W        W53758   7.256   2.027  22.172 -0.0765 -0.1484  0.0574
44959W        W53759  22.434   3.935  11.559  0.2114 -0.1848  0.1328
44960W        W53760   2.677   4.046  29.880  0.0802 -0.0727  0.0237
44961W        W53761   6.534   4.466  30.560  0.0383 -0.1578 -0.1537
44962W        W53762  11.333   5.229  24.168 -0.0564 -0.1591  0.2165
44963W        W53763  25.095   4.498   2.015  0.0438 -0.1925 -0.2334
44964W        W53764  26.116   0.781   2.103  0.0569 -0.1106  0.4067
44965W        W53765  18.266   0.122  27.027 -0.0216 -0.2545 -0.0758
44966W        W53766  12.587   4.094  34.413  0.3324  0.0965 -0.1427
44967W        W53767  22.151   2.098  20.904  0.0835 -0.1866 -0.1402
44968W        W53768  24.107   1.784  26.637  0.0271  0.0893  0.0131
44969W        W53769   7.834   1.564  27.489  0.1592 -0.1294  0.0917
44970W        W53770   0.656   5.090  34.726  0.4083  0.0942 -0.0885
44971W        W53771   2.157   1.468  26.055  0.0269  0.1742 -0.4057
44972W        W53772   8.318   2.978  10.163 -0.0363 -0.1805  0.3855
44973W        W53773  25.191   0.675  29.540 -0.0985 -0.1785 -0.0139
44974W        W53774  14.674   2.592   6.955 -0.0217  0.0384 -0.1830
44975W        W53775  17.571   3.192  12.136  0.0797  0.1166 -0.1397
44976W        W53776   6.804   1.144  14.913 -0.1218 -0.0132  0.2834
44977W        W53777   6.687   1.711  24.609 -0.0470  0.2961  0.0648
44978W        W53778  26.076   1.252   2.839 -0.1362 -0.0321 -0.1450
44979W        W53779  13.416   6.076  20.918  0.0903  0.3226 -0.0092
44980W        W53780   8.186   3.596  10.255  0.0342 -0.0274 -0.1159
44981W        W53781   1.121   5.957   8.233 -0.0505  0.2402 -0.0647
44982W        W53782   6.360   6.417  11.910  0.2347 -0.0206 -0.0722
44983W        W53783  20.313   4.174  29.240 -0.1143  0.0094 -0.1400
44984W        W53784   9.755   3.739  34.015 -0.2598 -0.0150 -0.0485
44985W        W53785  23.474   6.562  35.869 -0.1746 -0.1111 -0.0400
44986W        W53786  10.823   4.620  34.946  0.2130 -0.2290  0.2653
44987W        W53787   3.216   5.377  28.122  0.0006 -0.0510 -0.0398
44988W        W53788  11.671   6.243  27.565 -0.1527 -0.1294  0.1043
44989W        W53789  26.078   6.298  36.132 -0.0332 -0.0217  0.0267
44990W        W53790  25.089   1.284   2.617 -0.4871 -0.0749 -0.1210
44991W        W53791  23.820   0.704   7.912 -0.0597  0.3111  0.0389
44992W        W53792  17.242   5.895  33.986  0.1326 -0.2689  0.0951
44993W        W53793  17.479   5.595   9.142 -0.0997 -0.1498  0.1087
44994W        W53794   7.537   2.721  35.579  0.0848  0.0169  0.0376
44995W        W53795  25.126   5.472  26.154  0.0612 -0.0638  0.1227
44996W        W53796   5.478   1.108  12.594  0.3252  0.0233 -0.1073
44997W        W53797  13.274   1.086   2.426 -0.1117  0.3052 -0.0835
44998W        W53798  14.166   3.903   7.077  0.1398  0.2653 -0.0004
44999W        W53799  20.450   2.547  10.287 -0.0500 -0.1280 -0.0891
45000W        W53800  25.936   3.874   2.840  0.1567 -0.0326  0.1359
45001W        W53801  19.912   1.228   4.112  0.0448  0.2101 -0.3476
45002W        W53802  22.808   1.373  36.056  0.1255  0.0763  0.1401
45003W        W53803   6.982   4.009  22.794  0.3019 -0.1656  0.1336
45004W        W53804  10.258   4.547  32.151  0.0524 -0.1924 -0.0698
45005W        W53805   1.166   6.307  27.750 -0.0919  0.0408  0.1097
45006W        W53806  15.804   3.785  10.020 -0.2575 -0.3767  0.0910
45007W        W53807  15.694   5.048   1.991  0.1450  0.2345  0.0684
45008W        W53808  16.384   5.408  20.947  0.3832  0.1413  0.1289
45009W        W53809  19.342   4.788  35.146  0.0325 -0.2145  0.3115
45010W        W53810  25.524   1.787  25.361 -0.4052 -0.3183  0.0137
45011W        W53811   1.567   4.361   2.078  0.1076 -0.2479 -0.0492
45012W        W53812   9.300   0.348  27.510  0.1184  0.2295  0.0076
45013W        W53813   7.830   3.370   3.759 -0.1400  0.4692  0.1000
45014W        W53814   3.317   6.270  34.222  0.1614 -0.0892  0.3061
45015W        W53815   9.642   5.825  11.695 -0.0439 -0.2244 -0.0650
45016W        W53816   9.993   2.813  30.468  0.1609  0.2682  0.0473
45017W        W53817   8.484   5.269  21.692  0.3555 -0.5627  0.0972
45018W        W53818  25.012   4.604   0.674  0.0930  0.2127  0.2879
45019W        W53819   4.688   2.038  26.345 -0.0438 -0.0609  0.2947
45020W        W53820  16.602   4.271   3.477  0.4455  0.3211  0.2127
45021W        W53821   5.863   1.859  14.908 -0.0114  0.1276 -0.0955
45022W        W53822   8.990   4.270  30.769 -0.0248 -0.2418 -0.1300
45023W        W53823  24.822   2.673  30.248 -0.1210 -0.0461  0.2262
45024W        W53824   0.127   5.506   5.724  0.0164 -0.3746 -0.1154
45025W        W53825  13.369   3.655  32.681 -0.0079  0.0013  0.1650
45026W        W53826  21.330   3.531  30.443  0.2116 -0.1207 -0.0602
45027W        W53827   1.328   0.085   2.337  0.1363 -0.1678  0.2762
45028W        W53828   7.851   3.766   7.682 -0.2726 -0.2326  0.1519
45029W        W53829  21.926   4.185   2.198  0.0367 -0.1431 -0.2449
45030W        W53830  18.479   4.530  34.985 -0.1657  0.2349 -0.2338
45031W        W53831   0.188   0.981  11.508 -0.3456  0.2065 -0.0914
45032W        W53832  15.914   2.248  31.460 -0.2114  0.0130  0.0285
45033W        W53833   2.027   0.747  30.989 -0.2808 -0.0596 -0.2694
45034W        W53834  13.677   1.360  34.254  0.0626  0.3269 -0.0507
45035W        W53835   7.028   5.331  30.672 -0.1121 -0.3524  0.2732
45036W        W53836  18.484   5.991   2.216  0.3407  0.0218  0.3466
45037W        W53837  17.550   1.660   5.114  0.0661  0.0620  0.1961
45038W        W53838  10.366   5.734  30.816  0.0483 -0.0398  0.2835
45039W        W53839  19.642   6.335  15.176 -0.2233 -0.0599  0.0460
45040W        W53840   8.029   4.478  35.994  0.1817 -0.0862  0.2071
45041W        W53841  14.272   4.801   9.389 -0.0179 -0.2685 -0.4188
45042W        W53842  23.193   3.518   4.321  0.0439  0.1154 -0.2403
45043W        W53843  21.603   0.480  25.688  0.1524 -0.0841  0.1527
45044W        W53844   4.895   2.413  23.566  0.0441 -0.1049  0.0415
45045W        W53845   2.085   4.001   7.580 -0.0231 -0.4608 -0.4917
45046W        W53846  19.785   5.717  31.421 -0.2565  0.0390  0.0253
45047W        W53847   5.988   4.807  10.089  0.2262  0.1230 -0.0018
45048W        W53848  21.655   3.716   3.983 -0.1961 -0.1846  0.0257
45049W        W53849  23.490   4.049  34.237  0.0210  0.2509  0.1997
45050W        W53850  19.980   5.764   6.402 -0.1819 -0.0035 -0.1795
45051W        W53851  13.578   2.786   7.577 -0.2262  0.1822  0.0070
45052W        W53852  21.089   2.500  14.439 -0.1781 -0.1390  0.3815
45053W        W53853  21.883   2.777  25.549  0.2152  0.1397 -0.2643
45054W        W53854  12.877   2.887  30.913  0.0394 -0.1397 -0.0770
45055W        W53855   9.578   6.330  30.734 -0.1604  0.1780 -0.3873
45056W        W53856   5.466   3.841  21.958  0.1165 -0.1257 -0.2156
45057W        W53857   1.071   0.981  26.889  0.0411 -0.0494 -0.2070
45058W        W53858   6.604   3.044   1.901  0.0189 -0.4077 -0.3985
45059W        W53859   6.611   0.954   6.130  0.0401  0.0058  0.0049
45060W        W53860  18.364   0.215  33.348 -0.2802  0.0151  0.1203
45061W        W53861  11.933   4.294  30.099  0.0238  0.1850  0.0561
45062W        W53862   7.888   4.209  31.542  0.0329 -0.0871 -0.1132
45063W        W53863   8.474   0.943   8.163 -0.2348  0.0060  0.0377
45064W        W53864   3.094   4.284  27.224  0.2522 -0.1690  0.0530
45065W        W53865  13.879   5.747  33.850 -0.0147 -0.0028 -0.2777
45066W        W53866  19.664   3.595  20.675 -0.4036  0.3005 -0.2007
45067W        W53867   0.927   1.153   1.583  0.0697  0.0676 -0.0975
45068W        W53868  21.416   3.985  34.313 -0.2213 -0.2285  0.0571
45069W        W53869  23.178   3.674  26.648 -0.2051  0.1798  0.1587
45070W        W53870  19.646   5.519  22.192 -0.1475  0.3204  0.0958
45071W        W53871   1.069   2.977  22.616 -0.0620 -0.1138  0.1618
45072W        W53872   5.395   6.336  11.607  0.1666  0.0481 -0.0210
45073W        W53873   4.950   1.293  33.269 -0.3460 -0.1442 -0.0743
45074W        W53874   5.609   1.083   4.176 -0.0652 -0.3591  0.0630
45075W        W53875   2.990   5.414  29.454  0.0443  0.2986  0.1263
45076W        W53876  19.988   0.893  25.846  0.0123  0.2295  0.0290
45077W        W53877   6.570   3.919   9.342 -0.1090 -0.2955 -0.3148
45078W        W53878  17.075   2.643  27.504 -0.1204 -0.1504 -0.4602
45079W        W53879  12.737   5.801   7.996 -0.1636 -0.2074  0.2744
45080W        W53880  21.927   5.735   8.442 -0.1645 -0.0529  0.0432
45081W        W53881  18.042   0.548  22.402 -0.0852 -0.0685  0.1403
45082W        W53882  19.736   0.447  25.986  0.0348  0.1873 -0.0340
45083W        W53883   5.694   2.256   4.178 -0.3295  0.3858 -0.3712
45084W        W53884   5.320   4.931  34.515  0.0468 -0.0335 -0.4180
45085W        W53885   7.996   1.380  25.229 -0.0479 -0.4268 -0.1556
45086W        W53886  12.540   1.589  27.955  0.0612  0.3466 -0.0138
45087W        W53887  12.753   4.551   5.301  0.0438 -0.0358 -0.0364
45088W        W53888  25.992   1.567  11.132  0.0214  0.1027  0.1352
45089W        W53889  13.717   6.343   3.504 -0.0621  0.0093  0.1703
45090W        W53890  13.575   2.890  33.258 -0.0532 -0.0502 -0.2946
45091W        W53891  18.693   3.698  21.146  0.0120 -0.1645  0.0156
45092W        W53892   5.296   1.747  21.369  0.0283 -0.3471  0.3362
45093W        W53893   7.217   0.938  34.462 -0.0788 -0.1577  0.0985
45094W        W53894  11.496   0.889  14.143  0.1560 -0.0643 -0.1207
45095W        W53895  21.862   0.966  22.260 -0.4038  0.1090  0.2439
45096W        W53896  24.460   5.271  32.923 -0.1618  0.3020  0.1587
45097W        W53897  23.581   1.675  15.147  0.1598  0.3251 -0.1227
45098W        W53898  26.182   2.661  23.104  0.4212  0.5236  0.0577
45099W        W53899  19.190   3.629   6.522 -0.2756  0.0883  0.0440
45100W        W53900   0.551   5.058  31.618 -0.0125 -0.2123 -0.0511
45101W        W53901  24.253   6.438   4.021  0.0736  0.1978 -0.1041
45102W        W53902  21.768   5.485  12.860  0.0885 -0.0560 -0.0847
45103W        W53903  25.239   4.308  28.351 -0.4266  0.2803  0.2062
45104W        W53904  10.393   0.364   3.974 -0.3842 -0.1077  0.1813
45105W        W53905  23.705   0.718  28.279 -0.1861 -0.0832 -0.1463
45106W        W53906   8.423   3.449  26.983 -0.1055  0.2512  0.0964
45107W        W53907  10.374   3.316  35.757  0.2873  0.0758  0.0991
45108W        W53908   5.055   4.217  21.197 -0.1222  0.1491 -0.0265
45109W        W53909  14.137   2.987   1.421  0.0577  0.0199 -0.4349
45110W        W53910   0.911   4.090  15.761 -0.0574 -0.1953 -0.2948
45111W        W53911   5.861   0.555  26.854 -0.3342 -0.2650 -0.1006
45112W        W53912   0.967   0.288   4.789  0.2881 -0.3056 -0.0145
45113W        W53913  23.749   1.455   5.204  0.1186 -0.1172 -0.0275
45114W        W53914  20.732   2.588  31.531 -0.0477  0.2362  0.0434
45115W        W53915  19.732   1.302  10.207 -0.1164  0.2333  0.0866
45116W        W53916   6.535   2.973  28.901 -0.4426  0.3073 -0.0358
45117W        W53917  20.070   0.078  30.102 -0.1344 -0.0839  0.1661
45118W        W53918  25.731   6.115  31.745  0.1200 -0.0914  0.2810
45119W        W53919   3.382   1.125   7.548  0.0644 -0.0585  0.0172
45120W        W53920   1.683   2.509  32.226  0.0944 -0.4555  0.0610
45121W        W53921  20.035   3.177  12.940  0.4483  0.1071  0.0391
45122W        W53922   3.517   1.348  24.086  0.0714 -0.0483  0.2137
45123W        W53923  21.880   5.700   3.092 -0.1519 -0.0239 -0.0496
45124W        W53924  21.048   0.021  21.969  0.1338  0.0372  0.2567
45125W        W53925   8.113   2.963   2.515 -0.4031 -0.5446 -0.1310
45126W        W53926   8.027   6.563  14.549  0.3133  0.0090  0.0759
45127W        W53927   6.148   4.234   7.149 -0.2350 -0.1256  0.0104
45128W        W53928   0.636   0.166   5.376  0.2022 -0.1573  0.1811
45129W        W53929  19.214   1.202   3.755  0.0912  0.2650 -0.1585
45130W        W53930   3.575   4.200  35.511  0.1616  0.0953  0.0361
45131W        W53931  21.378   4.464   3.071 -0.1490  0.0516  0.2101
45132W        W53932   8.386   6.132  30.518 -0.0686 -0.0125  0.0650
45133W        W53933   2.793   4.883  24.418  0.2285  0.1048  0.1175
45134W        W53934  13.544   6.332  31.816 -0.0162 -0.2988  0.0855
45135W        W53935  23.278   5.905   0.630  0.3720  0.0389  0.1402
45136W        W53936   8.608   5.341  31.636  0.2251 -0.0873  0.1526
45137W        W53937  19.271   3.354  24.392  0.0711 -0.1646  0.0534
45138W        W53938  20.719   0.892   3.481  0.0315  0.0095 -0.0483
45139W        W53939  25.838   3.832  25.614  0.0724 -0.1506  0.1951
45140W        W53940  19.308   5.981  32.861  0.2238  0.4323 -0.2144
45141W        W53941   6.780   3.570  26.613  0.3167  0.0528 -0.1049
45142W        W53942  11.961   6.422   6.985  0.0343  0.0063  0.2724
45143W        W53943  17.285   6.101  27.187 -0.0643  0.1167  0.1668
45144W        W53944  19.172   6.090   2.795 -0.0635 -0.1031  0.2442
45145W        W53945  19.844   2.922   1.713 -0.1104  0.0970 -0.1311
45146W        W53946   2.200   5.229  24.826 -0.1665 -0.0130  0.2483
45147W        W53947  10.632   2.679  25.843  0.0837  0.0038 -0.0976
45148W        W53948  12.720   2.769   8.721 -0.0376  0.1815  0.1041
45149W        W53949   6.899   0.072  22.151  0.2013  0.1925  0.1015
45150W        W53950  23.142   6.466   8.840  0.1454  0.2814  0.0802
45151W        W53951  25.265   2.438   5.941 -0.3376  0.1110  0.0629
45152W        W53952   0.534   0.428  33.979 -0.1085  0.1163 -0.0756
45153W        W53953   6.721   1.881  25.863 -0.1159  0.0724 -0.1504
45154W        W53954   5.770   3.042  21.244 -0.2592 -0.2412 -0.0794
45155W        W53955  16.837   0.645   3.356  0.0781 -0.0668 -0.0869
45156W        W53956   8.422   5.683   2.334  0.1816 -0.0104 -0.2232
45157W        W53957  21.847   0.508  32.227 -0.2191  0.0102 -0.0558
45158W        W53958  12.430   0.486  29.203 -0.0160  0.0988  0.1906
45159W        W53959   9.115   1.909  29.262  0.1046  0.2282  0.1658
45160W        W53960  12.032   3.471  32.791  0.2776 -0.0332  0.0017
45161W        W53961   2.209   0.636  34.079  0.4527  0.0289 -0.1372
45162W        W53962  24.607   0.863  28.613 -0.1472  0.2024  0.1026
45163W        W53963   7.008   5.092  11.026 -0.1358 -0.1218 -0.2020
45164W        W53964  16.921   4.390   2.688  0.1289  0.1233 -0.1649
45165W        W53965  23.967   2.674   4.943 -0.0806 -0.2642 -0.2792
45166W        W53966  10.734   1.273  23.182 -0.1239  0.0704 -0.1041
45167W        W53967   9.888   6.112  28.489 -0.1101  0.0629 -0.1356
45168W        W53968  25.432   2.343   2.899  0.0014 -0.5381 -0.1767
45169W        W53969   7.228   5.190  15.089  0.1714  0.0684 -0.2798
45170W        W53970  21.474   3.614  25.226 -0.2296  0.3480  0.3442
45171W        W53971  18.151   0.141  27.700  0.0367 -0.1047 -0.0167
45172W        W53972   8.510   5.300   7.085 -0.0165  0.0783 -0.2168
45173W        W53973   2.901   2.184   0.446 -0.1588 -0.0248  0.0325
45174W        W53974  24.845   4.722  26.818  0.2156 -0.1857 -0.0139
45175W        W53975   1.846   1.847  12.988 -0.2307  0.2889  0.1300
45176W        W53976  20.525   2.020  27.442 -0.2691 -0.1351 -0.1483
45177W        W53977  23.112   1.244  14.375 -0.0361  0.0707 -0.1727
45178W        W53978  12.502   2.441  28.608 -0.0838  0.1945  0.1721
45179W        W53979   2.898   6.428  25.792 -0.0556  0.1310 -0.1192
45180W        W53980  25.354   2.913  26.361 -0.1975 -0.0638 -0.0937
45181W        W53981   7.040   3.119  25.736 -0.1079 -0.3640 -0.0154
45182W        W53982  15.952   3.023  23.622 -0.1883  0.0192  0.0512
45183W        W53983  23.829   5.567  24.652 -0.0190 -0.1254  0.3594
45184W        W53984   6.542   6.418  22.326  0.1307  0.2213 -0.1730
45185W        W53985  11.494   2.612  14.209 -0.0944 -0.0989 -0.2521
45186W        W53986   1.536   1.932  23.743 -0.0532  0.1500  0.2367
45187W        W53987  18.728   2.012  10.468  0.0793  0.1185 -0.0520
45188W        W53988  23.789   4.232  35.294  0.0921 -0.3690 -0.2028
45189W        W53989  18.695   1.509   1.031  0.0110  0.1001  0.1230
45190W        W53990   5.357   6.188  34.103  0.0050  0.0403 -0.0343
45191W        W53991  20.928   5.332   6.240 -0.1454  0.0924 -0.1697
45192W        W53992  26.044   2.414  10.026 -0.1333 -0.0486 -0.1541
45193W        W53993  18.837   3.432  24.156  0.1339  0.0049  0.2525
45194W        W53994  20.671   3.366   4.938 -0.0404  0.3908 -0.1699
45195W        W53995   2.838   5.822   4.786 -0.0070 -0.1260  0.1349
45196W        W53996  14.545   3.505  13.170 -0.3098  0.2270  0.0599
45197W        W53997  26.119   2.894  14.736 -0.1344 -0.2862  0.3135
45198W        W53998   3.022   0.138  12.976  0.0194 -0.2532  0.3538
45199W        W53999   4.127   5.291  34.704  0.0628  0.4106 -0.0607
45200W        W54000  26.306   1.697  12.823  0.3583 -0.0424  0.0795
45201W        W54001   5.990   5.807  23.226 -0.3222 -0.1793  0.1397
45202W        W54002   5.024   5.370  34.274  0.1218  0.2734 -0.1917
45203W        W54003   7.910   6.501   8.403 -0.3051 -0.3058  0.1007
45204W        W54004   3.478   6.098  15.856 -0.0405 -0.1920 -0.1420
45205W        W54005   3.776   0.867  30.992  0.0137  0.0485  0.0032
45206W        W54006  16.371   4.317  11.597  0.0701 -0.0825 -0.4809
45207W        W54007  23.614   4.255  29.015  0.1064  0.0736  0.1180
45208W        W54008  22.423   3.990  25.082  0.1357 -0.0634  0.0843
45209W        W54009   3.220   3.277   6.482  0.3582 -0.0708  0.1113
45210W        W54010  19.242   4.662   1.943 -0.1288 -0.1859 -0.0852
45211W        W54011   5.235   3.456  26.036  0.0278  0.2207  0.0627
45212W        W54012  17.333   5.069  32.266 -0.1885  0.1835  0.0781
45213W        W54013   6.190   4.339  29.103 -0.0083 -0.2318  0.2925
45214W        W54014  18.780   5.462  35.841  0.1290  0.0039  0.0084
45215W        W54015   4.071   1.675  21.099  0.0287 -0.1226 -0.0655
45216W        W54016   6.916   3.751   4.892 -0.2670 -0.3556 -0.0671
45217W        W54017   3.316   0.440  29.131 -0.2308  0.1792 -0.0467
45218W        W54018   3.108   0.102  21.005 -0.0789  0.1689 -0.1246
45219W        W54019   4.266   1.266  21.599 -0.1045  0.1508 -0.0580
45220W        W54020  20.720   5.814  32.327 -0.1906  0.1027  0.1849
45221W        W54021  22.817   2.624   7.695 -0.0893 -0.0131 -0.0747
45222W        W54022  24.698   3.995   6.175  0.2066 -0.0146 -0.2705
45223W        W54023   8.669   0.354   6.682 -0.3634 -0.0392 -0.1307
45224W        W54024   8.167   0.712  33.115 -0.1799 -0.0330 -0.3768
45225W        W54025   1.306   2.652   7.639 -0.1817  0.1025  0.1040
45226W        W54026  22.688   2.679   4.972  0.0611  0.0669 -0.1741
45227W        W54027  25.835   0.126  25.145  0.1148 -0.0526  0.2536
45228W        W54028  18.106   1.519  34.417  0.1125 -0.3833  0.0264
45229W        W54029  11.447   3.426   4.613  0.1547 -0.3723 -0.1652
45230W        W54030   5.455   2.352  32.777  0.0932 -0.3005 -0.3109
45231W        W54031  16.476   2.487   1.919  0.2563 -0.1544 -0.1067
45232W        W54032  24.628   1.782  25.758 -0.4266  0.0491  0.1509
45233W        W54033   1.238   3.488   5.259  0.2389  0.0878  0.0237
45234W        W54034   2.390   1.667  35.091 -0.2132 -0.0241  0.0928
45235W        W54035  21.047   3.845  23.418 -0.1208 -0.0562  0.1474
45236W        W54036  10.011   3.546   1.461  0.3496 -0.1044 -0.0817
45237W        W54037  24.708   3.218  27.766 -0.0754  0.0756  0.1019
45238W        W54038   7.743   0.218  32.177 -0.0280  0.0584 -0.1628
45239W        W54039   1.920   0.939   3.063  0.1203 -0.0755 -0.2837
45240W        W54040   5.776   3.633   6.883  0.0514  0.0361 -0.1620
45241W        W54041   7.054   1.453   0.774  0.0173  0.0253 -0.0278
45242W        W54042   2.377   3.368  11.856  0.0515 -0.0598 -0.1026
45243W        W54043   2.484   1.607  28.414 -0.1264  0.1016  0.1994
45244W        W54044  20.517   5.076  14.690  0.0304 -0.1276 -0.0499
45245W        W54045   4.651   4.774  10.387 -0.2361 -0.3175  0.0639
45246W        W54046  18.490   5.521  24.764  0.2653 -0.0864  0.0422
45247W        W54047  26.234   6.229  25.898  0.1725  0.2013 -0.0005
45248W        W54048   6.062   2.181  33.275 -0.0109 -0.0699 -0.3511
45249W        W54049  13.807   5.524   6.074  0.2021  0.1386 -0.1456
45250W        W54050  13.850   4.646  11.416  0.1294 -0.1850 -0.0463
45251W        W54051  23.639   0.497  14.908  0.3055 -0.0171 -0.1854
45252W        W54052  25.394   6.486  10.265 -0.2816 -0.1004 -0.1552
45253W        W54053  14.907   1.293  35.473  0.0939  0.2277  0.2318
45254W        W54054  13.067   1.818   6.357 -0.1370  0.2176 -0.0637
45255W        W54055  20.713   1.686  11.970  0.0217 -0.0383  0.0832
45256W        W54056   4.968   1.089  26.811 -0.0582  0.0126  0.1944
45257W        W54057  13.454   3.816   4.607 -0.2855 -0.1858 -0.1042
45258W        W54058  17.600   0.026  31.218  0.2283 -0.0824  0.0626
45259W        W54059  16.066   4.269  10.009  0.0361 -0.1189 -0.0014
45260W        W54060  19.465   0.746  22.533 -0.2159 -0.0599  0.1705
45261W        W54061   9.552   3.987   8.482  0.0518  0.3205  0.0108
45262W        W54062   3.706   2.723  21.051  0.0074  0.2047 -0.1215
45263W        W54063  21.118   0.782   3.195 -0.3076  0.0369 -0.0603
45264W        W54064  25.734   4.163  31.561  0.0766 -0.0736 -0.0242
45265W        W54065   4.274   5.449  28.721  0.0914  0.0029  0.0238
45266W        W54066  25.500   2.406  12.827  0.0495 -0.2225  0.0498
45267W        W54067  18.949   0.091  10.310  0.0178 -0.1202 -0.0408
45268W        W54068   3.879   4.440   9.746  0.0217  0.0681  0.1270
45269W        W54069  11.402   2.452   4.468  0.0955 -0.4026 -0.2719
45270W        W54070   9.432   2.737  12.153 -0.0678 -0.2770 -0.1106
45271W        W54071   7.432   1.636  32.399 -0.0216 -0.2629 -0.1522
45272W        W54072  23.449   6.512   1.046  0.1571 -0.1313 -0.0345
45273W        W54073  19.923   3.953  33.396  0.1646 -0.1587  0.0206
45274W        W54074   2.685   4.055  35.304  0.1096 -0.0290 -0.0436
45275W        W54075  15.802   3.080  30.854 -0.1175 -0.0905  0.1666
45276W        W54076   9.614   5.695  26.776  0.2939 -0.0052 -0.0515
45277W        W54077  22.783   4.647  13.241 -0.0184 -0.1121  0.0221
45278W        W54078  10.680   5.604  10.032 -0.2762  0.0894  0.2189
45279W        W54079   7.162   4.719  35.873 -0.0699 -0.0206 -0.0693
45280W        W54080  14.692   3.801  24.829  0.1124 -0.1016  0.0357
45281W        W54081  15.899   1.256  36.080 -0.3340  0.2075  0.0783
45282W        W54082   9.654   1.845  21.564 -0.0093  0.3965 -0.1907
45283W        W54083   9.719   4.929  22.375 -0.0006 -0.2344 -0.2240
45284W        W54084   2.991   0.590   0.702  0.1582  0.0740 -0.0132
45285W        W54085   6.937   4.840  25.387  0.0799  0.1071 -0.3129
45286W        W54086  23.893   2.028  33.281  0.1234  0.0397  0.1669
45287W        W54087  10.031   1.186  28.050 -0.0955 -0.3731 -0.3881
45288W        W54088  20.239   4.766   0.845 -0.3664 -0.1367 -0.3960
45289W        W54089   6.302   0.680   6.413 -0.0771  0.0310 -0.0233
45290W        W54090  22.889   4.207  25.097  0.2387  0.0186 -0.2166
45291W        W54091  23.398   0.082   2.620 -0.0444  0.2035  0.1544
45292W        W54092   1.106   2.184  15.456 -0.1639  0.2682  0.2128
45293W        W54093   2.413   1.254   9.781  0.2763  0.3985  0.1104
45294W        W54094   2.386   5.742   4.555  0.2714 -0.1579  0.0658
45295W        W54095  17.772   3.668   5.274  0.0739  0.2968 -0.0181
45296W        W54096  15.129   6.521   2.857  0.2095  0.2649 -0.2395
45297W        W54097  20.885   3.384  33.790  0.1578  0.1624  0.2256
45298W        W54098  16.082   5.846  28.818  0.0568 -0.1936  0.1085
45299W        W54099  18.760   5.277   5.687  0.0463  0.0164  0.2994
45300W        W54100  11.630   5.572  30.020  0.3061 -0.1928 -0.1582
45301W        W54101   7.233   2.574  27.805  0.1445  0.1253  0.0215
45302W        W54102   1.610   4.597  25.739 -0.2881 -0.1260  0.2905
45303W        W54103   4.691   1.063  26.330 -0.0448  0.0567 -0.0451
45304W        W54104   0.301   6.378  29.009 -0.0067  0.0557 -0.0414
45305W        W54105   0.468   0.499  31.747 -0.0524 -0.0637  0.1361
45306W        W54106  19.551   3.157  33.622  0.1186  0.2648  0.3190
45307W        W54107   9.172   0.370   5.058  0.2824 -0.1051  0.0441
45308W        W54108   3.052   3.524  23.155  0.1916  0.0872 -0.1512
45309W        W54109  13.111   5.504   7.714  0.0386 -0.0162 -0.2083
45310W        W54110  17.142   1.856   2.570  0.0900 -0.1371 -0.1270
45311W        W54111   1.892   0.186   5.916 -0.3307  0.1149 -0.0734
45312W        W54112   2.745   4.749  11.053  0.1629 -0.3595  0.2333
45313W        W54113  24.106   1.717   3.840  0.1797  0.1640 -0.3903
45314W        W54114   1.067   3.874   7.887  0.1095  0.0017  0.1612
45315W        W54115  25.532   4.760  25.500 -0.0460 -0.0875 -0.0851
45316W        W54116  17.019   0.585  22.387 -0.0302 -0.0889 -0.0213
45317W        W54117  13.920   4.733  26.466 -0.0358 -0.0859  0.1428
45318W        W54118   1.228   4.703   0.907 -0.2056  0.2734 -0.0000
45319W        W54119  26.243   5.726   1.128 -0.1943  0.3235 -0.1458
45320W        W54120  20.028   3.150  31.723  0.1700  0.1878  0.2291
45321W        W54121   7.095   4.930  33.652 -0.0623 -0.4666  0.1565
45322W        W54122  13.978   6.032  26.950 -0.0219  0.1885  0.0037
45323W        W54123   9.798   2.286  23.754 -0.0084  0.1123 -0.2034
45324W        W54124   0.382   5.011  10.226 -0.1167 -0.1942 -0.0038
45325W        W54125   4.360   4.313  14.203 -0.0178  0.0411 -0.3917
45326W        W54126   2.266   3.441  22.691 -0.1023 -0.1535 -0.0536
45327W        W54127  16.704   2.818  30.575  0.0769  0.0688  0.0729
45328W        W54128  14.779   5.562   7.793 -0.1731  0.1961 -0.2737
45329W        W54129  16.354   6.349  29.259  0.0668  0.1711 -0.0803
45330W        W54130   8.087   4.867   2.711 -0.1345 -0.0452 -0.0713
45331W        W54131  11.272   4.687   8.444  0.0251 -0.2291 -0.1807
45332W        W54132   8.429   5.272  25.177 -0.0290 -0.0436  0.2402
45333W        W54133  11.851   3.096  27.063  0.3540 -0.1014 -0.0349
45334W        W54134  19.363   3.734  28.694  0.1586 -0.0129 -0.0701
45335W        W54135   1.216   3.787   8.434  0.4745 -0.0368  0.0146
45336W        W54136  15.995   2.209  24.117  0.0343  0.0601  0.1016
45337W        W54137  14.149   0.614  27.322  0.0863 -0.2557  0.1901
45338W        W54138  26.211   4.639   3.120  0.2154 -0.1322 -0.0535
45339W        W54139  13.441   4.740  35.162  0.1217 -0.1402  0.0598
45340W        W54140  12.338   4.430   3.125  0.2629 -0.1517  0.2583
45341W        W54141  24.209   0.276  12.048  0.0635 -0.2583 -0.0140
45342W        W54142   1.162   1.714  14.212  0.0797 -0.0409 -0.0169
45343W        W54143  11.225   4.788  33.147  0.3077  0.1676  0.3634
45344W        W54144   2.803   4.030  23.149 -0.2364 -0.0237 -0.0627
45345W        W54145  13.080   4.008  12.544 -0.0021 -0.1012  0.0052
45346W        W54146  18.304   4.992  34.996 -0.1027 -0.0676  0.0971
45347W        W54147  13.757   6.198   3.048 -0.1210  0.0303  0.2464
45348W        W54148   1.006   1.604   8.050  0.1193  0.2154 -0.1027
45349W        W54149  22.094   5.247  10.651  0.0863  0.0196  0.0497
45350W        W54150   1.732   5.082  29.822 -0.2411 -0.3584 -0.2331
45351W        W54151   2.425   3.171  35.212  0.3900  0.0894 -0.2502
45352W        W54152  12.186   2.994  26.339 -0.0724  0.2383 -0.2838
45353W        W54153  13.388   3.618  15.556 -0.0332 -0.2338 -0.1084
45354W        W54154  25.950   6.350  33.115 -0.2423 -0.2331  0.0066
45355W        W54155   1.258   4.204  13.939 -0.1479 -0.3129 -0.0963
45356W        W54156  26.192   5.605   5.356  0.1295  0.1872  0.1310
45357W        W54157  22.776   3.254   9.387  0.1465 -0.0698 -0.0703
45358W        W54158  25.493   5.778  14.088  0.0995 -0.0732 -0.0467
45359W        W54159  20.562   6.104  27.998  0.2554 -0.0517  0.3439
45360W        W54160   4.579   6.356  33.980 -0.0712  0.0799 -0.2600
45361W        W54161  13.197   2.719  14.194 -0.0698  0.0042 -0.0262
45362W        W54162  23.240   0.849  12.241  0.0696 -0.1588 -0.0303
45363W        W54163  20.846   1.481  33.995 -0.0756  0.0611  0.1754
45364W        W54164  17.704   4.186  11.187  0.0960  0.0843 -0.2453
45365W        W54165   9.854   4.185  34.143 -0.2234 -0.1206 -0.2256
45366W        W54166   7.318   1.125  12.684 -0.2184 -0.1408 -0.0352
45367W        W54167  18.744   0.411  36.151 -0.3560 -0.2062  0.1919
45368W        W54168  25.860   3.557  20.056 -0.0900 -0.0423 -0.1001
45369W        W54169  11.018   2.995  26.119 -0.0761  0.0923 -0.3445
45370W        W54170  21.155   6.240  21.001 -0.0134 -0.1712 -0.0624
45371W        W54171  22.679   1.460  30.857 -0.0649 -0.0518 -0.1630
45372W        W54172   6.312   3.368  31.682  0.3993  0.1318  0.1523
45373W        W54173   5.412   0.657  23.725  0.1821  0.0543  0.1628
45374W        W54174   4.871   6.071  23.925 -0.2377 -0.2490 -0.1189
45375W        W54175  22.016   0.189   6.853 -0.0791 -0.0583  0.0428
45376W        W54176  23.503   0.402  32.352 -0.1384  0.0465  0.3130
45377W        W54177   0.260   3.385  11.951 -0.1731  0.0974 -0.0626
45378W        W54178   1.931   5.314   1.946  0.1036 -0.1901  0.0805
45379W        W54179   0.286   2.650  12.443  0.1242 -0.0868 -0.0323
45380W        W54180  25.414   6.250  28.236 -0.5934  0.3089  0.1615
45381W        W54181  26.007   5.883  26.314  0.0309  0.0513 -0.1048
45382W        W54182  24.518   2.002   8.921 -0.0987 -0.1778  0.2697
45383W        W54183  24.599   5.334   7.410  0.0216  0.1439  0.0637
45384W        W54184   2.275   2.220  29.860 -0.3344 -0.2150 -0.1308
45385W        W54185  25.108   0.583  25.211 -0.2785  0.3307  0.0589
45386W        W54186  16.865   4.007  30.282  0.0958 -0.0715 -0.4692
45387W        W54187  11.341   5.351  11.138 -0.3179 -0.0472 -0.2719
45388W        W54188  10.785   0.291  31.142  0.1479  0.2293 -0.1277
45389W        W54189   9.561   5.466  22.993  0.1289 -0.1402  0.0033
45390W        W54190  14.204   4.559   1.414  0.0694 -0.0698  0.1008
45391W        W54191   0.932   5.298  13.328 -0.2856 -0.0273 -0.2251
45392W        W54192   1.782   4.959   1.537  0.0922  0.1567  0.2540
45393W        W54193   9.776   0.422  32.637 -0.2837 -0.0382 -0.0979
45394W        W54194  20.196   6.439  21.537  0.1213  0.0562 -0.1979
45395W        W54195  18.955   2.434   0.711  0.1051  0.1276 -0.1483
45396W        W54196   6.627   3.824   2.424  0.1278 -0.1279  0.1385
45397W        W54197   6.478   2.245  13.345  0.0106 -0.0119 -0.1431
45398W        W54198   9.898   1.290  34.547  0.1032  0.1719  0.1747
45399W        W54199  21.285   2.418  29.858 -0.1862 -0.1443 -0.0742
45400W        W54200   7.117   3.667  14.179  0.0443 -0.2507  0.1970
45401W        W54201  17.549   0.564  32.409  0.0368  0.1922  0.1885
45402W        W54202  19.684   0.420  11.193  0.2308 -0.1855  0.0652
45403W        W54203   1.939   5.370  22.852  0.0570  0.2353 -0.1646
45404W        W54204   1.756   2.010  33.738  0.3374  0.2684 -0.0651
45405W        W54205  22.582   5.633   2.899 -0.2268 -0.1314  0.2549
45406W        W54206  22.372   0.634  13.630 -0.3603 -0.0280 -0.3089
45407W        W54207   4.409   6.412  11.482 -0.2368  0.0334 -0.1360
45408W        W54208  21.636   0.950   0.183 -0.1488 -0.1100  0.1083
45409W        W54209  14.806   1.388   1.209  0.0083 -0.1534 -0.0723
45410W        W54210  24.437   0.957  25.693 -0.3197 -0.1403  0.1806
45411W        W54211   0.751   6.373  33.029  0.1573 -0.1199  0.2899
45412W        W54212   5.475   1.264  33.402  0.1466 -0.1854 -0.1732
45413W        W54213  14.978   3.203  32.464 -0.0619  0.1620 -0.3582
45414W        W54214  22.316   5.616   0.970  0.2475  0.1513  0.1873
45415W        W54215  25.322   1.673  31.199  0.0791 -0.0248  0.4961
45416W        W54216  15.822   5.004  28.587 -0.1328  0.1421  0.1666
45417W        W54217   1.306   3.358   7.074 -0.1516 -0.0339  0.1033
45418W        W54218  15.045   1.717  33.481 -0.0420 -0.0124  0.2418
45419W        W54219  25.158   0.715  31.234  0.0199  0.0164 -0.2183
45420W        W54220  20.929   4.384  22.073 -0.0384 -0.0429  0.1545
45421W        W54221   0.795   4.921   4.351  0.3163 -0.0168 -0.3055
45422W        W54222  16.637   5.766  11.302  0.0556  0.0675 -0.1376
45423W        W54223   9.827   3.206   1.117 -0.3807  0.0644  0.1454
45424W        W54224  25.817   0.990  30.239  0.1785 -0.0557  0.3733
45425W        W54225   1.478   0.143  13.556 -0.0761  0.1587  0.1597
45426W        W54226  25.155   6.483  35.562  0.0559 -0.0044  0.0618
45427W        W54227  15.574   0.221  30.175  0.1158  0.2680 -0.1660
45428W        W54228   7.098   3.871  28.673 -0.1120  0.0966  0.0058
45429W        W54229  25.507   0.456   0.826  0.3098 -0.1665  0.0126
45430W        W54230  16.714   5.577  34.924 -0.1435  0.4112  0.0268
45431W        W54231   2.073   0.088  28.816  0.2001  0.1848  0.2164
45432W        W54232  17.875   0.522   4.340  0.0759 -0.0250 -0.1886
45433W        W54233  22.048   5.920  25.978  0.0348  0.0126 -0.2013
45434W        W54234   7.133   2.758   0.784  0.1253 -0.2158  0.0818
45435W        W54235   2.546   0.424   0.814 -0.1450  0.2391 -0.0186
45436W        W54236  20.188   1.817  12.243 -0.2109  0.1452 -0.2436
45437W        W54237   7.828   6.239  11.013 -0.2351  0.0411  0.0863
45438W        W54238  17.127   0.857  35.735 -0.0346  0.0852  0.0176
45439W        W54239   6.086   4.605   2.528 -0.0818 -0.3218  0.2085
45440W        W54240   8.306   5.274   0.899 -0.2498 -0.0602 -0.0614
45441W        W54241  10.195   6.317  22.909  0.0316  0.0243 -0.0667
45442W        W54242  21.579   1.814  12.365 -0.1042  0.0325 -0.2554
45443W        W54243   8.344   4.147  21.441  0.0136  0.2856  0.1543
45444W        W54244  20.928   5.500  35.466 -0.1077 -0.0538 -0.1797
45445W        W54245   2.655   3.544  20.958  0.2230  0.0344  0.1471
45446W        W54246  12.382   2.672  20.721  0.1375  0.1371  0.1146
45447W        W54247  22.355   5.613   5.354 -0.0408 -0.3000 -0.2565
45448W        W54248  12.992   4.073   5.256  0.0078 -0.3111 -0.2411
45449W        W54249  20.528   0.881   8.454  0.2520 -0.0918  0.0555
45450W        W54250  14.057   2.980  29.701  0.2123 -0.1189 -0.2068
45451W        W54251   7.009   3.305  12.715  0.1105 -0.1203 -0.1872
45452W        W54252  24.947   3.630  34.964  0.0205  0.2152  0.4477
45453W        W54253  18.319   2.544  12.530  0.1768 -0.3538  0.1855
45454W        W54254   2.035   6.437  31.040  0.3686 -0.3238  0.1840
45455W        W54255  12.044   6.291  32.420  0.1477  0.0153  0.1784
45456W        W54256   5.111   6.237  29.837  0.3140 -0.2013  0.2902
45457W        W54257   1.295   4.107  33.415 -0.0495  0.0026 -0.2653
45458W        W54258  24.555   1.979  23.557  0.2282  0.1678 -0.0619
45459W        W54259  18.498   6.068   2.745  0.0773  0.2004 -0.0592
45460W        W54260  18.298   1.181   2.969  0.0185  0.0940  0.3440
45461W        W54261   9.573   4.563  22.826  0.2079  0.0687 -0.0589
45462W        W54262   4.281   2.939   7.680  0.2059  0.2108 -0.0941
45463W        W54263   9.085   1.647  15.444  0.0967 -0.1343 -0.2257
45464W        W54264  13.929   0.935  35.799  0.0624  0.0214  0.0087
45465W        W54265  13.262   2.244  27.446 -0.2070  0.0478 -0.0644
45466W        W54266   2.543   1.592  36.021  0.1149  0.0287 -0.1054
45467W        W54267  10.968   0.834  15.604 -0.1623  0.2704 -0.0202
45468W        W54268  10.100   6.441  33.823 -0.1659  0.1484  0.5095
45469W        W54269  25.525   2.632  28.015 -0.1219  0.0854 -0.1108
45470W        W54270   0.741   4.987  12.985 -0.0038  0.0094 -0.3730
45471W        W54271  11.269   4.698  35.642  0.0860 -0.1790 -0.0348
45472W        W54272  21.712   1.687   2.879  0.2242 -0.0236 -0.1146
45473W        W54273   0.279   4.293  32.262 -0.0310  0.0395  0.2223
45474W        W54274   2.021   0.952   5.368  0.0944 -0.2571 -0.1365
45475W        W54275  13.189   0.478  34.063 -0.3059  0.0435  0.1033
45476W        W54276  14.091   3.351   9.608 -0.0193 -0.1147 -0.0372
45477W        W54277  11.976   3.714  15.647 -0.2857 -0.0988 -0.0747
45478W        W54278   4.516   5.572  34.279  0.1262  0.0683 -0.3041
45479W        W54279  23.042   2.152  12.366 -0.1962  0.0050 -0.4869
45480W        W54280  12.641   3.485  21.383  0.0389  0.1117 -0.0491
45481W        W54281   9.932   4.120  23.658 -0.0879  0.0228  0.0550
45482W        W54282   7.949   4.068  32.475 -0.3811 -0.2919  0.0057
45483W        W54283  21.488   1.612  10.335  0.0943 -0.1669  0.1956
45484W        W54284  18.790   1.128  21.278 -0.0504 -0.0326 -0.0337
45485W        W54285  18.030   1.511  14.204 -0.1217 -0.1770 -0.1335
45486W        W54286  16.387   2.549   9.620 -0.1469 -0.3123  0.0623
45487W        W54287  20.293   1.440   3.892  0.0797  0.2746 -0.1938
45488W        W54288   9.186   0.014  23.376  0.0326 -0.1156  0.0682
45489W        W54289  24.182   5.157  33.958  0.3906  0.0453 -0.3862
45490W        W54290  11.755   0.426  14.343  0.3576 -0.1685  0.1747
45491W        W54291   8.208   4.645   4.705  0.0650  0.0631  0.3431
45492W        W54292   3.809   0.146  28.506 -0.0186 -0.2779  0.1008
45493W        W54293  25.226   2.515  29.794 -0.2540 -0.3407 -0.1459
45494W        W54294   6.761   1.491  26.507 -0.1128 -0.0156 -0.2254
45495W        W54295  19.987   3.670  13.939  0.0709  0.1129  0.2011
45496W        W54296  18.323   5.675   7.503 -0.2820  0.0095  0.4150
45497W        W54297  21.844   1.137  27.091 -0.2467 -0.0491  0.0309
45498W        W54298  12.254   4.248  23.836 -0.1638  0.2692 -0.0077
45499W        W54299   9.033   0.037   5.878  0.1462 -0.1185 -0.1201
45500W        W54300  17.716   5.626  30.295  0.0658  0.1361  0.1697
45501W        W54301  19.721   6.546  23.766 -0.1451  0.0425  0.0738
45502W        W54302   0.245   3.295  31.411  0.2837  0.3535  0.2130
45503W        W54303  17.140   0.661  12.726  0.1757  0.0481  0.3520
45504W        W54304   4.265   5.516  24.454  0.1576  0.0732  0.2842
45505W        W54305  22.190   0.004   5.994 -0.0648  0.1360  0.3188
45506W        W54306   5.345   0.276  29.402 -0.1427  0.0610 -0.1991
45507W        W54307   3.886   3.235  23.268 -0.0643 -0.3429 -0.1926
45508W        W54308   9.459   4.550  33.854  0.0198  0.1733 -0.0510
45509W        W54309  20.469   2.363   7.279 -0.0696 -0.0327 -0.2444
45510W        W54310  18.545   3.553  20.646  0.4662  0.1560 -0.0099
45511W        W54311  12.681   2.425   9.610  0.1067  0.1275  0.0115
45512W        W54312  25.127   4.491  21.231 -0.1986  0.1137  0.0953
45513W        W54313   1.356   1.220   6.076  0.1102  0.0925  0.2383
45514W        W54314  16.438   4.046   1.640 -0.1165 -0.0071  0.0139
45515W        W54315  18.939   2.363  10.184  0.0900  0.0944  0.0847
45516W        W54316   3.937   4.046  21.610  0.1153  0.3909  0.1749
45517W        W54317   9.206   0.003  26.524  0.0398 -0.0979  0.1421
45518W        W54318  11.830   2.050  24.360 -0.0263  0.0614 -0.3440
45519W        W54319   9.202   3.340  23.624  0.0406  0.1224 -0.0343
45520W        W54320   1.233   0.549   3.314  0.0769  0.2815  0.1236
45521W        W54321  25.297   5.307  32.196 -0.0735 -0.2739  0.0532
45522W        W54322  14.860   0.334   6.183  0.2074 -0.2899  0.2611
45523W        W54323  21.687   4.868  32.475  0.0721 -0.0717 -0.1026
45524W        W54324   5.115   3.838  29.447 -0.0596  0.1483  0.1632
45525W        W54325  17.097   3.887  24.716  0.2172 -0.0425 -0.0536
45526W        W54326  18.179   1.597  33.330  0.2110 -0.1408  0.0969
45527W        W54327   5.194   4.864  29.317 -0.0008 -0.0471 -0.1263
45528W        W54328  11.597   6.473   1.432  0.2247 -0.0056  0.1967
45529W        W54329   4.768   0.725   1.068  0.1678  0.2896  0.2204
45530W        W54330  12.632   2.653   3.816 -0.2266 -0.2084  0.1542
45531W        W54331  12.871   2.914   0.276  0.1177  0.2727  0.0296
45532W        W54332  21.981   4.867  33.608  0.0127 -0.0125  0.1182
45533W        W54333  18.700   0.720  35.757  0.1038 -0.1652  0.0808
45534W        W54334  17.152   4.701  30.568 -0.2259  0.2093  0.1970
45535W        W54335  18.443   1.259  12.460 -0.0589 -0.3857  0.1917
45536W        W54336  18.812   0.399   3.717  0.0449  0.0984  0.0926
45537W        W54337   3.653   1.421  10.817  0.0217 -0.0466  0.0677
45538W        W54338   8.523   0.283   9.467 -0.0019  0.0711 -0.2616
45539W        W54339   9.946   5.214  36.072  0.0074  0.2864  0.3799
45540W        W54340   4.715   3.402   1.512 -0.1832  0.1810 -0.0119
45541W        W54341  15.996   6.434  32.907  0.1750  0.0865  0.0902
45542W        W54342  19.379   5.832   9.730  0.0288  0.2318  0.0627
45543W        W54343   4.635   4.946  22.239 -0.0919 -0.1640  0.1356
45544W        W54344  16.679   3.729   0.089  0.2533  0.0069 -0.0802
45545W        W54345   7.069   1.560   7.856  0.2198  0.0344 -0.0580
45546W        W54346   3.693   1.625   0.428  0.2377 -0.0995  0.0500
45547W        W54347  24.534   1.560  11.919 -0.0773 -0.1217 -0.1127
45548W        W54348   5.760   1.911  34.157 -0.0336 -0.0157 -0.0327
45549W        W54349  22.859   0.376  27.572 -0.0316 -0.1096  0.0075
45550W        W54350   5.624   4.700  12.500 -0.0475  0.2086 -0.3473
45551W        W54351   9.513   4.329   2.686 -0.1660  0.1020 -0.0082
45552W        W54352  24.890   5.826   4.252  0.2051  0.0872  0.3697
45553W        W54353  23.706   5.017   5.101 -0.2096  0.2131  0.1696
45554W        W54354   9.164   4.251  27.928 -0.2017  0.2386  0.2091
45555W        W54355   7.132   1.956   0.268 -0.0882 -0.1394 -0.1566
45556W        W54356  10.908   2.727   8.893  0.4370 -0.2288  0.0981
45557W        W54357   5.060   6.312  23.517  0.0655  0.2333 -0.1597
45558W        W54358  24.689   5.843  33.431 -0.0064  0.2199 -0.0902
45559W        W54359  19.195   3.519   8.152  0.0762 -0.0248 -0.2249
45560W        W54360  23.336   5.703  32.784  0.2844  0.0212 -0.0318
45561W        W54361  26.189   3.438  10.160 -0.0447  0.2046 -0.2462
45562W        W54362  10.987   2.927  25.631  0.3343  0.1097  0.1175
45563W        W54363   5.527   1.369  28.976  0.0325 -0.1903  0.0410
45564W        W54364   9.959   0.861   6.460 -0.1103 -0.1148 -0.1867
45565W        W54365   9.639   5.976  13.332  0.1214  0.1248  0.4356
45566W        W54366   0.093   5.819  13.107 -0.1254 -0.0726 -0.1612
45567W        W54367  23.757   3.067  11.933 -0.0859  0.4038  0.0889
45568W        W54368  15.370   3.710  34.030 -0.0104  0.0048  0.0473
45569W        W54369  13.404   0.371   8.708  0.1174 -0.0758 -0.3212
45570W        W54370   5.542   6.132   1.714 -0.0831 -0.2616 -0.0290
45571W        W54371  22.980   4.209   9.391 -0.0706 -0.0584  0.2920
45572W        W54372   5.875   0.402   1.722 -0.0753 -0.0917  0.2332
45573W        W54373   9.456   5.883  23.911 -0.1609 -0.5127  0.0765
45574W        W54374  14.871   2.614   2.024  0.1035 -0.1105 -0.1167
45575W        W54375  13.007   6.508  29.325 -0.1161  0.1190 -0.2129
45576W        W54376  13.824   4.272   1.370  0.2140 -0.1112  0.0519
45577W        W54377  15.422   4.620   0.691  0.3494  0.0166  0.0020
45578W        W54378  25.878   6.348  13.402  0.0936  0.1028  0.1834
45579W        W54379   6.909   3.391   9.731 -0.0950  0.0515 -0.1672
45580W        W54380  26.056   6.425  24.253  0.2071  0.0237  0.3841
45581W        W54381  20.368   5.104   3.178  0.0968 -0.2253 -0.0189
45582W        W54382  24.059   3.966  22.867 -0.2742  0.1728 -0.3037
45583W        W54383  11.610   0.504  27.208  0.2789  0.2570 -0.1788
45584W        W54384  24.160   5.538  11.440 -0.0703  0.0327 -0.4096
45585W        W54385  18.924   3.977  31.138 -0.0844  0.1964 -0.0686
45586W        W54386  18.001   5.479  10.989 -0.0160  0.0589 -0.0208
45587W        W54387   1.405   1.661  26.894  0.1232 -0.0080  0.0178
45588W        W54388   7.779   5.087  33.381 -0.1131 -0.0536 -0.1279
45589W        W54389  23.245   4.651  29.000 -0.1090  0.0387 -0.1772
45590W        W54390  18.244   1.757  12.300  0.2441 -0.0157 -0.0440
45591W        W54391  25.635   5.956  12.317 -0.0141  0.2840 -0.1020
45592W        W54392  10.030   0.693  10.334  0.0739  0.1592 -0.1210
45593W        W54393  15.153   0.451   3.567 -0.1068  0.0226 -0.1722
45594W        W54394  19.821   2.461  33.619  0.0854  0.2514 -0.0780
45595W        W54395  25.265   0.186  23.600  0.0015 -0.1861  0.3450
45596W        W54396  14.943   3.718  12.326 -0.2923 -0.0721 -0.1055
45597W        W54397  11.204   0.799   4.805  0.1031 -0.1230 -0.2573
45598W        W54398  24.534   6.476  33.067 -0.0868 -0.1689  0.4491
45599W        W54399  15.033   2.279  33.828  0.3822 -0.2553  0.2321
45600W        W54400  11.082   2.652   6.433  0.0719 -0.4414 -0.1587
45601W        W54401   0.839   3.167  25.398  0.1270 -0.0299  0.0635
45602W        W54402  25.723   5.925  36.083  0.0594 -0.4079 -0.0115
45603W        W54403  15.268   1.744  14.337  0.1358 -0.3172  0.0080
45604W        W54404  12.569   4.179   4.993  0.2400 -0.3359 -0.3547
45605W        W54405  13.104   2.646  32.978  0.0939  0.1728  0.1265
45606W        W54406   5.303   0.843   9.793 -0.2518 -0.1699 -0.2127
45607W        W54407   0.049   3.315  27.125  0.0776  0.1298 -0.0002
45608W        W54408   1.441   0.669  28.013 -0.1297 -0.1245 -0.0658
45609W        W54409  25.889   3.110  23.023  0.0890  0.3371 -0.0401
45610W        W54410   4.780   2.487  31.728  0.0722  0.1942  0.1226
45611W        W54411   6.957   2.274  26.030  0.0972  0.1738  0.1328
45612W        W54412   6.763   3.308   5.058 -0.2148  0.0739  0.2312
45613W        W54413   3.245   3.271   3.899 -0.2907  0.2140 -0.0295
45614W        W54414   2.661   3.205  14.570 -0.0245  0.0858  0.1421
45615W        W54415  19.936   1.442   6.165  0.2682  0.1457  0.4207
45616W        W54416   9.978   5.973  34.059 -0.1807  0.0999 -0.0577
45617W        W54417   6.386   0.991   6.852 -0.2978  0.0710 -0.0599
45618W        W54418   2.433   6.203  35.661  0.0513 -0.1650  0.0181
45619W        W54419   4.564   3.012   0.603 -0.1374  0.0923 -0.2704
45620W        W54420  17.913   5.688   7.168 -0.4073  0.3072  0.0320
45621W        W54421  16.695   0.963  29.978 -0.0272  0.0730  0.0823
45622W        W54422  14.029   0.668  25.633 -0.1691 -0.1441  0.0703
45623W        W54423   2.900   0.047  24.275 -0.2333 -0.0673 -0.0196
45624W        W54424  12.272   5.428  27.445 -0.1227  0.0411  0.3478
45625W        W54425  19.801   5.447   2.325 -0.1475 -0.0338  0.2755
45626W        W54426  18.924   1.009   6.438 -0.1865  0.1296  0.1904
45627W        W54427  18.709   5.496   7.788  0.0979 -0.4959  0.1211
45628W        W54428  22.174   3.242   7.472 -0.1204 -0.0563 -0.0901
45629W        W54429  10.617   4.381  33.287 -0.0311 -0.0910 -0.2283
45630W        W54430  12.794   3.777  25.781  0.1221 -0.3219  0.0094
45631W        W54431  24.180   4.051   3.524 -0.0334  0.0027 -0.0467
45632W        W54432  13.163   2.821   4.551 -0.2098 -0.4503  0.0836
45633W        W54433  13.404   6.596  33.938  0.1360  0.0172  0.1593
45634W        W54434   6.887   1.034  28.375 -0.2531 -0.2636  0.0029
45635W        W54435   5.468   0.352   0.110  0.1502  0.2699 -0.0806
45636W        W54436   1.674   3.902  22.221 -0.2004 -0.3921  0.2144
45637W        W54437  23.050   3.625  14.904 -0.0931 -0.1124 -0.2774
45638W        W54438   7.783   2.483  13.770  0.0938  0.1015  0.0507
45639W        W54439  19.776   0.072  11.550  0.2117 -0.1721 -0.0786
45640W        W54440   8.417   5.910  12.364  0.0482 -0.0243  0.1731
45641W        W54441   3.118   3.458  11.242 -0.0400 -0.0695 -0.2508
45642W        W54442  16.281   2.781  28.521  0.1748 -0.1630  0.1469
45643W        W54443   4.075   3.969  33.568 -0.1057 -0.0253  0.2371
45644W        W54444  16.171   4.785  31.209 -0.2779  0.0616  0.1366
45645W        W54445  25.179   5.281  32.975 -0.0577 -0.0349  0.2778
45646W        W54446   4.491   6.055  32.445  0.3872 -0.2345 -0.2808
45647W        W54447  24.533   3.005   6.367 -0.2335 -0.0507  0.1292
45648W        W54448  12.063   3.410  32.201  0.0426 -0.7812  0.2155
45649W        W54449  12.041   5.692  31.818 -0.1451 -0.2347 -0.2462
45650W        W54450  13.605   4.370  34.346 -0.1177 -0.0675  0.0866
45651W        W54451  18.963   3.477   4.978  0.1406 -0.1805  0.2411
45652W        W54452   5.671   4.832  30.727 -0.0909 -0.0179 -0.1684
45653W        W54453   2.193   1.868  24.923 -0.0813 -0.3744  0.0402
45654W        W54454  18.946   5.665  31.831 -0.0895 -0.0912 -0.0717
45655W        W54455  25.525   1.567   3.777 -0.0698  0.2170 -0.0823
45656W        W54456  24.351   5.347  29.521 -0.0269 -0.1824 -0.0452
45657W        W54457  25.818   0.072  20.103 -0.2351  0.0410  0.1665
45658W        W54458   3.443   1.839  10.978  0.2604  0.2929 -0.1526
45659W        W54459  26.220   2.423   2.633  0.1027  0.0514  0.0070
45660W        W54460  23.418   1.011  11.277  0.1844  0.0310  0.0303
45661W        W54461  22.769   6.175  26.526 -0.0713  0.0755  0.0480
45662W        W54462  11.791   1.450   6.300 -0.1945 -0.0542  0.2080
45663W        W54463   9.070   6.603  30.713 -0.0798  0.0766 -0.2110
45664W        W54464  17.601   3.407  31.494  0.0793  0.1095 -0.2379
45665W        W54465  25.423   0.200  14.942  0.2650  0.0767 -0.2192
45666W        W54466  19.145   5.577  26.878 -0.0836  0.1914  0.1012
45667W        W54467  26.312   3.170  29.445 -0.0931 -0.1261 -0.4057
45668W        W54468   9.156   5.946   1.752 -0.1160 -0.3817 -0.1145
45669W        W54469   3.603   3.936  28.553  0.2820  0.0343 -0.4738
45670W        W54470  16.375   5.722   0.797  0.2407  0.1717  0.2060
45671W        W54471  11.202   0.591  34.611 -0.0874 -0.2484 -0.1195
45672W        W54472  20.220   0.978   3.638  0.1181  0.1458  0.0162
45673W        W54473   4.432   2.158   1.829 -0.1013 -0.2611  0.1469
45674W        W54474   1.830   2.300  22.324 -0.0252 -0.1810 -0.0385
45675W        W54475   7.639   1.181  21.434  0.2979 -0.1754  0.0144
45676W        W54476  17.225   0.838  15.073  0.2609 -0.0762 -0.0693
45677W        W54477   4.504   3.122  11.122  0.1040  0.0455  0.0541
45678W        W54478   9.535   4.178  32.387  0.3320 -0.2225 -0.4318
45679W        W54479  25.150   4.674  31.622 -0.1164  0.0726 -0.0730
45680W        W54480  24.578   0.658  26.130 -0.1381  0.2992 -0.0731
45681W        W54481  24.941   2.992  23.610  0.0680 -0.0472  0.5633
45682W        W54482   0.109   3.552  29.062  0.0523  0.1733  0.0142
45683W        W54483   4.660   2.564  14.311  0.2407 -0.1375 -0.2043
45684W        W54484  17.904   1.119  25.014  0.1653  0.4267  0.2899
45685W        W54485  18.616   6.299   3.394 -0.0392 -0.0455  0.1533
45686W        W54486   2.408   6.340   3.344  0.2758  0.2456 -0.2652
45687W        W54487   3.667   1.571  28.843 -0.2196  0.2034  0.0751
45688W        W54488  13.155   1.172  35.830  0.2821 -0.1483  0.0960
45689W        W54489  16.884   5.582   7.491  0.3095  0.0004  0.1733
45690W        W54490  16.112   6.509  23.346  0.2273 -0.1257 -0.0827
45691W        W54491   8.530   3.435   3.382 -0.3433 -0.3208  0.1669
45692W        W54492   1.455   0.979  30.570  0.0095 -0.0681 -0.1534
45693W        W54493  22.218   1.022  11.985 -0.0387 -0.1500  0.2456
45694W        W54494  26.293   1.111  11.874 -0.1742  0.0208 -0.0872
45695W        W54495   6.334   1.160  32.477 -0.4588  0.0641 -0.1304
45696W        W54496  12.580   3.287  10.016  0.0085  0.2285 -0.0803
45697W        W54497   8.091   3.200  22.929  0.1328  0.0463  0.1386
45698W        W54498   2.722   1.006  11.545 -0.1000 -0.0584 -0.0285
45699W        W54499   3.346   5.078  29.373  0.1373 -0.1117  0.1432
45700W        W54500  18.057   1.420   5.406  0.1510 -0.0220  0.0446
45701W        W54501  13.012   1.427  32.066  0.1046  0.0658  0.2964
45702W        W54502   7.493   3.729  13.871 -0.1746  0.2473  0.2525
45703W        W54503   1.038   0.855  20.802 -0.1931  0.1472  0.0732
45704W        W54504  10.998   5.911  14.869 -0.0055 -0.0076 -0.1946
45705W        W54505   4.268   1.439   9.716 -0.4111  0.2593 -0.0878
45706W        W54506  17.789   1.481   2.985 -0.0468  0.0473 -0.1306
45707W        W54507  13.516   3.523   5.803  0.1248  0.0495 -0.0001
45708W        W54508  13.655   2.218   4.894  0.2886 -0.0875  0.2290
45709W        W54509  19.301   2.186   9.849  0.0967 -0.1212  0.0741
45710W        W54510   0.418   3.887  24.039 -0.1967  0.0418  0.2971
45711W        W54511  20.247   6.568  25.415 -0.0773 -0.0385  0.1488
45712W        W54512  17.882   4.466   1.545 -0.0748  0.0416 -0.0901
45713W        W54513  13.108   3.364  10.066  0.1392  0.1621  0.0821
45714W        W54514  15.015   5.706   6.826  0.1486 -0.0003 -0.0177
45715W        W54515   8.617   3.104   1.148 -0.0272  0.2157  0.2123
45716W        W54516  20.575   0.219  31.245 -0.3316  0.1115 -0.2873
45717W        W54517  24.239   2.184   4.900  0.2807  0.0263 -0.0637
45718W        W54518  24.536   3.081   1.924  0.0050 -0.0013 -0.0152
45719W        W54519   6.038   1.562  32.636 -0.1831 -0.1097 -0.1508
45720W        W54520  25.333   4.881  28.173 -0.0238  0.2591 -0.1314
45721W        W54521  13.343   2.457  10.023  0.2120  0.4578 -0.2347
45722W        W54522  23.388   0.593  31.217  0.2483 -0.3228 -0.2929
45723W        W54523  16.359   4.031  25.082  0.1820 -0.1070 -0.1300
45724W        W54524  15.362   2.375  32.772 -0.0943 -0.0230  0.0432
45725W        W54525   6.242   1.717  33.048  0.3831 -0.1899  0.3428
45726W        W54526   8.787   6.591   3.583  0.1079 -0.0091 -0.0121
45727W        W54527   1.062   2.694  28.406 -0.0138  0.0667  0.0735
45728W        W54528   5.072   1.343  34.246  0.2142  0.1353  0.3480
45729W        W54529  11.015   6.314  29.235  0.1321  0.0556  0.2552
45730W        W54530  25.439   1.336   9.007 -0.2158  0.4122  0.0620
45731W        W54531  25.067   0.383   7.257 -0.1657 -0.3610 -0.1456
45732W        W54532   8.114   1.777  28.356  0.4791  0.0721  0.4666
45733W        W54533  16.203   2.720   6.477 -0.1722 -0.1286 -0.0288
45734W        W54534  14.185   5.784  35.304 -0.1669  0.1563 -0.2763
45735W        W54535   5.659   5.777  33.180 -0.1128 -0.1347  0.1221
45736W        W54536  11.967   1.272   4.693 -0.0540 -0.1830 -0.0406
45737W        W54537  17.054   0.384  15.001 -0.1799 -0.2179  0.0741
45738W        W54538  24.267   2.845  34.184  0.4448  0.1725 -0.1795
45739W        W54539  14.002   0.956  32.249  0.0948  0.1308 -0.0245
45740W        W54540  10.778   3.105  24.488  0.1424 -0.3470 -0.1152
45741W        W54541  19.068   6.580   5.636 -0.2224  0.0220 -0.1980
45742W        W54542   1.421   2.221   3.601  0.0031 -0.1048  0.1929
45743W        W54543  14.641   2.451  34.600  0.0856 -0.1160 -0.2375
45744W        W54544  20.109   3.052   8.219 -0.1258  0.0308  0.1711
45745W        W54545  15.697   3.778  31.436  0.2282 -0.0778 -0.0590
45746W        W54546   1.056   2.532   7.218  0.0241 -0.2082 -0.0276
45747W        W54547   0.783   3.956  35.132  0.0501 -0.1014 -0.0063
45748W        W54548   9.463   1.356  34.986  0.0083 -0.0675  0.1118
45749W        W54549   5.761   1.754  12.609 -0.0230  0.0199 -0.0313
45750W        W54550  22.352   2.598   7.681 -0.0486 -0.1006  0.2529
45751W        W54551  17.141   1.594   3.775 -0.0056 -0.0982 -0.2741
45752W        W54552  14.184   1.593  30.889 -0.0260 -0.4246 -0.0602
45753W        W54553   0.873   2.471  34.128 -0.1822 -0.1913 -0.1282
45754W        W54554   7.359   4.564  32.242  0.0785  0.0921  0.2702
45755W        W54555   4.820   1.176   1.894 -0.1439  0.2874  0.0369
45756W        W54556  22.333   3.554  32.890 -0.1958 -0.1171  0.2827
45757W        W54557  17.515   6.590  29.894 -0.1168 -0.2564 -0.2557
45758W        W54558  24.374   2.879  14.006 -0.0432  0.1755  0.1619
45759W        W54559  18.014   3.380  32.595  0.0630  0.1620  0.1143
45760W        W54560  20.832   0.570  30.087  0.0881  0.1903 -0.2615
45761W        W54561   1.203   4.063  31.271  0.0518 -0.2135 -0.0359
45762W        W54562  18.400   6.433  14.200 -0.0160 -0.3770  0.2374
45763W        W54563  23.387   4.281   9.691 -0.0583 -0.1015  0.0074
45764W        W54564  13.766   4.681  10.543  0.1060  0.1135 -0.2385
45765W        W54565   2.311   4.412  14.101 -0.3076 -0.1970 -0.1913
45766W        W54566   3.031   3.016   8.725  0.1050  0.3577 -0.0307
45767W        W54567  25.459   1.040   6.271  0.0622 -0.0001  0.0295
45768W        W54568   8.636   4.427  20.849  0.0554  0.0268 -0.0693
45769W        W54569   1.135   1.186  13.229  0.0054  0.1294 -0.0954
45770W        W54570  14.772   2.244  25.618 -0.0700  0.3511  0.0949
45771W        W54571  20.151   2.339   7.729 -0.0682 -0.0708 -0.0632
45772W        W54572   7.916   5.574  12.530  0.1008  0.3529  0.1016
45773W        W54573   5.252   2.329  20.793  0.0563 -0.0376 -0.0833
45774W        W54574   1.912   3.982  14.358 -0.2100 -0.0069 -0.0647
45775W        W54575  13.088   3.605  23.154  0.1538 -0.1102 -0.3003
45776W        W54576  24.908   4.865  32.894  0.0767 -0.0474  0.0002
45777W        W54577   3.473   0.452  28.276 -0.0002 -0.1443 -0.1961
45778W        W54578   0.499   1.144  23.231 -0.0903 -0.0731 -0.0545
45779W        W54579  23.307   0.318  11.717 -0.0187  0.0618 -0.1476
45780W        W54580  14.485   6.300  31.379 -0.0203  0.3080  0.0078
45781W        W54581  24.880   6.481   8.044  0.0706  0.2962  0.0906
45782W        W54582   6.972   1.947  32.613  0.2591 -0.1428 -0.3057
45783W        W54583  10.973   1.950   5.232 -0.1239  0.1085  0.3866
45784W        W54584   1.316   4.111  26.420  0.0082 -0.2857  0.1295
45785W        W54585  17.233   1.373  33.519 -0.1543 -0.2697 -0.1536
45786W        W54586   5.955   2.451   9.591 -0.1372  0.2290 -0.0406
45787W        W54587  13.018   4.355  22.228  0.2580  0.2001  0.0213
45788W        W54588   7.142   5.188  26.105 -0.2185  0.1268 -0.2310
45789W        W54589   0.881   0.151   8.272  0.0960  0.0793  0.1373
45790W        W54590  14.720   4.162  10.838 -0.2240  0.2568 -0.1015
45791W        W54591  18.215   2.709   9.620 -0.0033  0.1375 -0.0575
45792W        W54592  20.734   4.765  25.747 -0.2055 -0.1086  0.0116
45793W        W54593   9.439   2.643  29.271 -0.0069 -0.1359  0.1147
45794W        W54594  16.102   6.425  34.860 -0.1560  0.2841 -0.0950
45795W        W54595   4.934   0.438  21.884 -0.0860 -0.2954 -0.3222
45796W        W54596   6.525   3.051   4.664 -0.2640 -0.0183 -0.1986
45797W        W54597  22.641   2.719  12.165 -0.3661  0.2734  0.0517
45798W        W54598   4.588   0.309  10.357  0.1088  0.0342  0.2242
45799W        W54599   3.705   4.404  25.853 -0.0260  0.1473 -0.1797
45800W        W54600  20.116   3.437   1.718  0.1405 -0.0476 -0.0314
45801W        W54601  22.773   5.307  30.353  0.0786 -0.1188 -0.0372
45802W        W54602  15.586   0.064   0.376  0.1950 -0.0088  0.0838
45803W        W54603  12.934   1.019  24.006 -0.1677 -0.0482  0.1912
45804W        W54604  15.645   0.454   2.656  0.3519 -0.1358 -0.0085
45805W        W54605   2.586   1.620  29.396  0.0264  0.2348 -0.0024
45806W        W54606  20.129   2.584  28.106 -0.0139  0.2346  0.2921
45807W        W54607  15.206   4.231  26.876 -0.1788  0.0318  0.0334
45808W        W54608  18.781   2.523   4.292 -0.1382  0.1031  0.0091
45809W        W54609   9.859   6.460  10.479 -0.0759 -0.0204  0.2383
45810W        W54610  14.211   4.768  33.807  0.0943 -0.0006  0.2645
45811W        W54611  18.858   5.617   2.149 -0.2764  0.1428  0.2388
45812W        W54612   6.537   4.668  23.462  0.0866 -0.1220  0.2761
45813W        W54613   4.298   3.465  34.513 -0.4753  0.0974  0.0505
45814W        W54614   0.236   0.252  34.932  0.2400 -0.3601 -0.2642
45815W        W54615   9.280   0.357   3.818 -0.3873  0.1863  0.1039
45816W        W54616  14.415   0.239  32.335  0.0709  0.0803 -0.2860
45817W        W54617  24.762   5.628   9.506 -0.3189  0.4388  0.1618
45818W        W54618   6.839   4.103   4.133  0.1290 -0.0856  0.2364
45819W        W54619  20.075   2.689  12.792  0.0339  0.1493  0.2270
45820W        W54620  20.014   3.715  23.969 -0.1441 -0.0988 -0.3815
45821W        W54621   4.868   4.365   7.265  0.1093 -0.0897 -0.0485
45822W        W54622   4.314   3.296  22.641  0.0029 -0.1760  0.1022
45823W        W54623  25.859   3.663  31.439  0.1274  0.4670  0.2348
45824W        W54624  24.744   6.016   6.332 -0.1426 -0.0735  0.2196
45825W        W54625   6.418   2.739   0.565  0.2071  0.1368  0.2070
45826W        W54626  24.354   4.760  34.314 -0.1394 -0.1836 -0.0260
45827W        W54627   2.562   2.399   7.487 -0.1421  0.1005 -0.0862
45828W        W54628   0.516   5.877   5.837 -0.0593 -0.2411  0.2277
45829W        W54629  23.696   0.487  26.828 -0.0942  0.1817  0.0176
45830W        W54630  17.836   0.500  30.672 -0.2216  0.0953  0.0052
45831W        W54631   0.878   6.222  29.644  0.0698 -0.2959  0.0522
45832W        W54632   5.915   0.122   0.318 -0.2241  0.2688 -0.0960
45833W        W54633  14.569   3.068  10.659 -0.1918  0.1389  0.1008
45834W        W54634  17.667   0.593  25.660 -0.0196 -0.1687  0.2915
45835W        W54635  19.934   6.021  29.119 -0.0140 -0.4528  0.1887
45836W        W54636   8.636   0.523  30.748 -0.0208 -0.1979  0.2178
45837W        W54637  11.661   1.869  25.808 -0.0520  0.1994  0.2652
45838W        W54638   4.711   5.094   7.143  0.1502  0.4130 -0.0302
45839W        W54639  13.820   3.937   5.829 -0.0489 -0.0375  0.2596
45840W        W54640  20.240   6.229  24.557  0.1161  0.1168 -0.0611
45841W        W54641   2.434   6.353   1.693  0.1251 -0.0076 -0.0202
45842W        W54642   2.081   2.162  13.347  0.2064  0.0746  0.1710
45843W        W54643  11.168   0.370  23.030 -0.1610  0.3968  0.0125
45844W        W54644  17.540   2.972  14.125  0.0560 -0.0738 -0.0092
45845W        W54645   8.731   3.379  24.613 -0.3796  0.2082  0.2863
45846W        W54646   6.173   1.623  29.562  0.2684  0.0206  0.0178
45847W        W54647   4.717   4.823  31.897 -0.0207  0.0695  0.1631
45848W        W54648  23.076   0.877   9.077 -0.0293 -0.0222 -0.0909
45849W        W54649   7.532   6.239  10.613  0.0570  0.0929  0.2008
45850W        W54650  15.924   3.989  14.949 -0.1496 -0.0841 -0.1346
45851W        W54651   5.318   4.334  29.854 -0.2018 -0.1372 -0.4205
45852W        W54652  16.361   4.689  27.154 -0.2496 -0.0703 -0.1543
45853W        W54653   8.721   0.904  35.835 -0.0713 -0.1645  0.0204
45854W        W54654  20.720   5.913  21.481  0.1105  0.0724 -0.2720
45855W        W54655  18.303   5.570  14.603 -0.3510 -0.1748 -0.0060
45856W        W54656   8.565   4.389  32.337  0.1792 -0.1295  0.0311
45857W        W54657  21.959   1.062  22.977 -0.1382 -0.0819  0.1338
45858W        W54658   2.729   2.633  13.476 -0.1965  0.2129  0.0436
45859W        W54659   2.106   2.142  11.885 -0.1052  0.0991 -0.0091
45860W        W54660   6.587   3.039  26.425 -0.1140 -0.0431 -0.0917
45861W        W54661  19.636   6.397   1.819 -0.1168 -0.0847  0.0352
45862W        W54662  15.067   1.655  24.541  0.2166  0.2793  0.0196
45863W        W54663   8.656   6.326  28.443 -0.2961  0.1781 -0.1447
45864W        W54664   3.310   2.854  11.515 -0.1801  0.0485 -0.3109
45865W        W54665   7.499   1.760   3.965  0.0635  0.4060  0.1233
45866W        W54666  18.720   0.191  31.892  0.3664  0.1599 -0.0973
45867W        W54667  15.941   0.767   5.740  0.3260 -0.1821 -0.2069
45868W        W54668  19.972   3.164  15.882 -0.0020 -0.0273 -0.1804
45869W        W54669   8.522   2.205   9.921  0.0508 -0.1926 -0.0868
45870W        W54670   0.771   2.415  12.527 -0.0173 -0.2341  0.0310
45871W        W54671   5.303   3.510   6.968  0.3181  0.2370 -0.1318
45872W        W54672  21.643   3.058  31.712 -0.0776  0.1310  0.1455
45873W        W54673   2.917   0.607  26.056 -0.3829  0.2443  0.2391
45874W        W54674  11.340   4.209   9.316  0.2803 -0.1416 -0.0987
45875W        W54675  21.236   1.669  29.097 -0.2251 -0.1474 -0.0623
45876W        W54676  13.086   2.703  33.441 -0.0757 -0.1376 -0.3118
45877W        W54677  24.077   1.229   7.157  0.1744  0.2607  0.0732
45878W        W54678  11.401   5.303   0.705  0.0249  0.3445  0.0923
45879W        W54679   5.821   1.109  32.603 -0.1298  0.3564 -0.0742
45880W        W54680   5.385   5.354  26.543  0.0795 -0.1998  0.1195
45881W        W54681   0.936   5.910   4.253  0.1948 -0.0009  0.0725
45882W        W54682   8.352   4.411  26.792  0.1867 -0.1379 -0.1216
45883W        W54683   1.639   5.875  34.023 -0.0968 -0.0562 -0.0297
45884W        W54684  22.937   4.446   3.527 -0.1337 -0.1425  0.1918
45885W        W54685  23.233   0.906  35.350  0.1521  0.0701 -0.0768
45886W        W54686  23.725   0.210  33.644 -0.1037 -0.0763  0.3798
45887W        W54687  22.791   5.366  20.971  0.0875  0.0652  0.5778
45888W        W54688  24.356   2.653   1.760 -0.1647  0.0986  0.2603
45889W        W54689   7.241   5.309  13.115 -0.1253 -0.3988  0.0602
45890W        W54690  11.845   6.214   9.627 -0.1285  0.1191 -0.3145
45891W        W54691  25.928   0.668  25.222  0.0522 -0.1380 -0.1011
45892W        W54692   2.997   0.038  12.441 -0.1843  0.2457 -0.0607
45893W        W54693   1.098   0.086   1.771  0.1337 -0.0596 -0.0080
45894W        W54694  23.812   5.085  35.402  0.2889  0.0399  0.1332
45895W        W54695  17.818   4.949   9.893 -0.1201  0.1537  0.0873
45896W        W54696  17.736   3.362  30.251 -0.0425  0.1201  0.1105
45897W        W54697  24.196   5.716  15.145  0.2379 -0.0495 -0.1384
45898W        W54698   3.305   4.986   8.983  0.2952  0.1125  0.3258
45899W        W54699   1.296   5.604   9.718  0.2693 -0.1830  0.0137
45900W        W54700  25.913   5.169  28.889 -0.2649  0.1284  0.1219
45901W        W54701  16.228   1.080  22.294 -0.1960  0.0592 -0.0133
45902W        W54702  23.393   3.373  26.988  0.1033  0.0489  0.0126
45903W        W54703   7.414   1.172  34.017  0.3108  0.0856 -0.1181
45904W        W54704   3.854   6.267  29.096  0.4987  0.2087 -0.5709
45905W        W54705   6.617   5.460  35.338 -0.0112 -0.0294 -0.1229
45906W        W54706  23.189   1.439  20.547  0.5157  0.0733  0.1266
45907W        W54707   2.490   5.365  12.199 -0.2797  0.0133  0.1104
45908W        W54708  21.669   5.072  31.045  0.0991 -0.2480  0.0966
45909W        W54709   3.784   1.684   8.614  0.1495  0.0708 -0.1093
45910W        W54710  13.111   3.146  29.455 -0.1734 -0.2458 -0.2684
45911W        W54711   4.911   6.474   9.476  0.0619  0.0248  0.1874
45912W        W54712   8.808   3.324   8.549  0.0668  0.1258  0.3077
45913W        W54713  24.138   4.583   4.261 -0.1564  0.3288  0.2263
45914W        W54714   3.601   5.169   4.972 -0.0482  0.1238 -0.1619
45915W        W54715   3.772   2.335   6.595  0.1369 -0.2729 -0.4812
45916W        W54716  14.099   3.309   6.634 -0.1642  0.1503  0.0512
45917W        W54717   2.794   0.378   7.777  0.0766 -0.1216 -0.1614
45918W        W54718   9.876   1.167  21.166 -0.0166 -0.0888  0.0874
45919W        W54719  13.771   5.627  13.306  0.1320 -0.0058  0.3104
45920W        W54720   7.954   0.830  23.940 -0.1010 -0.0057 -0.2823
45921W        W54721  16.075   2.548   5.391  0.0563 -0.0083 -0.0172
45922W        W54722  13.545   5.561  11.511  0.2145  0.0875  0.1689
45923W        W54723  18.295   4.148  13.965  0.0610  0.0958  0.0889
45924W        W54724   1.442   0.857   2.990 -0.1614  0.0854  0.1392
45925W        W54725  10.522   0.400  11.361 -0.0250  0.3634 -0.3005
45926W        W54726   4.031   4.587  12.931 -0.1711  0.0162 -0.0090
45927W        W54727  22.778   4.048  14.826 -0.0311  0.3537  0.0062
45928W        W54728   6.937   6.234   1.561 -0.3647  0.0763 -0.0604
45929W        W54729   9.072   6.210  29.894  0.2242  0.3051  0.0249
45930W        W54730   2.928   1.418   7.626  0.1151 -0.1442 -0.1449
45931W        W54731   8.830   6.331  13.854  0.0641  0.0134 -0.0324
45932W        W54732  26.030   5.270   3.666 -0.0645  0.1332  0.1947
45933W        W54733  13.287   4.755   9.255  0.0344  0.0845  0.3374
45934W        W54734   6.292   3.922  27.880 -0.0562  0.1341  0.1531
45935W        W54735  24.153   5.547   2.521  0.2381 -0.0058  0.3582
45936W        W54736  26.302   0.030  14.674 -0.0328  0.3280 -0.1053
45937W        W54737  11.174   0.414  33.244  0.2009  0.0953  0.0958
45938W        W54738  21.601   6.252  15.202  0.2331 -0.0360  0.0448
45939W        W54739  16.319   5.801  32.380 -0.1972  0.1970  0.1126
45940W        W54740  19.563   5.789  26.678 -0.0606  0.0670  0.0651
45941W        W54741  16.206   5.766  36.021  0.2245  0.0531 -0.0633
45942W        W54742  10.585   6.389   2.460  0.0324  0.1221  0.1057
45943W        W54743   6.019   5.797  29.275 -0.0818 -0.2458 -0.0193
45944W        W54744  12.122   1.345  20.909  0.0814  0.3655  0.1444
45945W        W54745  24.702   0.028  12.719  0.3277 -0.1484  0.2615
45946W        W54746  12.794   2.537  23.341 -0.0302 -0.1894 -0.1793
45947W        W54747  26.263   1.568  29.071  0.0728  0.4511  0.0614
45948W        W54748   2.430   5.646   1.366 -0.2317 -0.1141  0.1640
45949W        W54749  11.205   5.438  34.189  0.0543  0.0223 -0.2084
45950W        W54750  15.604   2.782  25.247 -0.2431  0.1642  0.3158
45951W        W54751  10.036   0.644  31.751  0.1637 -0.1020 -0.2652
45952W        W54752  13.403   1.578  22.502 -0.1033 -0.1120  0.2544
45953W        W54753  14.035   4.448  14.714 -0.0003  0.1995  0.1520
45954W        W54754  15.041   0.834  26.835 -0.1179 -0.1957 -0.1009
45955W        W54755  16.764   1.265   6.723 -0.0268 -0.2680 -0.2459
45956W        W54756   3.882   6.150  35.907 -0.1047  0.0366  0.0286
45957W        W54757  21.020   3.416   7.929  0.3262 -0.1705  0.0349
45958W        W54758  12.640   1.993   7.208 -0.2008 -0.2345 -0.4797
45959W        W54759   0.777   2.823  24.543 -0.0995  0.0564  0.1921
45960W        W54760  13.217   3.884   6.027  0.1960 -0.3111 -0.0153
45961W        W54761  14.955   1.664   6.173 -0.1098  0.1584  0.0098
45962W        W54762   7.125   3.077  14.960 -0.2836  0.0014 -0.1299
45963W        W54763   9.370   2.043  24.190  0.0467  0.0129 -0.0491
45964W        W54764  22.558   1.710  25.802 -0.0470  0.0385 -0.0293
45965W        W54765  24.605   6.167  31.143 -0.0404 -0.0813 -0.0973
45966W        W54766  13.976   3.251  11.386 -0.3284 -0.2399 -0.0216
45967W        W54767  24.510   4.480  23.640  0.1413 -0.1535  0.1785
45968W        W54768  22.674   1.500  11.921  0.1999 -0.0913 -0.1550
45969W        W54769  22.667   5.403  28.103 -0.2414  0.0143 -0.0767
45970W        W54770  24.570   4.081  35.718 -0.0813  0.2444  0.1945
45971W        W54771   7.252   3.480   5.250 -0.0832  0.0444 -0.0004
45972W        W54772  19.275   6.129   1.475  0.0108  0.0144  0.2056
45973W        W54773  11.902   2.496  34.641  0.2864 -0.0754  0.0382
45974W        W54774  22.796   3.726  32.940  0.0783  0.5044  0.2105
45975W        W54775  11.075   6.396  14.598  0.1116  0.2104 -0.1676
45976W        W54776  24.075   2.270  14.621 -0.3518 -0.1649 -0.1387
45977W        W54777   0.927   3.261  10.778  0.0651  0.1372  0.4050
45978W        W54778  21.854   0.689  28.515  0.1052  0.0702 -0.1014
45979W        W54779  12.526   3.410  13.536  0.0178 -0.1171  0.0129
45980W        W54780   3.036   0.638  35.840  0.1524 -0.3269  0.1289
45981W        W54781  16.044   1.929   4.154 -0.1018  0.0088 -0.2494
45982W        W54782  12.054   3.106   1.834 -0.1442 -0.1238 -0.2882
45983W        W54783   1.869   4.370  22.220 -0.0547  0.0962  0.0648
45984W        W54784  16.597   2.130  24.519 -0.0402 -0.1377 -0.0569
45985W        W54785  11.936   3.158   4.229  0.2169 -0.0940 -0.2724
45986W        W54786  10.293   5.948   4.900 -0.3865  0.0261 -0.0745
45987W        W54787  15.859   6.282  25.507  0.2527  0.1099  0.2962
45988W        W54788  17.701   0.435   7.795 -0.2478  0.1052 -0.0761
45989W        W54789   2.905   0.202   9.829  0.0183  0.0368  0.0217
45990W        W54790  16.048   3.200  14.267 -0.1998  0.0025  0.0807
45991W        W54791   1.339   4.009  28.670  0.0586  0.1256 -0.0724
45992W        W54792   0.104   0.632   6.442  0.0407  0.1586 -0.2067
45993W        W54793  14.873   2.866  34.848 -0.3513 -0.2414  0.0993
45994W        W54794   9.644   0.980  11.392 -0.0049  0.0684  0.1294
45995W        W54795   7.021   3.279   4.625  0.1654 -0.1073 -0.2153
45996W        W54796   5.598   3.404  15.364  0.1181  0.0981 -0.2297
45997W        W54797  22.331   2.523  28.587 -0.2239  0.1241  0.1423
45998W        W54798  21.734   2.023  20.637 -0.0496 -0.0079  0.0369
45999W        W54799  21.922   2.098   4.117  0.2940 -0.0546  0.2460
46000W        W54800   1.645   0.662  34.264  0.0620 -0.0156 -0.4048
46001W        W54801  12.511   5.382  28.653  0.3313 -0.1209  0.1097
46002W        W54802   5.077   3.112  24.250 -0.1944 -0.3012 -0.1140
46003W        W54803   8.253   0.227  29.721 -0.2842 -0.2017 -0.0325
46004W        W54804  18.596   2.655   5.165  0.1089 -0.0099  0.1120
46005W        W54805  14.896   2.265   2.373  0.0067  0.0512 -0.1603
46006W        W54806   4.140   4.234   0.239 -0.0380  0.2203 -0.1022
46007W        W54807   2.266   5.565   8.425 -0.0637  0.0290  0.3102
46008W        W54808   1.197   4.323  32.935  0.0414 -0.0847  0.2972
46009W        W54809  17.804   1.889   0.464 -0.1543 -0.0704 -0.1433
46010W        W54810  16.788   3.721   7.688 -0.2440  0.0134  0.2831
46011W        W54811  18.377   1.174  15.138 -0.1164  0.1972  0.2778
46012W        W54812   4.856   4.690   6.849 -0.0982  0.1063 -0.2231
46013W        W54813   5.234   3.815  31.497  0.2120  0.0628  0.0716
46014W        W54814   4.524   1.469   5.095 -0.3244  0.1570  0.1242
46015W        W54815  19.637   4.553  24.827  0.0689  0.1026 -0.0153
46016W        W54816   5.763   0.721  30.056  0.0026 -0.5265  0.2271
46017W        W54817  14.458   3.606  15.362 -0.0095 -0.0351 -0.3196
46018W        W54818  19.573   6.212  22.379  0.0673 -0.4683  0.0625
46019W        W54819  11.506   3.798  12.886 -0.0745  0.1578  0.1411
46020W        W54820   5.094   0.146  29.899 -0.2983 -0.0269 -0.0682
46021W        W54821  21.787   6.555   7.417 -0.0766  0.0823  0.0953
46022W        W54822  19.628   4.412   6.428  0.1780 -0.0408  0.0718
46023W        W54823   7.340   6.404  11.768 -0.0023  0.1530  0.1410
46024W        W54824   9.774   3.824   0.768  0.0930 -0.1529  0.1377
46025W        W54825  17.884   3.560  12.391 -0.2106 -0.0524  0.0982
46026W        W54826  19.954   0.872  30.583 -0.0987  0.0615 -0.0604
46027W        W54827  22.037   3.892  12.035 -0.2820  0.2479 -0.0277
46028W        W54828   8.407   2.544  32.825 -0.1199  0.0387  0.0675
46029W        W54829  11.916   6.515   3.002 -0.0743  0.1494  0.0705
46030W        W54830  21.829   1.595  32.877 -0.1727  0.2634  0.3197
46031W        W54831   9.366   5.116  26.139  0.2973 -0.2153 -0.0268
46032W        W54832   1.945   0.181  13.359 -0.1780 -0.2017  0.1561
46033W        W54833  11.422   3.593  27.906 -0.1391 -0.1016  0.0622
46034W        W54834   4.667   4.698  26.996  0.0624  0.0862 -0.0522
46035W        W54835  25.866   2.555   6.813 -0.2901 -0.0420  0.1284
46036W        W54836  10.902   0.256  15.836 -0.0354  0.0327  0.0533
46037W        W54837   9.257   3.352  34.330 -0.2498  0.0996 -0.2003
46038W        W54838  13.877   3.724  11.151  0.0583  0.1814  0.2807
46039W        W54839   3.963   0.613  34.888  0.3385  0.1285 -0.0085
46040W        W54840  24.416   3.322   4.797 -0.0146  0.0702 -0.2735
46041W        W54841  19.134   5.889  22.188  0.1871  0.1449  0.2475
46042W        W54842  24.377   0.222  24.206  0.1274  0.0021  0.2005
46043W        W54843   8.522   3.366  29.573  0.1501  0.0395 -0.1251
46044W        W54844  26.214   0.357  32.007  0.2152 -0.0060  0.2292
46045W        W54845  23.491   1.020  21.793  0.1970 -0.1002 -0.3027
46046W        W54846  25.573   0.594  12.731  0.2100  0.0087  0.1104
46047W        W54847  26.389   3.235  30.888 -0.2307 -0.0342  0.0586
46048W        W54848   3.395   4.620   1.301  0.1653  0.1622  0.1018
46049W        W54849  15.085   1.760  27.112 -0.0292  0.1598 -0.0707
46050W        W54850  18.720   5.314  30.009 -0.3470  0.0377 -0.0368
46051W        W54851  26.040   5.057   6.514 -0.1462  0.3115 -0.0542
46052W        W54852  18.672   1.490  30.423 -0.0993  0.4632  0.2683
46053W        W54853  19.335   1.240  12.181  0.0489 -0.2023  0.1593
46054W        W54854  25.655   6.235  30.137 -0.0956  0.1046  0.2720
46055W        W54855   3.940   6.428  26.116  0.1443 -0.1537  0.0455
46056W        W54856  18.143   2.745   5.404 -0.0471  0.1169  0.1406
46057W        W54857   2.009   0.525  11.842 -0.0249  0.1816 -0.0077
46058W        W54858  21.445   0.258  13.553 -0.2618 -0.0601 -0.1642
46059W        W54859  21.810   1.875  11.025 -0.1855  0.0161  0.2220
46060W        W54860  12.452   4.286  32.722 -0.2168  0.1353 -0.1522
46061W        W54861  18.565   0.877  22.715  0.0240 -0.0431  0.0396
46062W        W54862  16.370   1.112   2.693  0.0003 -0.2130 -0.0447
46063W        W54863  20.336   5.789   0.500  0.1317  0.0322 -0.1454
46064W        W54864   8.119   0.185  27.289 -0.1470 -0.1656 -0.1137
46065W        W54865  23.424   6.192   5.092  0.0997 -0.2816  0.2457
46066W        W54866   0.153   2.573   5.024  0.1407 -0.2414  0.0812
46067W        W54867   0.067   5.185   6.841 -0.1490 -0.1817  0.2751
46068W        W54868   6.676   0.666  35.892 -0.0969 -0.0796 -0.1296
46069W        W54869  17.716   5.544   1.120  0.0658 -0.3545  0.0768
46070W        W54870  10.254   2.832  35.991  0.1341  0.0274 -0.1953
46071W        W54871  14.560   3.639   8.416  0.0586 -0.2559 -0.3200
46072W        W54872  24.351   0.533   0.615 -0.1951 -0.1294 -0.1101
46073W        W54873  23.482   2.476  11.348  0.4136  0.1087 -0.2417
46074W        W54874   3.255   3.341   5.094  0.0794  0.2472 -0.2229
46075W        W54875  23.278   0.843   4.554 -0.2312  0.0117  0.0913
46076W        W54876  19.086   3.170  36.156  0.0439  0.3441 -0.1221
46077W        W54877   8.429   3.380  27.490 -0.0032  0.2202  0.1238
46078W        W54878   8.713   5.080   3.423 -0.2619  0.0942  0.2379
46079W        W54879  14.338   6.501   1.921  0.0647  0.5021  0.0688
46080W        W54880   0.621   6.386  32.161 -0.1753 -0.0406 -0.2849
46081W        W54881  22.931   5.704  30.698  0.0182 -0.1240 -0.1449
46082W        W54882  24.514   2.856  34.713 -0.0651  0.1298  0.1758
46083W        W54883   4.925   6.008  26.939  0.1968 -0.2633  0.0580
46084W        W54884  16.295   3.817   2.057 -0.0066  0.1759 -0.3248
46085W        W54885   4.742   6.551  28.609 -0.0037  0.2025 -0.0003
46086W        W54886  23.635   3.595   0.285  0.1747 -0.0356 -0.0417
46087W        W54887   1.766   2.295  12.368  0.0932 -0.2159  0.0365
46088W        W54888  24.493   5.785  29.527 -0.0300 -0.2671  0.2929
46089W        W54889  10.821   5.950  24.418  0.1525  0.0147  0.0211
46090W        W54890  12.344   3.760  11.841  0.2015 -0.2104  0.0444
46091W        W54891  13.303   3.086  14.620 -0.0844  0.2315  0.0144
46092W        W54892   0.492   4.822  33.343  0.1305  0.1470  0.0860
46093W        W54893   9.381   3.389  26.537 -0.1390 -0.1152 -0.3344
46094W        W54894  23.621   2.530  11.906 -0.0488 -0.0480 -0.0415
46095W        W54895  19.656   5.956  35.601  0.0084 -0.0590  0.1348
46096W        W54896  16.289   5.108   8.664 -0.1727 -0.1281 -0.1227
46097W        W54897  17.037   3.331  27.451  0.0713 -0.3603 -0.1400
46098W        W54898  17.217   0.496   8.107 -0.1662 -0.0097  0.0615
46099W        W54899  20.619   2.215   2.689 -0.0885 -0.0902  0.1831
46100W        W54900  14.659   0.020  25.528  0.0488 -0.0660  0.1264
46101W        W54901  17.348   2.272  30.872 -0.1818  0.1468 -0.0761
46102W        W54902  19.457   3.825  13.995 -0.0033  0.0770  0.0169
46103W        W54903  16.023   4.037   0.824  0.0253 -0.0337  0.2622
46104W        W54904  15.040   2.387  32.349  0.3068 -0.4108  0.3157
46105W        W54905   1.485   0.657  33.815  0.0349  0.1197 -0.0441
46106W        W54906   2.030   6.053  32.487  0.0981  0.0960 -0.1185
46107W        W54907   0.228   1.783   9.497 -0.4854  0.0262  0.1098
46108W        W54908  23.603   2.715  15.114 -0.2726  0.3103  0.2735
46109W        W54909   9.897   5.085  26.124 -0.0289 -0.0432  0.3438
46110W        W54910  16.349   5.244  36.108 -0.0248  0.1473 -0.0125
46111W        W54911  24.612   6.549   8.945  0.1604 -0.3223 -0.1633
46112W        W54912  25.699   6.352   9.486  0.1537  0.0115  0.1990
46113W        W54913   1.639   1.691  14.384 -0.4015  0.0768  0.2956
46114W        W54914   2.368   4.142  31.478 -0.0098  0.5259 -0.2323
46115W        W54915   0.342   1.935  24.782 -0.0541  0.2916 -0.2171
46116W        W54916  22.024   0.925   0.494 -0.0352 -0.1784 -0.2150
46117W        W54917  25.828   5.034  34.249  0.0288  0.3831 -0.4364
46118W        W54918   9.720   2.727  25.387 -0.0592  0.1620 -0.0998
46119W        W54919  11.132   3.369   3.392  0.2918  0.0057  0.0645
46120W        W54920   1.561   6.013  12.371 -0.1485  0.3276 -0.1895
46121W        W54921   4.272   5.484  21.177 -0.1273 -0.3173  0.1339
46122W        W54922   8.191   1.810  29.850  0.0100 -0.1256 -0.0721
46123W        W54923   8.759   3.220  23.325 -0.1411  0.0080  0.1023
46124W        W54924   8.271   6.135   8.171 -0.0480  0.0587  0.1751
46125W        W54925  18.248   0.317  31.935  0.2085 -0.0420  0.1346
46126W        W54926  14.237   3.497  13.727 -0.0482  0.1950 -0.2743
46127W        W54927   1.939   6.291   2.925  0.0260 -0.0398 -0.2720
46128W        W54928  23.498   2.629   2.196  0.2183 -0.0345  0.0294
46129W        W54929  20.549   1.253  31.038 -0.0799 -0.1086 -0.1852
46130W        W54930   9.526   3.182   4.638  0.0558  0.1197 -0.1406
46131W        W54931  14.810   4.573  29.229  0.2675  0.1146 -0.1043
46132W        W54932   3.820   6.129   4.758 -0.0659 -0.1480  0.1182
46133W        W54933  11.990   0.703  21.714 -0.0995  0.1614 -0.0017
46134W        W54934   8.981   3.049  12.946 -0.0514 -0.4192  0.3156
46135W        W54935  11.072   1.227   4.619  0.3377 -0.0871 -0.0513
46136W        W54936  16.307   3.829  31.765  0.1505  0.2400 -0.0372
46137W        W54937   0.208   4.557  15.399  0.0079 -0.0795 -0.0314
46138W        W54938   9.893   3.863   7.966  0.3111  0.1928  0.0125
46139W        W54939   7.936   6.453  31.750 -0.0539  0.0628  0.0235
46140W        W54940  11.203   2.673  30.726  0.2447 -0.1242  0.1184
46141W        W54941  14.906   0.681   3.186 -0.1803  0.1308 -0.1899
46142W        W54942  25.612   1.008  33.959 -0.0309  0.2601 -0.0497
46143W        W54943   9.023   3.499  30.051  0.1429 -0.2310  0.0606
46144W        W54944  12.847   4.315   2.503  0.1273 -0.0095 -0.2347
46145W        W54945  26.369   0.969   6.093  0.1579 -0.1639  0.2334
46146W        W54946  21.967   6.062   2.018 -0.0965 -0.1034 -0.0835
46147W        W54947   9.108   3.867  33.012  0.1514 -0.2695  0.0619
46148W        W54948  17.835   3.942  28.546 -0.4016  0.0396  0.1607
46149W        W54949   8.104   5.970  30.156  0.2783 -0.2790 -0.1173
46150W        W54950   7.429   4.458   2.848  0.0730  0.0568 -0.0391
46151W        W54951  13.195   4.652   3.450  0.1865  0.0059  0.2179
46152W        W54952  19.562   0.875  14.331 -0.0625 -0.0151  0.0822
46153W        W54953   7.792   2.253   3.740 -0.2069 -0.0739  0.0984
46154W        W54954  25.889   1.634   8.152 -0.0381 -0.2573  0.1000
46155W        W54955   3.439   2.634   7.505 -0.0231  0.1725 -0.1105
46156W        W54956   4.621   1.236  11.327 -0.1943 -0.0142  0.1223
46157W        W54957  23.336   0.438  36.122 -0.1979  0.0827 -0.0435
46158W        W54958   8.148   5.006   5.193  0.0189 -0.2076 -0.1473
46159W        W54959   5.040   2.237  24.045  0.2817  0.2984  0.2942
46160W        W54960  24.930   6.586  32.788 -0.2167  0.2944 -0.1000
46161W        W54961   7.560   3.689  28.555 -0.2950  0.1716 -0.0346
46162W        W54962  25.312   4.328  11.421  0.3669 -0.0377 -0.1576
46163W        W54963   9.949   5.219  32.245 -0.0115  0.1009  0.2869
46164W        W54964   8.278   1.003  29.713 -0.2040  0.2519 -0.1203
46165W        W54965   8.488   4.287   9.385  0.0045 -0.0657 -0.1027
46166W        W54966  18.555   4.357  29.751  0.1017 -0.1298  0.0489
46167W        W54967  26.374   3.138  23.385 -0.0763  0.1392  0.1434
46168W        W54968  16.753   3.036  10.519  0.1256  0.1110  0.1435
46169W        W54969  24.086   5.081   8.500 -0.0972  0.0407  0.0998
46170W        W54970   7.587   4.457  15.272  0.2116  0.2074  0.1715
46171W        W54971  18.801   5.532  35.285  0.5125  0.2035  0.0976
46172W        W54972   1.347   2.714  34.339  0.2725  0.2660  0.3606
46173W        W54973  24.738   6.271  20.222 -0.0477  0.2768 -0.1559
46174W        W54974  14.465   3.287  21.905 -0.1004 -0.0280  0.1412
46175W        W54975  22.775   2.252   5.222  0.1018 -0.2555 -0.1149
46176W        W54976  19.243   2.517  31.977  0.0982 -0.0392  0.1058
46177W        W54977  25.902   5.876  33.353 -0.3740  0.2103  0.0630
46178W        W54978  11.063   3.105  11.813  0.1768  0.3512 -0.0172
46179W        W54979  18.039   3.075  28.772 -0.1826  0.0993 -0.2218
46180W        W54980   8.837   3.995  21.699  0.0262  0.2888 -0.1211
46181W        W54981  11.712   0.498  23.967  0.1452  0.0204 -0.1714
46182W        W54982  21.171   6.284   2.692 -0.1672  0.1240 -0.0603
46183W        W54983  21.510   5.549  11.421 -0.1764 -0.3317 -0.2702
46184W        W54984  11.762   0.421  23.471 -0.0797 -0.0971 -0.2590
46185W        W54985  16.677   3.991  28.555 -0.0351  0.0063 -0.0051
46186W        W54986  13.422   2.844   7.103  0.0630 -0.2229 -0.2042
46187W        W54987  22.622   4.965  31.264 -0.1363  0.1787  0.0490
46188W        W54988  16.549   5.438  30.153  0.0450  0.2578  0.2731
46189W        W54989   4.605   2.243  10.190  0.1354  0.3197 -0.2132
46190W        W54990   0.761   6.119  13.802 -0.2005 -0.2374  0.0014
46191W        W54991  13.083   2.575  22.951 -0.2028  0.1189 -0.1503
46192W        W54992  20.295   6.120   9.116 -0.1100 -0.0530 -0.0070
46193W        W54993   4.664   3.827   1.995  0.0559 -0.4557 -0.0295
46194W        W54994  10.864   4.949  12.855 -0.1946 -0.0709  0.1735
46195W        W54995  23.544   6.368   8.477 -0.3989 -0.0177 -0.1352
46196W        W54996   9.958   2.701  12.057  0.3992 -0.1796 -0.0501
46197W        W54997  13.813   1.889  12.047  0.0468  0.1963  0.3706
46198W        W54998  15.372   3.429  23.268  0.0519  0.1369  0.0901
46199W        W54999   5.025   3.483  32.071  0.0052  0.1094 -0.0306
46200W        W55000  17.042   2.983  23.581 -0.0177 -0.1568  0.1251
46201W        W55001  13.973   1.389  11.991 -0.2333  0.1338 -0.2440
46202W        W55002   9.003   3.160  10.866 -0.1182 -0.0511  0.1383
46203W        W55003  19.661   3.741  22.443  0.0009 -0.0534  0.2631
46204W        W55004  15.951   6.005   1.612  0.1437 -0.4615  0.0559
46205W        W55005   4.050   1.852   4.447  0.1255 -0.2878  0.1562
46206W        W55006  19.270   6.121   7.427 -0.3748  0.0209  0.3022
46207W        W55007  15.229   5.722  32.905 -0.0942  0.1276  0.0945
46208W        W55008   7.685   5.925  24.244 -0.1153  0.1122 -0.1151
46209W        W55009   7.851   2.926  20.837 -0.0793 -0.0834  0.2095
46210W        W55010  26.006   1.320  21.488 -0.0838 -0.0833 -0.1421
46211W        W55011   3.996   3.495  29.670  0.2755  0.1019 -0.1143
46212W        W55012   6.222   0.778  13.251 -0.0301  0.1884  0.0266
46213W        W55013  25.401   3.735   6.692  0.0093  0.0666  0.1321
46214W        W55014   8.291   4.575  24.821  0.0693  0.3888  0.2597
46215W        W55015   6.576   0.430  25.188 -0.0804  0.2986  0.0679
46216W        W55016   7.453   6.350   6.125  0.0623 -0.1117  0.0692
46217W        W55017  25.207   6.260   9.182 -0.0518  0.1465  0.0389
46218W        W55018   6.047   4.337  12.443  0.0169 -0.0948  0.1659
46219W        W55019  22.898   5.220  29.836  0.0396  0.0559 -0.0265
46220W        W55020   4.129   2.476  26.360  0.2417 -0.1289 -0.1259
46221W        W55021  21.588   6.345  15.706 -0.1068  0.3259 -0.2169
46222W        W55022   5.501   2.620  34.631 -0.0015 -0.0680  0.0685
46223W        W55023   4.703   3.640   6.106 -0.0565  0.0048 -0.0193
46224W        W55024  25.582   2.661  28.547 -0.0172 -0.0275 -0.0788
46225W        W55025  13.873   1.690  32.275 -0.2252  0.0996 -0.0006
46226W        W55026  19.824   3.905  25.558 -0.1759 -0.1512 -0.3892
46227W        W55027  10.470   4.299   7.148 -0.0650 -0.0949 -0.1563
46228W        W55028  24.563   1.845  30.580 -0.0869 -0.0028  0.1296
46229W        W55029   3.138   1.828  26.368 -0.1767  0.0004 -0.1479
46230W        W55030   8.389   3.210  14.669  0.0248 -0.0352 -0.0277
46231W        W55031  18.530   4.852   6.981 -0.0146 -0.0513  0.0323
46232W        W55032   3.355   0.118  21.538 -0.2342 -0.3255  0.0890
46233W        W55033  15.947   4.943   1.263 -0.0895 -0.1071 -0.0288
46234W        W55034  14.475   0.026  13.326  0.1140  0.0131  0.1761
46235W        W55035  23.433   5.558  22.776  0.0509  0.2439  0.0339
46236W        W55036  11.465   1.429  14.381 -0.0878 -0.0422 -0.0449
46237W        W55037   9.299   2.169   9.828  0.2139 -0.2761  0.2923
46238W        W55038   4.836   6.350   4.856  0.0395 -0.0967  0.0417
46239W        W55039  11.908   5.241  22.091  0.1281  0.1540  0.0256
46240W        W55040  25.949   4.404  35.557 -0.3918  0.0618 -0.1830
46241W        W55041  16.182   5.939   2.146  0.2339 -0.1177  0.2233
46242W        W55042  21.390   3.719  13.214  0.3570  0.1268 -0.2024
46243W        W55043   4.665   3.097  23.802 -0.0734 -0.2656  0.3044
46244W        W55044  16.130   4.721  24.928 -0.1669  0.0253  0.2052
46245W        W55045  20.546   1.944   1.789 -0.0027 -0.2916  0.0980
46246W        W55046  24.149   1.134   9.125  0.0766 -0.2871 -0.0998
46247W        W55047  15.198   5.434  10.215  0.1628 -0.1696  0.0549
46248W        W55048  25.751   3.344  11.502  0.1436  0.1431 -0.0902
46249W        W55049   6.652   1.649  30.402 -0.3071 -0.0343 -0.1526
46250W        W55050  20.500   0.112   7.899 -0.0022  0.1179  0.0847
46251W        W55051  16.635   1.834  20.753 -0.1528  0.1385  0.4118
46252W        W55052   6.629   2.276  10.618  0.0611  0.0491 -0.1318
46253W        W55053  14.475   0.080  31.753  0.0201 -0.0619  0.0765
46254W        W55054  16.154   6.347  35.483  0.2334  0.2409  0.0329
46255W        W55055  23.996   4.644  34.701  0.1158 -0.2757  0.1722
46256W        W55056   5.663   0.493  33.921  0.1417 -0.2691 -0.2115
46257W        W55057  14.097   5.407  34.199 -0.0025  0.0441 -0.2306
46258W        W55058  21.583   4.080  24.984  0.3489  0.1549  0.3441
46259W        W55059  17.032   1.876  30.813 -0.0200 -0.0253  0.0804
46260W        W55060   5.891   1.457  35.018 -0.0511 -0.1082 -0.0489
46261W        W55061  14.614   6.317   4.769  0.0047  0.2879  0.2811
46262W        W55062   9.443   6.005   2.187  0.0683 -0.1150  0.1805
46263W        W55063  14.682   5.694   9.823  0.1108  0.0144 -0.1690
46264W        W55064  16.389   4.133  30.159 -0.2350  0.1746 -0.0913
46265W        W55065   2.490   0.621  23.922  0.0909 -0.0092  0.1552
46266W        W55066  12.591   6.601   1.149  0.0830 -0.1790 -0.1365
46267W        W55067  14.552   0.010   6.071  0.0813  0.0287  0.0996
46268W        W55068  23.227   6.358  14.627  0.0486  0.1513 -0.0306
46269W        W55069  20.193   3.273  33.950 -0.1016 -0.0814  0.1803
46270W        W55070  21.334   2.945   8.064 -0.2997 -0.1236  0.3048
46271W        W55071   9.790   1.438   3.651 -0.0471  0.2973 -0.1394
46272W        W55072  25.069   2.012   8.208 -0.1057  0.1877  0.0301
46273W        W55073  20.271   3.009  12.405 -0.3132  0.0354  0.0062
46274W        W55074   5.319   4.164  34.210 -0.0614  0.0254  0.1177
46275W        W55075  19.695   0.177  25.183  0.1064 -0.1002  0.1491
46276W        W55076   7.631   6.535  23.296  0.0296  0.1321 -0.0390
46277W        W55077   5.691   0.338  25.844  0.0121  0.0540 -0.0970
46278W        W55078  13.639   4.529  15.174  0.1159 -0.2755 -0.0257
46279W        W55079  25.560   0.011   9.038  0.0740  0.0107  0.0965
46280W        W55080   3.799   6.259  28.119 -0.0439  0.0796  0.1312
46281W        W55081   0.945   1.633  19.630 -0.0447  0.0381 -0.0488
46282W        W55082   9.912   5.647   7.550  0.0499 -0.0073 -0.3596
46283W        W55083  21.733   2.157  29.189 -0.2781 -0.2437  0.0498
46284W        W55084  12.979   1.297  25.359 -0.2280  0.0094 -0.0640
46285W        W55085  22.311   0.607   4.131 -0.3058 -0.0918 -0.0210
46286W        W55086  16.426   3.464  22.110  0.1453  0.1451 -0.1976
46287W        W55087  25.975   2.315   6.391 -0.3199 -0.0074  0.0362
46288W        W55088  11.976   3.604   5.481 -0.1681  0.0267 -0.1394
46289W        W55089  13.202   2.486   9.480  0.2870 -0.0032 -0.2857
46290W        W55090   2.468   0.796  25.347  0.5378 -0.0618 -0.1386
46291W        W55091  17.818   5.190  25.357  0.0438  0.1408  0.1181
46292W        W55092   1.199   1.109   4.836 -0.3967 -0.0128 -0.1919
46293W        W55093  14.219   3.681  25.070  0.0340  0.3219 -0.0008
46294W        W55094  17.699   1.832  14.454 -0.0717 -0.3331  0.0528
46295W        W55095   7.721   5.371   5.130 -0.3726  0.2158  0.2371
46296W        W55096  15.143   1.533  15.367  0.0850 -0.4728  0.3042
46297W        W55097  19.314   3.415  35.750  0.0123 -0.0941  0.1818
46298W        W55098  21.602   0.142  36.013 -0.0215 -0.0687  0.5070
46299W        W55099  15.994   0.169  23.812 -0.0804 -0.0103 -0.0365
46300W        W55100  20.932   6.495   5.597  0.1032  0.1480 -0.2260
46301W        W55101  20.027   2.559   2.029 -0.0496  0.0901 -0.2931
46302W        W55102  21.080   4.341   5.985  0.1396 -0.1012  0.4478
46303W        W55103   0.009   3.087  22.808  0.3554  0.3951  0.0029
46304W        W55104  16.922   0.671  26.048 -0.0022  0.1441  0.1263
46305W        W55105  13.014   5.146   2.601  0.1761  0.1279 -0.0040
46306W        W55106  13.032   4.884   5.569 -0.0166  0.0648 -0.0084
46307W        W55107  18.774   5.929   9.103 -0.1234  0.0026 -0.2546
46308W        W55108  24.830   2.762   6.715 -0.0351  0.0414  0.1683
46309W        W55109  25.423   3.586   8.661 -0.1074  0.0545  0.2901
46310W        W55110   2.057   0.660   5.781 -0.2221 -0.2064 -0.0890
46311W        W55111   0.109   3.090   6.678  0.2151 -0.1747 -0.0715
46312W        W55112  21.759   0.353  10.782 -0.3186 -0.0392 -0.0100
46313W        W55113  12.699   3.372  35.571 -0.2647  0.0597  0.1953
46314W        W55114  16.422   1.908   9.667  0.1071  0.1005 -0.0443
46315W        W55115   9.133   2.434   4.829 -0.0413  0.0221  0.1879
46316W        W55116   6.461   0.259  12.048  0.3934 -0.0508  0.0557
46317W        W55117  18.247   3.145  33.813 -0.0745  0.0818  0.0233
46318W        W55118  19.916   0.549  14.637 -0.4329 -0.0193  0.3612
46319W        W55119  25.000   0.707  28.974 -0.1376  0.2156 -0.2174
46320W        W55120   8.706   4.007  29.165  0.0118 -0.4555  0.0008
46321W        W55121  20.213   5.597  13.905  0.1718  0.1222 -0.1322
46322W        W55122   3.674   0.731  11.256 -0.1035  0.0677  0.1319
46323W        W55123  20.705   2.036  27.922  0.3096  0.2597  0.1523
46324W        W55124   4.455   1.270  33.435  0.0286 -0.1988  0.1638
46325W        W55125  23.948   0.334   4.876 -0.2160 -0.2078  0.2867
46326W        W55126   8.088   4.347   5.441  0.0053  0.6552 -0.2596
46327W        W55127  15.478   0.695  13.387 -0.0781  0.1146 -0.0625
46328W        W55128  23.946   2.744  25.605  0.1909  0.1634 -0.0545
46329W        W55129   8.807   2.617  23.363  0.0351  0.1766 -0.2156
46330W        W55130  16.307   1.140  12.406  0.2592  0.1666  0.1794
46331W        W55131  10.686   3.811  32.057 -0.1313  0.0702 -0.0044
46332W        W55132  21.413   1.868  21.992 -0.3157 -0.1269 -0.1390
46333W        W55133   2.618   3.936  32.366  0.0037 -0.1161 -0.1060
46334W        W55134  10.545   2.339  14.581 -0.3747  0.0071 -0.2232
46335W        W55135   5.295   4.388   4.967  0.3150  0.1241  0.2118
46336W        W55136  23.486   3.882  27.884  0.0660 -0.2133 -0.0535
46337W        W55137   8.780   5.792   0.472 -0.0827 -0.2673  0.0087
46338W        W55138  21.615   2.522  23.200  0.0548  0.1679 -0.0678
46339W        W55139  20.213   0.414  15.118  0.2713  0.3306 -0.2218
46340W        W55140   7.679   5.161   4.193  0.1451 -0.5050 -0.1053
46341W        W55141   1.420   1.815  25.980  0.0671 -0.1816  0.3438
46342W        W55142  25.662   3.607  34.958 -0.1927  0.0043 -0.0443
46343W        W55143   7.917   1.156   2.363  0.0824 -0.2109 -0.1843
46344W        W55144  25.365   1.957  10.611  0.1622 -0.1361  0.2737
46345W        W55145   6.392   1.598  26.926  0.1605  0.0065 -0.1845
46346W        W55146   4.133   3.669   8.770 -0.2824  0.1351  0.3015
46347W        W55147   5.339   4.347  12.657 -0.2146  0.0115 -0.0836
46348W        W55148   1.907   0.076   4.668 -0.0145 -0.2126 -0.0284
46349W        W55149  12.989   3.247  24.369  0.1136  0.3384  0.0510
46350W        W55150  19.109   2.622  11.481 -0.1849 -0.1320  0.1609
46351W        W55151  20.053   5.544   1.426  0.1736  0.0311  0.2064
46352W        W55152  15.421   6.004  29.301  0.1093  0.0262 -0.3284
46353W        W55153  20.075   2.062  32.259  0.3185 -0.1786 -0.0473
46354W        W55154  13.310   0.130  35.570  0.2044  0.1227 -0.1773
46355W        W55155   6.215   5.511  12.406 -0.0902  0.1745 -0.1811
46356W        W55156  25.670   4.487  14.707  0.5182 -0.2662 -0.0795
46357W        W55157   9.515   6.112  33.967 -0.0217  0.1213  0.0608
46358W        W55158  18.381   6.086  29.078 -0.2801 -0.2082 -0.5069
46359W        W55159   1.907   4.482   7.684 -0.1292  0.0256  0.0848
46360W        W55160  12.617   5.124  35.464 -0.2607 -0.1769  0.2410
46361W        W55161  10.670   0.495  33.173 -0.0974  0.3144  0.0994
46362W        W55162   3.727   3.911   5.675 -0.1325 -0.1792 -0.0580
46363W        W55163   3.800   5.097  30.497  0.1086  0.0053  0.1148
46364W        W55164  22.629   4.312  26.434 -0.1576  0.1409  0.1270
46365W        W55165  21.792   3.505  14.570 -0.0821  0.0807 -0.1593
46366W        W55166   3.368   3.236  24.023  0.1304  0.0527 -0.1227
46367W        W55167   3.473   2.471   8.080 -0.0510 -0.1099  0.0440
46368W        W55168   3.171   4.885   3.327  0.0195  0.1279  0.1265
46369W        W55169  23.783   2.289   1.250 -0.0970  0.2462  0.2950
46370W        W55170  19.201   5.798  28.067  0.4680  0.2151 -0.0839
46371W        W55171  21.950   1.834  27.046  0.1887 -0.2021 -0.1982
46372W        W55172  21.448   0.894  31.527 -0.0192 -0.1367 -0.1617
46373W        W55173   4.791   1.507   6.585 -0.0250 -0.0596 -0.2689
46374W        W55174  16.526   3.640  27.427 -0.0671 -0.0569 -0.0115
46375W        W55175  22.588   3.122  30.202 -0.0426 -0.0340 -0.1122
46376W        W55176  23.866   5.389   8.147 -0.1474  0.0003 -0.2650
46377W        W55177  14.019   3.777  26.412 -0.2971 -0.2181  0.0869
46378W        W55178   9.712   0.789  33.018 -0.3030  0.2188 -0.1283
46379W        W55179  25.502   3.894  26.141  0.1305 -0.1487 -0.0529
46380W        W55180  16.486   4.860  13.942 -0.2000  0.0866 -0.0685
46381W        W55181  12.396   1.360  26.800  0.0249 -0.1729 -0.1782
46382W        W55182   9.650   2.785   5.411  0.0089  0.0162 -0.2361
46383W        W55183  25.044   5.412   3.963 -0.0179 -0.1320 -0.0351
46384W        W55184  20.464   5.015  26.425  0.1873  0.0296 -0.1829
46385W        W55185  13.413   2.438  11.606  0.0228  0.1528  0.0010
46386W        W55186  24.196   5.391  14.166  0.3248  0.2572  0.0702
46387W        W55187  19.976   4.554  15.307 -0.1609 -0.1675  0.3070
46388W        W55188   8.969   2.470  15.108  0.0793 -0.0329 -0.0200
46389W        W55189  13.990   0.065  33.914 -0.0800  0.1859 -0.1365
46390W        W55190  24.237   5.371   4.661 -0.0900 -0.2965 -0.0500
46391W        W55191  18.393   3.151   9.749  0.3324  0.1895  0.1690
46392W        W55192   5.065   3.792   1.604  0.0601  0.0897  0.0891
46393W        W55193   2.883   3.652  25.763  0.3393  0.0138 -0.0455
46394W        W55194  18.039   6.267   8.751  0.1008 -0.0068  0.1543
46395W        W55195  13.893   6.036   2.104  0.4168  0.0025 -0.1661
46396W        W55196  11.229   2.304   0.161  0.0127 -0.1947 -0.0707
46397W        W55197   2.982   5.767  23.889 -0.3391  0.1466 -0.0841
46398W        W55198  23.045   0.863  11.733 -0.3046  0.0748 -0.0080
46399W        W55199  14.350   2.113   6.037  0.0009 -0.2910 -0.1014
46400W        W55200   7.485   5.224   9.653  0.2188 -0.4659 -0.5066
46401W        W55201   1.374   3.158  13.494  0.2206 -0.0266 -0.0729
46402W        W55202  17.091   6.000  14.037  0.1948  0.2563  0.0294
46403W        W55203   3.070   5.417  34.693  0.1051 -0.1782 -0.0812
46404W        W55204   0.739   5.228  35.995 -0.1877  0.1452  0.1887
46405W        W55205  25.865   3.962   7.981 -0.1423 -0.3039 -0.1247
46406W        W55206  22.883   4.400  34.973  0.1468 -0.2124 -0.2760
46407W        W55207  11.250   5.134  29.214 -0.0236  0.3305 -0.2478
46408W        W55208  19.354   2.746  22.376  0.1481  0.0915  0.1175
46409W        W55209  16.041   5.151  35.051 -0.0510  0.0618  0.2812
46410W        W55210   5.348   1.228   8.622 -0.0222  0.2180 -0.1017
46411W        W55211  24.089   1.766  20.957 -0.0676  0.3312 -0.1360
46412W        W55212  21.239   5.992  29.043 -0.1595 -0.0510 -0.0670
46413W        W55213  10.125   1.248  30.107 -0.1779  0.1351 -0.3792
46414W        W55214   2.317   5.109   9.022  0.1024  0.2169  0.0926
46415W        W55215  23.521   4.518   2.926  0.2075  0.2507 -0.0543
46416W        W55216   3.675   3.738  35.077 -0.2186  0.0196  0.1709
46417W        W55217   9.632   4.728  12.479  0.0407 -0.0908  0.3550
46418W        W55218  21.409   3.549   5.780 -0.0810 -0.1703  0.0184
46419W        W55219  10.765   4.451  28.766 -0.1511  0.0598 -0.0118
46420W        W55220   3.621   6.517   6.798  0.2830 -0.3361 -0.1674
46421W        W55221  22.887   1.452   1.293  0.0518 -0.0630 -0.3154
46422W        W55222  15.208   2.438  27.791  0.0016 -0.0371 -0.0414
46423W        W55223   5.536   2.728  23.826  0.0646  0.4559 -0.2086
46424W        W55224  15.595   3.678  34.568  0.2032  0.2936  0.0619
46425W        W55225  23.465   3.743   7.690 -0.3768  0.0651 -0.4452
46426W        W55226  24.182   2.199  28.172  0.0982 -0.2423  0.1151
46427W        W55227  16.877   4.713  24.239 -0.0025  0.0122 -0.1384
46428W        W55228   1.814   0.194  34.482 -0.1258  0.1182 -0.0380
46429W        W55229  16.118   6.215  26.175  0.0913 -0.4643 -0.1636
46430W        W55230   9.639   1.329  12.538  0.0349  0.1034  0.0138
46431W        W55231  18.359   1.758  25.059 -0.0626  0.1108 -0.0985
46432W        W55232  25.437   2.259  33.441  0.2602  0.1039  0.0686
46433W        W55233   4.357   0.275  33.780 -0.1357 -0.3311  0.3684
46434W        W55234  19.473   1.871   8.375  0.0118  0.0652  0.2996
46435W        W55235  11.557   6.524   8.012  0.1852 -0.0820  0.0593
46436W        W55236  18.964   4.465   5.055  0.0363  0.1873 -0.0947
46437W        W55237  15.239   4.698  12.299  0.2794 -0.3540 -0.0449
46438W        W55238  15.534   3.914  25.177  0.1234  0.1512  0.0449
46439W        W55239  19.207   0.096  21.352  0.1364 -0.0959 -0.1381
46440W        W55240   6.224   2.850   6.619  0.2354  0.0491 -0.0673
46441W        W55241   7.962   0.192  29.378 -0.1731  0.0401 -0.0712
46442W        W55242  18.579   3.135  11.304  0.4333  0.0299  0.0526
46443W        W55243  18.584   2.622  25.430 -0.0538  0.2991 -0.1140
46444W        W55244   9.185   2.602  30.401  0.2101  0.2226  0.3081
46445W        W55245   8.521   5.616  10.634  0.0197  0.0649  0.0169
46446W        W55246  11.350   3.948  33.495 -0.0546 -0.0063  0.2918
46447W        W55247  12.342   1.423   2.041  0.2027  0.0986 -0.0287
46448W        W55248  13.511   1.180  34.970  0.2799  0.3231 -0.2329
46449W        W55249  16.395   0.332  25.130  0.0254 -0.0919 -0.0669
46450W        W55250  24.033   6.412  27.926  0.3824  0.0172  0.0158
46451W        W55251  20.787   6.417  27.685  0.3344 -0.0839  0.2390
46452W        W55252  16.912   6.282  34.085 -0.0648  0.0938 -0.1234
46453W        W55253  15.809   6.162  11.320  0.2279 -0.2825  0.2835
46454W        W55254  23.151   2.888   9.297 -0.0119  0.2486 -0.1175
46455W        W55255  19.881   1.215   0.879 -0.0740  0.0131 -0.1247
46456W        W55256  24.217   0.676  31.410 -0.0171  0.0094 -0.0417
46457W        W55257   2.554   6.122  31.106  0.1008 -0.1501 -0.0004
46458W        W55258  13.695   2.363   3.773  0.4694 -0.0879 -0.0293
46459W        W55259   1.048   5.115  31.793  0.1555 -0.1141 -0.0153
46460W        W55260  21.449   3.456   9.757  0.2567 -0.2062 -0.2091
46461W        W55261  11.488   1.838  23.633 -0.2986 -0.0418 -0.2719
46462W        W55262   8.928   4.392  10.960  0.2002 -0.0387 -0.0765
46463W        W55263  16.272   1.725  22.812  0.1157  0.2905  0.2095
46464W        W55264  19.275   5.535  34.252  0.0576  0.1718 -0.1643
46465W        W55265  19.952   1.661  24.717  0.0630 -0.2140  0.2954
46466W        W55266   9.935   6.348  32.137 -0.0316  0.2439  0.0116
46467W        W55267  23.324   6.419  28.128  0.3138  0.3030  0.1530
46468W        W55268   4.899   4.846  15.371  0.0033  0.1175 -0.0046
46469W        W55269   0.459   2.889  11.674  0.0256  0.0039  0.1841
46470W        W55270  22.260   4.518   4.156 -0.0827 -0.0235  0.1016
46471W        W55271  12.822   3.253  36.038  0.0506 -0.1881 -0.0471
46472W        W55272  17.936   0.873   8.902  0.3662  0.0912  0.0394
46473W        W55273  11.802   6.037  35.267 -0.0247 -0.2407  0.0916
46474W        W55274   7.886   2.665  30.154 -0.0372  0.1171 -0.1893
46475W        W55275  15.559   3.338  11.548 -0.2096 -0.0690  0.0719
46476W        W55276   7.073   1.059  26.629  0.1520 -0.0953 -0.2829
46477W        W55277   7.750   5.106  23.373 -0.2318 -0.2352 -0.0255
46478W        W55278   3.395   6.169  27.778 -0.1646 -0.0035  0.0582
46479W        W55279  25.523   1.486  23.495  0.3168 -0.2228 -0.1784
46480W        W55280   7.691   1.413  30.383  0.4011 -0.3289  0.1450
46481W        W55281  17.330   1.241   1.247  0.0971 -0.1207  0.1834
46482W        W55282   1.761   3.283   7.895  0.0247  0.1308 -0.1082
46483W        W55283   5.487   2.231   1.068  0.1829  0.2036 -0.0563
46484W        W55284   1.712   2.777  23.314  0.0849 -0.1965  0.4180
46485W        W55285  19.203   1.432   7.540 -0.3257 -0.0329  0.1569
46486W        W55286   5.786   5.977   4.006 -0.1772 -0.2286  0.1845
46487W        W55287  26.033   6.608  27.796  0.2850  0.4062 -0.3487
46488W        W55288   1.571   2.213  13.126 -0.0228 -0.2404 -0.0918
46489W        W55289   8.353   3.533   7.412  0.2451  0.1428  0.0243
46490W        W55290   8.643   5.195   5.212  0.2237 -0.3494 -0.0522
46491W        W55291   9.979   5.931  25.910  0.2176 -0.2607 -0.3188
46492W        W55292  25.096   6.098  11.274  0.0836 -0.1599  0.3662
46493W        W55293  12.915   0.092  23.485  0.0235 -0.2913 -0.1075
46494W        W55294  21.968   4.459  30.839  0.3648  0.4504 -0.1254
46495W        W55295   8.638   2.413   5.453 -0.1681  0.2389 -0.0621
46496W        W55296  18.013   6.477  11.269  0.1536 -0.1584  0.0848
46497W        W55297  17.070   1.006   7.215  0.0389  0.0003 -0.1385
46498W        W55298   7.082   1.309  23.972 -0.1049 -0.1938 -0.1813
46499W        W55299   3.932   3.105   5.876 -0.0475  0.2131  0.0758
46500W        W55300   6.064   5.936  33.544  0.1447  0.0647 -0.1827
46501W        W55301  22.258   5.630  23.410 -0.3745  0.0030  0.2988
46502W        W55302  14.049   3.985   3.285 -0.0525  0.0083 -0.0976
46503W        W55303  24.932   1.401  31.315 -0.0573 -0.0811  0.1819
46504W        W55304   6.712   1.341   3.863 -0.3223 -0.0561 -0.0905
46505W        W55305  21.449   3.353  23.385 -0.0365 -0.0554  0.2217
46506W        W55306  20.295   1.442  32.787  0.2134  0.3712  0.2971
46507W        W55307  17.188   4.654  28.503 -0.2951 -0.1344  0.1482
46508W        W55308  24.382   5.724   5.077  0.2245  0.0791 -0.3181
46509W        W55309   0.153   0.911   4.136 -0.0832  0.2028  0.0932
46510W        W55310   5.484   3.143  21.627  0.0415 -0.0590  0.2671
46511W        W55311   2.405   1.453  26.689  0.0694 -0.1943 -0.1295
46512W        W55312  16.876   2.924   5.099 -0.0329  0.0632 -0.0754
46513W        W55313  12.647   4.214   6.560 -0.1498 -0.0307  0.0905
46514W        W55314  23.363   2.969  10.389 -0.1972  0.1364  0.1005
46515W        W55315  10.079   5.311  14.934  0.3325  0.4535 -0.0542
46516W        W55316  17.217   2.803  13.447  0.2339 -0.1600 -0.1250
46517W        W55317  24.924   2.213  34.225  0.1002 -0.4918 -0.1130
46518W        W55318  19.495   4.524  29.576 -0.0738 -0.2197  0.1157
46519W        W55319  21.439   2.478  25.672  0.0849  0.0533 -0.3214
46520W        W55320  16.174   0.776  32.905  0.0007  0.0649 -0.0416
46521W        W55321   2.204   6.034  24.422 -0.2064  0.2664  0.0269
46522W        W55322  21.494   1.852   4.432 -0.2046 -0.0228 -0.0445
46523W        W55323  21.786   3.449  30.437  0.1128  0.2181  0.4386
46524W        W55324  24.751   4.212   5.090 -0.1687  0.0369  0.0219
46525W        W55325  26.223   2.393   7.730 -0.0985  0.0508 -0.1079
46526W        W55326   0.110   5.513  21.248 -0.1848 -0.2787 -0.1715
46527W        W55327   3.895   0.646  29.226  0.3059 -0.3087  0.0651
46528W        W55328   4.976   6.232  12.871  0.2821  0.2216  0.2209
46529W        W55329   6.970   1.697  27.769 -0.2062  0.2353  0.4518
46530W        W55330   6.939   0.243  27.960 -0.1914 -0.1208 -0.0284
46531W        W55331   7.427   6.134  34.993  0.1327  0.4091 -0.3056
46532W        W55332  21.412   3.175   2.262 -0.1524 -0.0480 -0.3928
46533W        W55333   4.075   6.184   0.793  0.2403  0.0629 -0.3149
46534W        W55334  12.762   2.745  28.234  0.0203 -0.2048 -0.1171
46535W        W55335  11.871   5.809  14.398  0.2212 -0.0396  0.1782
46536W        W55336   3.555   5.659  14.727 -0.2838 -0.1404  0.0401
46537W        W55337   7.829   5.285  35.364  0.1051 -0.2848 -0.2221
46538W        W55338  14.049   2.141   4.554  0.2105  0.2789  0.1549
46539W        W55339  20.757   1.417  12.905  0.0142 -0.0185  0.0812
46540W        W55340   2.367   5.404   3.221 -0.1341 -0.5091 -0.1384
46541W        W55341  17.592   3.564  24.673  0.0528 -0.0567 -0.1921
46542W        W55342   3.016   0.861  27.439 -0.2618  0.0801  0.2918
46543W        W55343   1.060   0.759   1.236 -0.1054  0.1452  0.0713
46544W        W55344  19.150   5.730  30.884  0.1177 -0.0097  0.2260
46545W        W55345  10.855   0.528   1.657 -0.1168  0.0198 -0.2850
46546W        W55346   4.056   0.401  36.174  0.0066  0.0773  0.1176
46547W        W55347   3.529   1.926  24.209  0.1162  0.1615  0.0653
46548W        W55348  21.670   1.115  30.906  0.1397 -0.0388 -0.0377
46549W        W55349   6.111   2.757   8.849  0.0221 -0.0650  0.1979
46550W        W55350  12.042   4.559  31.523 -0.0959  0.0116  0.2237
46551W        W55351  26.348   3.252   5.670  0.0457  0.1118  0.3657
46552W        W55352   7.388   3.345  10.444 -0.3493 -0.0521  0.1059
46553W        W55353  10.859   1.266  29.684 -0.1201 -0.1997 -0.0945
46554W        W55354  25.049   4.920  10.131  0.3983 -0.0914 -0.1187
46555W        W55355  19.622   4.589   7.712 -0.0598 -0.1130 -0.1402
46556W        W55356  19.303   4.989  29.617  0.1840  0.0444  0.2296
46557W        W55357   3.421   4.852  26.157 -0.1349 -0.2703 -0.1673
46558W        W55358  10.032   5.316   2.108 -0.2695 -0.0918  0.0419
46559W        W55359   1.973   4.684   7.203  0.1867  0.0358 -0.0639
46560W        W55360   9.669   3.069  28.370  0.0947 -0.1070 -0.1117
46561W        W55361  15.358   1.418   8.616 -0.2595 -0.0674 -0.0199
46562W        W55362  24.677   6.155  13.846  0.0410 -0.0879  0.0289
46563W        W55363  24.565   3.073  21.290 -0.1750 -0.1279  0.2887
46564W        W55364   0.439   4.658  11.226  0.1682  0.0535  0.0728
46565W        W55365  24.029   5.119  32.070 -0.2807 -0.0664  0.1260
46566W        W55366   7.495   2.637   3.753  0.1754  0.0650  0.1722
46567W        W55367  23.412   1.650  32.288 -0.3666 -0.0659 -0.1148
46568W        W55368   3.334   5.628  12.510 -0.0641  0.1224 -0.2051
46569W        W55369   1.019   3.495  25.045 -0.2009  0.1500 -0.0710
46570W        W55370  12.437   4.067   7.008  0.1805  0.2571 -0.1403
46571W        W55371  16.264   4.107  28.293  0.4377  0.0918 -0.3241
46572W        W55372  24.239   5.289  35.175  0.2778  0.3072  0.0021
46573W        W55373  12.968   4.401  25.031  0.0276  0.2679  0.1986
46574W        W55374  11.414   1.013   1.455  0.0739 -0.5571 -0.4449
46575W        W55375   9.523   2.101  34.253  0.1387 -0.1089  0.1709
46576W        W55376  10.881   3.609  32.552  0.2124  0.1455  0.1710
46577W        W55377  18.288   3.326  28.005 -0.1551 -0.0759  0.1874
46578W        W55378  23.094   1.421   2.160 -0.1868 -0.0227 -0.1169
46579W        W55379  18.203   3.091  26.669  0.1941  0.0524  0.0134
46580W        W55380  25.470   5.402  25.138  0.1415 -0.1726  0.0407
46581W        W55381  24.163   0.600  35.422 -0.3612 -0.1859 -0.2626
46582W        W55382   8.011   3.290  29.362 -0.2445 -0.2676 -0.2212
46583W        W55383   3.993   5.823  29.541  0.0719  0.4892 -0.0397
46584W        W55384  24.077   4.160   5.079 -0.0401 -0.2571 -0.0056
46585W        W55385  17.580   1.028  27.985 -0.1489  0.1767  0.0724
46586W        W55386  13.997   6.137  24.160  0.1666  0.0051  0.4085
46587W        W55387   4.504   2.399  11.586 -0.0921  0.3294 -0.1499
46588W        W55388  20.312   4.113  30.720 -0.1698 -0.4189  0.0185
46589W        W55389  15.500   2.633  28.974 -0.1946 -0.2007 -0.3394
46590W        W55390  11.210   3.852  34.001  0.0772  0.0527 -0.0620
46591W        W55391   9.271   0.825  23.667 -0.0032 -0.0550  0.0434
46592W        W55392  25.013   1.008   2.215 -0.0812  0.2564 -0.1025
46593W        W55393  19.692   2.157  14.565 -0.1196  0.2167  0.1991
46594W        W55394  18.282   3.438  30.006 -0.1199  0.1478  0.2214
46595W        W55395  17.729   1.258  11.269  0.0714  0.0741 -0.1639
46596W        W55396  16.040   4.172  21.738 -0.1555  0.0359 -0.0792
46597W        W55397  26.089   0.450  11.189  0.1059  0.1343 -0.0432
46598W        W55398  15.874   0.348  24.283 -0.0489  0.0197 -0.2544
46599W        W55399  11.588   2.814  30.243  0.0832  0.1378  0.0112
46600W        W55400   4.588   1.659  34.284 -0.0599 -0.2324 -0.0478
46601W        W55401  13.486   3.079  14.007  0.2018 -0.0479  0.1528
46602W        W55402  20.971   3.915   1.975 -0.4033  0.1984 -0.2984
46603W        W55403  17.469   6.484  26.903 -0.0884  0.0873 -0.0667
46604W        W55404   9.052   5.614  27.390 -0.3017 -0.3235 -0.2366
46605W        W55405  12.383   0.457   0.091  0.0133 -0.0811 -0.1094
46606W        W55406   2.982   2.049  24.314 -0.0609 -0.2874  0.0464
46607W        W55407  21.885   4.750  10.388  0.1004 -0.3372  0.0741
46608W        W55408  10.386   3.336  34.433  0.1249  0.0788 -0.0784
46609W        W55409   2.768   5.922  14.830  0.2612 -0.1420 -0.1207
46610W        W55410  19.909   0.773  24.996  0.3315 -0.2119  0.1429
46611W        W55411  24.633   2.381  30.589 -0.0802 -0.0109 -0.2151
46612W        W55412   6.005   4.008  27.297 -0.0476 -0.3608 -0.0354
46613W        W55413  23.236   0.247  25.710  0.1741  0.0795 -0.1066
46614W        W55414   7.332   4.992  34.157 -0.1314  0.1168  0.0695
46615W        W55415   3.415   6.103   6.593 -0.2374 -0.0840 -0.0392
46616W        W55416   8.643   5.975  14.977 -0.3929  0.1868  0.3597
46617W        W55417  14.575   4.730  24.374 -0.0002 -0.0943  0.2044
46618W        W55418  23.487   5.273  20.749 -0.1862 -0.1783  0.2163
46619W        W55419  14.642   0.050   8.462  0.0862  0.2038 -0.0582
46620W        W55420  11.065   5.446  33.631 -0.2313  0.1467 -0.1137
46621W        W55421  15.063   4.884  35.720 -0.3349  0.2967 -0.2203
46622W        W55422  21.673   6.396  23.672 -0.0578 -0.2927  0.0776
46623W        W55423  11.923   3.032  32.623 -0.1806 -0.2134  0.0714
46624W        W55424  19.338   2.103  29.177 -0.0901 -0.2505 -0.0436
46625W        W55425   2.283   4.322   2.733 -0.1865 -0.0210 -0.1582
46626W        W55426  14.413   3.507  10.403  0.0151  0.1611 -0.2840
46627W        W55427  18.858   1.096   7.311  0.0039 -0.2783  0.0175
46628W        W55428   8.537   0.957  33.435 -0.1552 -0.0060  0.1199
46629W        W55429   8.711   4.646  26.551  0.2558 -0.0003  0.1435
46630W        W55430  20.485   5.920   3.673 -0.0493 -0.1083  0.1979
46631W        W55431   7.029   0.637   4.608 -0.0571  0.1485  0.1580
46632W        W55432  24.976   4.205   7.246  0.3026 -0.1668 -0.3537
46633W        W55433   1.282   0.729   0.717 -0.1006  0.0128 -0.0624
46634W        W55434   7.036   5.712  35.582  0.1023 -0.1512 -0.1634
46635W        W55435  11.533   3.953  23.199 -0.0755 -0.0709 -0.2175
46636W        W55436   1.186   3.276  30.708 -0.0459  0.0193 -0.2605
46637W        W55437  15.924   1.858   8.684 -0.1718 -0.0812  0.0845
46638W        W55438   3.637   6.133   1.433 -0.4574  0.0134  0.0042
46639W        W55439   4.865   6.518   4.299 -0.1743 -0.0947 -0.1136
46640W        W55440  23.695   5.916  15.477 -0.0329  0.4588 -0.0740
46641W        W55441   4.020   1.002  12.877 -0.0487 -0.1844  0.0746
46642W        W55442  13.034   0.381  26.125 -0.0039 -0.2035 -0.1261
46643W        W55443   2.259   0.883   3.435 -0.0144  0.0875  0.1630
46644W        W55444  14.729   3.864  12.772  0.3334  0.1308  0.1352
46645W        W55445   8.737   5.510  34.360  0.3329 -0.3995 -0.0560
46646W        W55446  11.520   4.374   5.010  0.0006 -0.0674 -0.0411
46647W        W55447  20.208   3.733  31.481 -0.0096 -0.3645 -0.1843
46648W        W55448  10.420   5.311  29.968  0.3004  0.2131 -0.3772
46649W        W55449  11.252   4.694  25.786  0.0121  0.0695 -0.2589
46650W        W55450  21.559   3.437   1.442 -0.1465 -0.0859 -0.1810
46651W        W55451   6.525   5.219  10.985 -0.1567 -0.1359 -0.2460
46652W        W55452  11.936   4.973  26.040 -0.1760  0.0651  0.0832
46653W        W55453  19.047   3.234   5.740 -0.2523 -0.1858  0.1547
46654W        W55454  11.405   0.078  30.931 -0.1319 -0.0576 -0.0562
46655W        W55455  11.671   3.469  23.306  0.0869  0.3195  0.1601
46656W        W55456  14.555   6.055  22.142  0.2036 -0.1376  0.1191
46657W        W55457  11.793   4.482  23.633  0.1045  0.5057  0.0213
46658W        W55458   0.729   6.497  26.470 -0.0081  0.1282 -0.1158
46659W        W55459  17.368   0.887  10.208  0.0061 -0.3212  0.2130
46660W        W55460  11.909   0.807   4.330  0.1565 -0.0548  0.0436
46661W        W55461  11.068   2.596  21.523 -0.0160 -0.2076 -0.0344
46662W        W55462  22.235   6.384  34.648  0.0318  0.1075  0.1860
46663W        W55463  17.796   5.015  14.287 -0.0388 -0.0702  0.2547
46664W        W55464  19.041   4.962  10.325  0.2982  0.0005  0.3765
46665W        W55465  15.667   1.321   0.614  0.0975  0.0867  0.2134
46666W        W55466   4.252   3.439   2.306  0.0419 -0.2015 -0.2209
46667W        W55467  10.310   1.616  32.361 -0.0531 -0.0904  0.0657
46668W        W55468   8.854   6.041  22.722  0.1131 -0.0403 -0.0350
46669W        W55469   2.225   4.809   3.096  0.0470  0.2472  0.2830
46670W        W55470   0.596   0.436  24.011  0.3819  0.1458 -0.0454
46671W        W55471   9.086   0.630  26.378 -0.2704  0.2912 -0.3617
46672W        W55472  22.598   1.193  29.033 -0.0029  0.2714 -0.2716
46673W        W55473   9.824   2.383  21.553  0.0567 -0.0588 -0.0205
46674W        W55474  19.889   6.221  14.215 -0.1424 -0.2098 -0.0879
46675W        W55475   5.090   4.316  10.879 -0.2401 -0.0389  0.1562
46676W        W55476  10.635   6.446  30.643  0.1705 -0.2158 -0.1561
46677W        W55477  11.065   3.818  22.442  0.1288  0.1747  0.2336
46678W        W55478   9.042   6.458  29.335  0.2034 -0.3341  0.1011
46679W        W55479   3.312   3.508  35.305  0.1332 -0.1059 -0.0305
46680W        W55480   8.632   0.899   3.911  0.0198 -0.0113  0.0485
46681W        W55481  25.875   0.505  26.341 -0.5474 -0.3414 -0.0710
46682W        W55482  10.565   0.193  25.140 -0.2499 -0.0590 -0.2885
46683W        W55483  19.072   5.410   0.617 -0.0578 -0.1200 -0.2979
46684W        W55484   1.205   0.825   7.888 -0.1554  0.0970  0.0236
46685W        W55485  18.869   4.052   5.480  0.0607 -0.0940  0.1293
46686W        W55486  10.217   0.698  23.301 -0.2417 -0.1710  0.1389
46687W        W55487  22.939   5.135  33.790 -0.0901  0.1045  0.0931
46688W        W55488  21.394   3.275  11.486 -0.4749  0.2069 -0.0035
46689W        W55489   1.105   0.199   0.593 -0.0863  0.3622 -0.0048
46690W        W55490   0.554   3.262   6.978  0.1223 -0.1800  0.1212
46691W        W55491  22.553   6.444  32.466 -0.3382  0.0323  0.0360
46692W        W55492  17.013   5.048  12.774 -0.0205 -0.1107 -0.1201
46693W        W55493  25.429   0.540   9.158 -0.1485  0.2481  0.0535
46694W        W55494   1.355   1.641   7.048 -0.1766  0.0310  0.0867
46695W        W55495  18.655   4.044   4.930  0.0389 -0.1587  0.1685
46696W        W55496   9.388   4.848   2.794 -0.4670  0.1482  0.1836
46697W        W55497  20.745   5.330  11.693  0.0280  0.0675 -0.2676
46698W        W55498   2.310   6.196  30.143 -0.2192  0.0907  0.2013
46699W        W55499  11.875   1.979  23.350  0.1067 -0.4017  0.1069
46700W        W55500  25.849   6.431   0.999  0.0704 -0.0724  0.2907
46701W        W55501  23.490   5.329  13.633  0.0076 -0.2273 -0.0487
46702W        W55502  20.402   4.059  11.258  0.0198  0.2147 -0.0190
46703W        W55503   9.606   5.768   6.105 -0.2771 -0.0690  0.0505
46704W        W55504   3.868   0.015  23.018  0.4319  0.1158  0.0322
46705W        W55505   5.550   5.752  29.226  0.1702 -0.1675  0.3916
46706W        W55506  21.935   4.753  29.303  0.2958 -0.0278  0.2178
46707W        W55507  26.110   6.455   5.177 -0.0088  0.2183  0.2060
46708W        W55508  12.186   1.954   7.475 -0.0326 -0.0589  0.1043
46709W        W55509  10.154   2.319  25.131  0.0422 -0.3111  0.0603
46710W        W55510  19.619   6.144  12.407 -0.1116  0.1461  0.1554
46711W        W55511   0.778   5.674   6.673  0.0987 -0.1062  0.0676
46712W        W55512  17.386   4.205  34.516 -0.0448 -0.1669  0.1631
46713W        W55513  16.119   6.552   6.407  0.0119  0.2337 -0.0744
46714W        W55514   1.909   4.476  30.665 -0.1751  0.0330 -0.0607
46715W        W55515   1.915   1.746  31.799  0.2551 -0.0267  0.3432
46716W        W55516  22.611   0.971  28.375 -0.0435 -0.1279 -0.0881
46717W        W55517  26.428   4.089  30.995 -0.0794  0.1474 -0.1057
46718W        W55518   4.873   5.704  13.158  0.1036 -0.4130  0.3538
46719W        W55519  23.106   1.778   1.755  0.2378 -0.2229  0.4182
46720W        W55520   6.499   1.421  25.989  0.0387  0.2101  0.0571
46721W        W55521  22.931   0.752  25.384 -0.1209 -0.1467  0.0003
46722W        W55522  24.298   5.980  27.536 -0.1047 -0.0703  0.1274
46723W        W55523  11.803   0.397  25.277 -0.4860  0.3224 -0.0811
46724W        W55524  21.405   2.654   2.510 -0.0324 -0.0053  0.1504
46725W        W55525   8.541   2.125   2.289  0.1447 -0.4245  0.3571
46726W        W55526   6.421   1.480   9.757 -0.0209 -0.2444 -0.2482
46727W        W55527  19.400   5.880  32.227  0.1186  0.1092  0.1838
46728W        W55528  16.150   2.950  22.599 -0.2495  0.2340  0.2948
46729W        W55529   3.471   1.537  13.343 -0.2186 -0.2741  0.1496
46730W        W55530  20.642   0.722   0.528  0.1050  0.2128 -0.0869
46731W        W55531   2.648   2.354  33.039 -0.1516  0.1124 -0.1972
46732W        W55532  20.898   0.633  28.824  0.3672  0.0207  0.0987
46733W        W55533  17.219   5.079  34.257  0.1575 -0.2357 -0.1387
46734W        W55534   9.509   3.960  28.866 -0.4852 -0.2348  0.1819
46735W        W55535   1.684   5.548   5.733  0.0605 -0.1387  0.0233
46736W        W55536   6.443   1.155  29.603 -0.0729  0.0229  0.4630
46737W        W55537  19.803   3.311  34.516  0.3823  0.0943  0.0466
46738W        W55538   9.849   0.517  11.499 -0.2529  0.2914 -0.2974
46739W        W55539   8.221   4.550  30.774 -0.2135  0.3620 -0.1587
46740W        W55540  22.655   2.149  27.632 -0.1687 -0.0192 -0.1444
46741W        W55541  10.488   3.767  22.440  0.1195 -0.2564 -0.0562
46742W        W55542  19.058   5.649   5.433  0.3536  0.0664  0.0342
46743W        W55543   8.857   2.652   4.449 -0.0863  0.2657 -0.0661
46744W        W55544  18.836   5.670  30.444 -0.0342  0.2035 -0.2425
46745W        W55545  26.036   2.657  20.852  0.4240 -0.1696 -0.0696
46746W        W55546  24.600   5.352   0.547 -0.0369 -0.1781  0.1238
46747W        W55547   8.385   0.292  14.397 -0.0603 -0.1335 -0.1494
46748W        W55548   6.287   4.676  25.838 -0.2176  0.1252  0.0327
46749W        W55549  22.249   0.185  30.102  0.0626  0.0963 -0.0543
46750W        W55550  14.762   1.191  22.350 -0.0290  0.2316 -0.0263
46751W        W55551   2.466   2.505  10.175  0.0864  0.0875  0.1525
46752W        W55552   6.292   5.398   6.365  0.0835 -0.0773  0.0517
46753W        W55553  24.625   0.998  12.367  0.1731 -0.0439 -0.2293
46754W        W55554  15.556   5.345   5.116  0.1466 -0.1920 -0.2354
46755W        W55555  18.244   3.289   0.369 -0.1206 -0.1418  0.2321
46756W        W55556   8.394   4.129   6.407  0.0429  0.3655  0.2264
46757W        W55557   3.497   5.884  21.344  0.2681 -0.1047 -0.0156
46758W        W55558   2.496   1.072  12.558  0.0467 -0.1976 -0.0970
46759W        W55559  11.106   2.511  31.567  0.1490 -0.2007  0.1641
46760W        W55560   3.359   6.264  12.865  0.0152 -0.0085  0.0380
46761W        W55561   9.185   4.898  35.168 -0.2923 -0.0069 -0.0847
46762W        W55562   3.426   3.471  32.773  0.1993 -0.1250  0.0532
46763W        W55563  17.594   0.568  34.119 -0.0260  0.2350  0.3403
46764W        W55564   5.626   3.228   0.950  0.0157 -0.0213 -0.0389
46765W        W55565   5.120   0.336  23.024 -0.0417 -0.4452  0.1447
46766W        W55566   2.863   3.054  14.156 -0.2655  0.0273  0.1895
46767W        W55567  13.551   0.703   2.477  0.1619  0.2445  0.0220
46768W        W55568  22.601   4.819   7.192 -0.2092  0.0002 -0.2304
46769W        W55569   5.509   6.251  31.682  0.0801  0.1119 -0.2490
46770W        W55570  21.221   2.935  29.693 -0.1771 -0.0801 -0.2715
46771W        W55571  23.332   0.647  27.779 -0.2267  0.2717  0.0990
46772W        W55572  16.088   6.038  10.230  0.2924  0.0039 -0.2402
46773W        W55573  11.149   2.817   0.211 -0.3050 -0.0532 -0.2055
46774W        W55574  15.799   1.210  24.007  0.1761 -0.1940  0.1097
46775W        W55575   0.757   0.124   2.592 -0.1319  0.2323 -0.0074
46776W        W55576   2.208   1.761  29.015 -0.0766 -0.1447 -0.0178
46777W        W55577   2.347   4.905  13.005  0.0606 -0.1310  0.0682
46778W        W55578   7.715   4.025   0.539  0.3049  0.3545 -0.0594
46779W        W55579  12.162   6.525  26.280 -0.1589 -0.2693  0.0345
46780W        W55580   7.801   2.646  26.819  0.0163 -0.0030  0.0986
46781W        W55581  11.811   5.759   8.779 -0.0262  0.0060 -0.1112
46782W        W55582  21.955   1.557  32.338 -0.1393  0.0409  0.1013
46783W        W55583  11.395   3.009  23.202 -0.3252 -0.2536 -0.1743
46784W        W55584  20.734   5.510  12.193  0.0588  0.0651  0.0195
46785W        W55585   1.305   3.186  29.576  0.1342 -0.3489  0.0067
46786W        W55586  10.207   2.889  35.493 -0.1608 -0.0562  0.0270
46787W        W55587  21.491   1.369   9.269 -0.1509 -0.3067 -0.3155
46788W        W55588   1.258   1.463  23.472 -0.0208  0.1627 -0.0035
46789W        W55589   0.601   0.126  28.938  0.0449  0.0984  0.0524
46790W        W55590   0.572   0.447  21.308  0.0032 -0.1546 -0.1103
46791W        W55591  22.255   1.481  23.021 -0.1494 -0.0992  0.0809
46792W        W55592   0.501   1.411  20.487  0.0801 -0.1875 -0.1625
46793W        W55593  21.078   3.730   3.840  0.0787  0.1198 -0.2461
46794W        W55594  26.407   4.553   5.202  0.3795 -0.1351 -0.2075
46795W        W55595   8.850   0.783   5.187 -0.0422  0.3431  0.1520
46796W        W55596   6.194   6.560  28.399 -0.0078 -0.3166  0.0437
46797W        W55597   4.307   2.253  14.229 -0.0750 -0.1419  0.2983
46798W        W55598   9.109   1.515  11.929 -0.0174 -0.0967  0.2215
46799W        W55599  18.240   3.796   8.527 -0.3390 -0.1184 -0.3863
46800W        W55600  19.154   4.497  14.772  0.2966  0.1933 -0.1226
46801W        W55601  14.730   5.526  29.328  0.1721  0.1164  0.0410
46802W        W55602   1.596   5.117  20.421 -0.2193  0.1932 -0.1749
46803W        W55603   2.052   2.501   5.909  0.0050 -0.0681  0.0953
46804W        W55604  13.930   4.110  10.188  0.1408 -0.3956 -0.2178
46805W        W55605  23.484   4.587  12.191  0.1051 -0.2504  0.0408
46806W        W55606   1.281   1.207   8.354 -0.0793 -0.2870  0.0563
46807W        W55607  15.294   6.188   9.168 -0.4661 -0.3811  0.3503
46808W        W55608  24.025   3.932  20.452  0.0762  0.2908 -0.0797
46809W        W55609  26.123   1.263  27.574  0.1422 -0.1471  0.0740
46810W        W55610   7.964   3.714  13.604  0.1120 -0.2006 -0.2085
46811W        W55611   3.525   3.599  14.360 -0.0222  0.1988 -0.1930
46812W        W55612  23.270   0.765   7.756  0.0958  0.1105 -0.0323
46813W        W55613  20.624   1.189   6.634  0.0642  0.1353 -0.2042
46814W        W55614   6.809   1.610  32.263  0.2216  0.3064  0.0565
46815W        W55615  13.178   2.191   3.894 -0.2932 -0.2050  0.1218
46816W        W55616  20.984   4.088  34.528  0.0536 -0.1772 -0.0310
46817W        W55617   8.299   4.164   3.928 -0.0505  0.2132 -0.0991
46818W        W55618   8.978   6.471  31.455 -0.2484 -0.0278 -0.1049
46819W        W55619   4.572   1.264  29.863  0.0905 -0.1129  0.0260
46820W        W55620  23.782   5.407   0.195  0.1272  0.0428 -0.1552
46821W        W55621  18.338   3.032  34.692 -0.1613 -0.0528 -0.2140
46822W        W55622  19.100   0.200  22.612 -0.4056  0.0568  0.2306
46823W        W55623   4.132   2.195  10.180 -0.1631 -0.2205  0.0036
46824W        W55624   5.525   4.638   1.120  0.1326 -0.1496 -0.1048
46825W        W55625   3.431   6.588  31.402 -0.0277  0.2171  0.0428
46826W        W55626   6.060   3.221   5.028  0.1868 -0.1873 -0.1750
46827W        W55627   3.751   1.293  21.880  0.0440  0.2867  0.0094
46828W        W55628  26.010   2.547  11.923  0.0137 -0.0009 -0.0505
46829W        W55629  14.943   6.401  31.028 -0.1889 -0.0605  0.0038
46830W        W55630   0.049   4.104  14.576 -0.0882 -0.2060 -0.1842
46831W        W55631  25.798   5.022  23.566  0.2057  0.0364  0.1902
46832W        W55632  25.494   0.268  35.412  0.2216 -0.0427 -0.1894
46833W        W55633  24.257   6.172  25.389  0.1182  0.0220 -0.2557
46834W        W55634  13.315   3.262  28.612  0.3708 -0.1756 -0.1668
46835W        W55635   4.620   3.241  24.934 -0.2971  0.1183 -0.1908
46836W        W55636  10.622   4.346   6.211 -0.2385 -0.1399 -0.4333
46837W        W55637  14.857   4.081  32.262 -0.0430 -0.0073 -0.2812
46838W        W55638   1.394   5.050  26.240  0.0697  0.4834 -0.0243
46839W        W55639   0.807   1.026  28.745 -0.2287 -0.0341  0.0848
46840W        W55640  19.391   0.368  34.675  0.0423  0.1929 -0.4420
46841W        W55641  15.423   6.019  25.371 -0.1798  0.1131 -0.2930
46842W        W55642  22.305   3.473  31.414 -0.0451 -0.0200 -0.2112
46843W        W55643  23.097   4.318  29.685  0.0367 -0.0963 -0.3169
46844W        W55644  14.090   1.270   8.408  0.2021 -0.1212  0.2808
46845W        W55645  11.082   2.592   1.039 -0.3104  0.0431  0.0654
46846W        W55646   2.199   5.149  23.344  0.0402  0.0407  0.1062
46847W        W55647  11.914   3.463  14.857  0.1360 -0.1186  0.0227
46848W        W55648   9.105   0.567  14.886 -0.0880  0.1326  0.0214
46849W        W55649  17.341   2.188   5.438  0.1379  0.2470 -0.0225
46850W        W55650  19.810   6.022  32.612 -0.1007 -0.1064  0.2235
46851W        W55651  19.862   3.898  14.630 -0.5506 -0.1616 -0.1772
46852W        W55652  22.295   3.376   9.143 -0.1645 -0.1008 -0.2745
46853W        W55653   8.323   3.909   1.426 -0.0022  0.1310  0.0958
46854W        W55654  23.380   2.795  12.465  0.2039  0.0036  0.1766
46855W        W55655   7.669   4.677  25.398  0.0530  0.1581  0.0322
46856W        W55656  24.682   2.812  25.243 -0.1748  0.0388 -0.0845
46857W        W55657   0.217   4.049  10.790 -0.1169 -0.0618  0.0902
46858W        W55658  16.825   0.517  23.349  0.2578 -0.0840  0.1254
46859W        W55659  11.626   2.464  22.313 -0.2099 -0.5385 -0.1443
46860W        W55660   6.889   4.226   8.353  0.2034  0.0560 -0.0007
46861W        W55661  21.299   5.502   1.218  0.0956 -0.0038  0.2373
46862W        W55662  16.095   0.058   3.834 -0.0655  0.0612  0.0004
46863W        W55663   4.106   3.582  28.255  0.1834 -0.3816  0.0707
46864W        W55664  10.488   5.352   2.429 -0.1699  0.0678 -0.2383
46865W        W55665  23.324   6.005  30.547  0.2333  0.1526 -0.0545
46866W        W55666   0.091   1.305  26.594  0.2282 -0.0984  0.0749
46867W        W55667  17.202   1.449   2.875 -0.1334  0.0740  0.0200
46868W        W55668   9.718   4.070  31.721  0.1734  0.1365 -0.1221
46869W        W55669  25.766   1.962  24.880 -0.0509 -0.1600 -0.0928
46870W        W55670  20.817   3.999   2.546 -0.1672  0.1236 -0.0082
46871W        W55671  15.158   3.419  21.926  0.1619  0.2051 -0.0152
46872W        W55672   8.653   6.214  13.377  0.1486  0.1133 -0.0899
46873W        W55673  22.691   0.458   5.745  0.1135  0.1094 -0.3613
46874W        W55674  22.097   4.748   5.715  0.1152 -0.0359  0.0251
46875W        W55675   2.159   2.876  23.509 -0.1688  0.1002  0.0673
46876W        W55676  11.753   4.334   7.486  0.2173  0.2937  0.1189
46877W        W55677  19.075   3.609  21.937 -0.2621  0.1342 -0.0405
46878W        W55678   2.913   6.316  11.461 -0.0537 -0.4569  0.2505
46879W        W55679  13.817   3.881  33.058  0.0268  0.0727  0.0394
46880W        W55680   8.522   6.399   9.154  0.0863 -0.2578 -0.0828
46881W        W55681   5.546   5.182   7.444 -0.1077  0.2860  0.0734
46882W        W55682  23.554   5.762  10.087  0.0022 -0.1085 -0.0318
46883W        W55683   1.761   0.649  22.043 -0.0313 -0.1564  0.1020
46884W        W55684  12.863   1.571  21.125 -0.2459 -0.0450 -0.1889
46885W        W55685  15.957   2.721  14.458 -0.0284 -0.3734  0.1700
46886W        W55686  13.880   4.039  22.013 -0.1817  0.1403 -0.0257
46887W        W55687  24.641   6.285  11.476 -0.3409 -0.0500  0.0703
46888W        W55688  15.441   0.371  11.304 -0.1008 -0.2380 -0.0947
46889W        W55689  23.991   2.710  26.646  0.2118 -0.2886  0.0316
46890W        W55690  14.204   4.206   1.009  0.0564 -0.0848 -0.2671
46891W        W55691  14.349   1.706  21.419  0.0146 -0.0358 -0.0423
46892W        W55692  25.309   6.407  10.788  0.0167  0.0411  0.1311
46893W        W55693  13.410   2.815  26.613 -0.2662 -0.2850  0.1708
46894W        W55694  16.714   0.811  13.409  0.2763 -0.2641 -0.0101
46895W        W55695   6.135   5.547  29.673 -0.1335 -0.1010 -0.1567
46896W        W55696  10.662   0.087  14.241 -0.1662 -0.0247 -0.1006
46897W        W55697  20.223   2.082  33.459  0.0410  0.0133  0.0842
46898W        W55698  20.490   1.058  11.183  0.0452 -0.0517  0.0970
46899W        W55699  11.287   4.169  28.949 -0.1094 -0.1118  0.1003
46900W        W55700  18.776   0.066  26.231  0.2847  0.0209  0.1175
46901W        W55701  16.587   1.433   3.015 -0.2138  0.1008  0.2279
46902W        W55702   6.826   4.362  15.233  0.0491  0.1591  0.0876
46903W        W55703   5.061   2.039  32.561 -0.1605  0.1037 -0.1215
46904W        W55704   7.158   0.066  31.723 -0.1381 -0.2129 -0.1266
46905W        W55705  13.256   1.339  34.527 -0.0043  0.0724  0.0438
46906W        W55706  12.604   5.629   9.918 -0.1733 -0.0093 -0.2769
46907W        W55707  25.629   2.102  21.466 -0.0979 -0.0138 -0.1053
46908W        W55708  24.327   1.501  33.810  0.0918 -0.0713 -0.0243
46909W        W55709   2.454   3.178  31.245  0.1010  0.2140 -0.0613
46910W        W55710   4.095   3.070  24.292 -0.1054  0.2110  0.0269
46911W        W55711  24.487   6.372  10.468  0.0218  0.0035 -0.0532
46912W        W55712  19.955   0.402  26.481  0.1515  0.0754 -0.0209
46913W        W55713   4.114   5.868  30.508 -0.1254  0.0896 -0.0347
46914W        W55714  14.656   6.214  28.727 -0.0171  0.1200  0.1875
46915W        W55715   0.337   1.873  23.474  0.1814  0.0157 -0.1743
46916W        W55716  18.569   0.310  27.432 -0.1345 -0.1482 -0.1860
46917W        W55717  20.975   5.144  14.497  0.3077 -0.1988 -0.2110
46918W        W55718  26.374   3.744  13.825  0.0163 -0.2490  0.1556
46919W        W55719   0.822   6.477  24.668 -0.2757 -0.1591 -0.1450
46920W        W55720  15.545   3.624   8.498 -0.0820 -0.0868  0.2805
46921W        W55721  18.933   3.460  24.792  0.0391  0.5141  0.0372
46922W        W55722  11.120   1.693   3.731  0.0731  0.2033 -0.1626
46923W        W55723  21.301   6.238  14.213  0.1038  0.0933 -0.0770
46924W        W55724   3.385   4.478  26.534  0.1390  0.0182  0.1881
46925W        W55725   4.170   0.550  12.671 -0.1777 -0.2990  0.1769
46926W        W55726  16.613   1.332  33.660  0.0960  0.0657  0.0571
46927W        W55727  16.852   6.518   0.971 -0.2030 -0.1686 -0.0036
46928W        W55728   8.397   6.080  10.373  0.0494 -0.0116 -0.2170
46929W        W55729   8.915   2.293  10.609  0.2306 -0.1675 -0.0436
46930W        W55730  22.635   3.021   7.936  0.1188 -0.2982  0.0223
46931W        W55731  23.880   2.578   8.414  0.2329  0.1961  0.1288
46932W        W55732  22.723   2.617  28.900  0.0699  0.1897 -0.1437
46933W        W55733   9.525   4.109   0.028 -0.2613  0.1675  0.0885
46934W        W55734  22.111   0.536  23.101  0.5277  0.0380  0.2352
46935W        W55735   8.546   0.506  12.814  0.3276 -0.0643  0.1343
46936W        W55736   9.631   4.526  21.605  0.0151  0.0453 -0.1095
46937W        W55737  14.949   6.020   9.473  0.1373 -0.0702  0.1518
46938W        W55738  20.368   3.452  23.713  0.3404  0.3043 -0.0207
46939W        W55739  11.187   3.397   2.469 -0.0708  0.0247  0.1985
46940W        W55740  18.112   4.858   8.697  0.0982  0.1923 -0.0819
46941W        W55741  14.410   6.316   8.200  0.1268  0.3159 -0.0354
46942W        W55742  23.227   4.784  29.803 -0.3436  0.1211 -0.4493
46943W        W55743   7.445   5.720   9.503 -0.0620 -0.1651 -0.1415
46944W        W55744  12.747   5.334  13.530 -0.2523  0.0380  0.0282
46945W        W55745   5.631   1.560   9.237  0.0482  0.5014  0.2804
46946W        W55746  14.431   3.261  12.733  0.0818 -0.0506  0.2220
46947W        W55747  25.117   6.546  33.278 -0.0149 -0.0751  0.1159
46948W        W55748  17.265   4.900  30.129 -0.1464 -0.0525 -0.2934
46949W        W55749   7.241   6.267   4.671 -0.2196  0.1774 -0.1213
46950W        W55750  21.369   4.805  25.788 -0.1720  0.1408 -0.1247
46951W        W55751  10.105   4.494  21.648  0.3007  0.0432  0.1445
46952W        W55752  12.114   5.848  21.793  0.2466 -0.1726  0.0399
46953W        W55753  14.003   1.470  21.824  0.1956 -0.2869  0.1099
46954W        W55754  23.255   0.428  35.657 -0.0566 -0.0025  0.1534
46955W        W55755  11.942   4.312  22.605 -0.1947  0.0254  0.0872
46956W        W55756  10.771   1.931  23.247  0.1036  0.2267  0.0620
46957W        W55757   6.563   2.566  12.943 -0.0610 -0.0172  0.1766
46958W        W55758   1.317   3.565   6.090 -0.2773  0.2175  0.1816
46959W        W55759   1.219   5.230  29.840 -0.0207 -0.1541 -0.0968
46960W        W55760  13.807   1.847  35.962  0.1858 -0.0852  0.1731
46961W        W55761   1.311   5.766  26.130  0.0984  0.1954 -0.1897
46962W        W55762  24.878   1.403  27.356  0.0254  0.0135 -0.1139
46963W        W55763   9.636   2.742   5.970 -0.2395 -0.0111 -0.0112
46964W        W55764  13.962   6.361  29.582 -0.0390 -0.2555  0.1210
46965W        W55765  23.155   0.088  29.499  0.1785  0.0266  0.0517
46966W        W55766  22.377   3.422  28.487  0.1587 -0.0293  0.0244
46967W        W55767  18.108   5.721   4.013 -0.2091 -0.0363  0.1174
46968W        W55768   2.196   4.406  12.303 -0.0700  0.0980 -0.2935
46969W        W55769   0.717   5.542   1.081  0.0400  0.3429  0.1575
46970W        W55770   1.706   1.567  23.170  0.1879  0.1300  0.0046
46971W        W55771   8.242   1.045  27.196  0.1116  0.2049  0.0532
46972W        W55772   5.027   4.885   6.193 -0.1707 -0.3150 -0.0989
46973W        W55773  20.494   3.735  14.000  0.0728  0.0069  0.0758
46974W        W55774   7.538   1.040  26.722 -0.0063 -0.3602 -0.0876
46975W        W55775   7.531   2.091  23.877 -0.1055 -0.2204 -0.0769
46976W        W55776  17.960   6.280  26.936  0.1367  0.0034 -0.1206
46977W        W55777   0.912   5.419  23.022  0.0122  0.0012  0.0956
46978W        W55778  24.003   5.163  27.069  0.1516  0.2308  0.1213
46979W        W55779  10.970   5.757  31.142  0.0692 -0.1884  0.0229
46980W        W55780  20.804   0.297   3.750  0.1393 -0.0604  0.0898
46981W        W55781  13.398   6.523  26.783 -0.2647 -0.0861  0.1414
46982W        W55782   7.394   0.938  28.699 -0.2726  0.0846  0.0951
46983W        W55783   1.615   5.020  28.018  0.1258  0.1001  0.1671
46984W        W55784  19.397   1.332  11.698  0.2024  0.1336  0.0382
46985W        W55785  24.704   2.637   5.459  0.2367  0.0489 -0.1328
46986W        W55786  21.632   4.806  22.610 -0.2579  0.1177 -0.2755
46987W        W55787   8.772   2.652   1.671  0.3307 -0.2088  0.1821
46988W        W55788   1.206   5.419  13.998  0.0267 -0.2781  0.0468
46989W        W55789   2.989   3.546  11.769  0.0069 -0.4754  0.0414
46990W        W55790   7.218   4.081   0.808  0.0615  0.1096 -0.0722
46991W        W55791   6.222   1.456   9.307 -0.1012  0.2142  0.0079
46992W        W55792  22.901   4.522  20.699 -0.0696  0.3540  0.0060
46993W        W55793  18.783   6.420  31.563 -0.2705  0.1044  0.0480
46994W        W55794  10.099   6.449   3.221  0.2143  0.0015  0.1659
46995W        W55795   9.852   3.287  30.427  0.0118 -0.0500 -0.0385
46996W        W55796  14.814   2.595   7.488 -0.0003  0.3147 -0.0223
46997W        W55797  16.094   3.758  13.015  0.2781 -0.1718 -0.2714
46998W        W55798   1.580   0.213  34.020 -0.0208 -0.2498  0.2355
46999W        W55799   8.678   4.830  30.001  0.0621 -0.0448  0.1234
47000W        W55800  12.387   2.888   2.266  0.0771 -0.0142  0.1864
47001W        W55801  15.288   4.130   6.749  0.1455  0.0513  0.0631
47002W        W55802  15.225   6.223  11.284  0.0002  0.3669 -0.2827
47003W        W55803   1.528   5.582  33.183  0.2807  0.2717 -0.0654
47004W        W55804  17.327   4.012  13.809  0.3382  0.2258  0.0829
47005W        W55805  17.804   1.207  34.184 -0.1640 -0.0832 -0.3045
47006W        W55806   3.128   1.550  12.426 -0.1726 -0.1118 -0.0944
47007W        W55807  17.323   6.076  28.181 -0.0279 -0.2180 -0.3269
47008W        W55808  24.905   2.334  34.711  0.0863 -0.0378  0.0931
47009W        W55809   7.498   6.431  29.526  0.1215  0.1783  0.1060
47010W        W55810  25.099   4.407  22.400 -0.0124 -0.1444 -0.0614
47011W        W55811   3.691   2.075   2.440 -0.0335 -0.1174 -0.3039
47012W        W55812  26.048   6.206   2.591 -0.1949 -0.0866 -0.2330
47013W        W55813   9.067   6.256  14.851  0.0764 -0.1613  0.1698
47014W        W55814   2.437   6.058   2.214  0.0192  0.0585 -0.3068
47015W        W55815   0.371   0.084  13.351 -0.0963  0.2231  0.1595
47016W        W55816  19.024   5.731   1.186  0.0653  0.0021  0.0268
47017W        W55817   7.269   5.511   7.347  0.2069 -0.1024  0.0406
47018W        W55818  10.862   3.068   6.245  0.1669 -0.6230 -0.1020
47019W        W55819  23.721   0.356   1.131 -0.1330 -0.4621 -0.0125
47020W        W55820   0.008   5.022  21.991 -0.1601  0.3173  0.0778
47021W        W55821   8.558   2.167  11.474  0.2106  0.1109  0.1594
47022W        W55822  20.383   0.196  12.429  0.2104  0.0565 -0.0766
47023W        W55823   2.380   4.100  35.659  0.2566  0.0005 -0.0606
47024W        W55824   8.869   1.973  32.155 -0.0669  0.0193 -0.3181
47025W        W55825  19.931   0.715   2.943 -0.1677  0.1761 -0.1561
47026W        W55826  13.551   3.794  10.083 -0.0819 -0.1797  0.1756
47027W        W55827  21.567   2.187  15.088 -0.0165  0.0911  0.0336
47028W        W55828  23.853   0.374  12.442  0.2561 -0.0710 -0.1455
47029W        W55829   2.368   0.871  28.882 -0.0207  0.0373  0.2415
47030W        W55830  13.601   4.987  30.097 -0.0636  0.1921  0.2390
47031W        W55831   3.171   6.486   6.400 -0.0954  0.1737  0.0686
47032W        W55832   2.074   0.026  11.735  0.3874 -0.0272  0.1309
47033W        W55833  20.495   4.459  31.880  0.0000 -0.0727 -0.1759
47034W        W55834  25.403   3.549   8.159  0.2109 -0.0789 -0.0249
47035W        W55835   1.954   0.155  22.114  0.1568 -0.2703 -0.1842
47036W        W55836   1.826   4.364  23.092  0.3589 -0.1447 -0.3061
47037W        W55837  25.856   6.551  28.370 -0.0397 -0.0610 -0.2466
47038W        W55838  25.256   2.387   8.579 -0.0320  0.0029  0.2691
47039W        W55839   7.323   2.328  13.519  0.1881 -0.1288  0.0407
47040W        W55840   6.241   5.456  30.226 -0.1025 -0.0672 -0.0464
47041W        W55841  18.445   2.492  14.638 -0.0520 -0.0595  0.1865
47042W        W55842   8.031   1.605  35.609  0.1708 -0.0188 -0.1137
47043W        W55843   5.966   1.238  29.815  0.2579  0.0284  0.4160
47044W        W55844  19.588   4.499  30.816  0.2290  0.0781  0.3311
47045W        W55845   9.804   4.246  25.775 -0.1372 -0.0608 -0.1544
47046W        W55846  17.521   1.728  10.781  0.2787  0.0004 -0.0161
47047W        W55847  23.322   0.072   7.438  0.0146 -0.1253 -0.2089
47048W        W55848  12.990   2.070  30.662  0.0189 -0.1316  0.0349
47049W        W55849   2.357   4.895   1.841 -0.0434  0.0753  0.0419
47050W        W55850   2.404   0.193   5.719 -0.1869  0.2984 -0.5160
47051W        W55851  24.136   2.212   7.639  0.1176  0.0980  0.2830
47052W        W55852  19.611   1.977  20.567 -0.3623 -0.1479  0.1826
47053W        W55853  22.343   3.528  34.175 -0.0478  0.0353 -0.1720
47054W        W55854  10.297   0.717   8.786  0.0449  0.1220  0.0219
47055W        W55855  15.227   6.024   9.972  0.2327 -0.0983 -0.0041
47056W        W55856   8.823   6.205  32.858 -0.0848  0.1955 -0.1732
47057W        W55857  19.263   0.931   5.345 -0.1245 -0.0327 -0.0949
47058W        W55858   6.704   3.401   7.957 -0.2419 -0.3696  0.0692
47059W        W55859   8.264   6.210  32.785  0.0076 -0.0699  0.0935
47060W        W55860  23.536   3.878  11.621  0.1707 -0.1450  0.1108
47061W        W55861  25.529   5.691  35.609  0.2018 -0.0250  0.5889
47062W        W55862  19.610   4.621   9.554  0.0695 -0.0424  0.1373
47063W        W55863   3.256   2.006  22.061 -0.0907  0.0515  0.0467
47064W        W55864   3.467   4.270   8.392 -0.1242 -0.2110 -0.2310
47065W        W55865  19.138   3.857  23.492  0.2054  0.4264 -0.0197
47066W        W55866  18.799   0.507   7.750 -0.3896  0.3037 -0.0574
47067W        W55867  21.866   4.362  31.733 -0.2409  0.2471  0.2194
47068W        W55868  26.213   5.233   2.312  0.1727  0.2517 -0.0062
47069W        W55869  14.590   3.686  32.424  0.0920  0.2148  0.0867
47070W        W55870   6.533   4.282  14.676 -0.2857  0.0100  0.3832
47071W        W55871  23.193   3.790  10.756  0.0974 -0.0841 -0.0943
47072W        W55872  23.185   4.766  21.948 -0.2381 -0.1163  0.0009
47073W        W55873   4.781   0.874  33.741 -0.1560 -0.0483  0.0090
47074W        W55874  17.511   3.925  28.154 -0.0679  0.2890 -0.3611
47075W        W55875  15.719   3.695  32.408  0.0769  0.2540  0.1353
47076W        W55876  21.906   1.479  30.634  0.0669  0.0383  0.0118
47077W        W55877  16.690   2.342  26.494 -0.0467  0.1890 -0.1956
47078W        W55878   3.571   5.985  15.180  0.0611 -0.0343  0.0078
47079W        W55879  17.935   6.312   8.238 -0.1921 -0.1574 -0.2539
47080W        W55880   2.392   0.308   9.926  0.1251  0.0550  0.2964
47081W        W55881  17.265   5.178   9.277 -0.2562 -0.1243 -0.0987
47082W        W55882  21.587   0.128  27.160 -0.3400 -0.0834 -0.1201
47083W        W55883  24.082   0.637  26.026 -0.4142  0.0396  0.0503
47084W        W55884  25.799   3.027   8.161  0.0794 -0.2102  0.0358
47085W        W55885   4.538   1.748  21.423 -0.0604 -0.0784  0.1903
47086W        W55886  11.350   0.668   0.043 -0.3170 -0.1211 -0.1329
47087W        W55887   5.706   6.378  15.547 -0.1092 -0.1508  0.0691
47088W        W55888  25.648   6.407   3.431  0.0819  0.2618  0.1616
47089W        W55889  24.548   2.039   1.930  0.2662 -0.0212 -0.0220
47090W        W55890  22.748   5.456  12.207 -0.0491  0.0583  0.4166
47091W        W55891   3.556   0.595  11.712 -0.1288 -0.2403  0.1744
47092W        W55892   5.042   0.597   5.999 -0.1976  0.1845  0.0034
47093W        W55893  23.908   2.210   6.613 -0.0238 -0.1090 -0.0371
47094W        W55894  11.926   3.430   1.407 -0.0944  0.2816  0.1419
47095W        W55895   8.144   2.875  36.124 -0.1337 -0.0704 -0.3812
47096W        W55896   3.028   0.206   8.852 -0.1020 -0.2808  0.5628
47097W        W55897  12.479   5.991  25.341  0.1849  0.1520 -0.0825
47098W        W55898  23.196   4.934  21.477  0.2951 -0.0493  0.0499
47099W        W55899  10.503   0.235  13.697  0.2587  0.0746 -0.0482
47100W        W55900   8.482   0.988  30.852  0.2424  0.0426 -0.1666
47101W        W55901  24.853   1.343  21.271 -0.0631 -0.1088  0.2386
47102W        W55902  26.393   0.636  24.843 -0.0814 -0.2703  0.0285
47103W        W55903  13.370   4.361   2.360  0.1288  0.1796 -0.0631
47104W        W55904  18.410   4.592  33.749 -0.0473  0.0387 -0.2468
47105W        W55905  13.597   0.299  12.078 -0.0487 -0.1404  0.0601
47106W        W55906  22.345   0.438  27.660  0.0360 -0.3083  0.0968
47107W        W55907  15.216   4.068  33.629 -0.1549  0.1091  0.1059
47108W        W55908  21.916   2.497  34.035 -0.1879 -0.2204 -0.1272
47109W        W55909   1.741   1.965  27.129  0.0985 -0.0194  0.2260
47110W        W55910   7.154   6.465  31.272  0.0343 -0.2775  0.0638
47111W        W55911   6.030   4.412  11.437  0.0553  0.1913  0.1701
47112W        W55912   1.003   4.774  14.537 -0.0685 -0.1408 -0.0206
47113W        W55913   8.799   1.276  28.566 -0.1543 -0.1811 -0.2403
47114W        W55914   3.577   3.441   2.669  0.0874  0.3933  0.0603
47115W        W55915   7.494   5.413   2.187  0.0254 -0.1666  0.1241
47116W        W55916  26.235   1.229  26.020  0.1303 -0.1684 -0.0918
47117W        W55917  18.614   4.910   2.677 -0.2927 -0.2970  0.1563
47118W        W55918   2.778   0.602  12.670  0.1160  0.0357  0.0325
47119W        W55919   6.741   1.005  24.834 -0.0480  0.0557  0.0929
47120W        W55920   5.632   4.002   2.630 -0.3123  0.1552  0.0746
47121W        W55921  15.491   5.417  34.611  0.0421  0.2301 -0.0299
47122W        W55922  13.257   0.556  25.500 -0.1406  0.1120  0.1370
47123W        W55923   3.355   5.163  33.797  0.3588  0.4351  0.2325
47124W        W55924   7.464   4.784  14.848 -0.0638  0.0650 -0.1526
47125W        W55925  23.589   5.697  29.967  0.0056  0.3160 -0.0831
47126W        W55926  15.218   2.692  21.308 -0.0110  0.0875  0.0368
47127W        W55927   1.534   6.326  24.289  0.2189 -0.0453  0.0525
47128W        W55928   4.651   3.787  12.392  0.1801 -0.3599 -0.5179
47129W        W55929   2.855   1.524  30.099 -0.0132  0.0552  0.3529
47130W        W55930  20.652   5.401  21.284  0.2128 -0.1294  0.0416
47131W        W55931   4.319   5.221  29.658 -0.1557 -0.1812 -0.1398
47132W        W55932  20.620   3.089  13.332  0.1381 -0.0665  0.0361
47133W        W55933  10.699   1.066   0.940  0.2672 -0.1176 -0.0279
47134W        W55934   9.058   3.014  24.768 -0.1086  0.0333  0.1601
47135W        W55935  22.828   2.637  36.090  0.1822 -0.0124 -0.0919
47136W        W55936  25.864   4.244  11.246 -0.3922 -0.2497  0.0600
47137W        W55937   2.339   0.013  29.820  0.1532  0.0929 -0.2820
47138W        W55938  15.610   3.814  23.453  0.1951  0.1519 -0.1237
47139W        W55939   2.544   3.995   2.133  0.2510  0.0069  0.1178
47140W        W55940   2.087   1.723  29.455  0.3295  0.0372 -0.0650
47141W        W55941   6.120   3.373   1.034 -0.0382  0.1605  0.0476
47142W        W55942  25.604   0.375  32.341  0.2916 -0.1296  0.0248
47143W        W55943   5.753   1.190  33.780 -0.1534 -0.0812 -0.0114
47144W        W55944  21.316   5.003  14.895  0.1213 -0.0143  0.1035
47145W        W55945  22.478   4.712  24.468 -0.0779 -0.1031  0.1798
47146W        W55946  23.963   0.312  13.203  0.2145  0.0558 -0.2757
47147W        W55947   1.232   5.940   7.686 -0.2002 -0.0434 -0.0587
47148W        W55948  23.052   0.238  13.356 -0.0167  0.1048 -0.1187
47149W        W55949  21.661   5.058  23.425 -0.0539  0.1181  0.2078
47150W        W55950  23.004   1.286  24.575  0.2846 -0.1485  0.0757
47151W        W55951  11.879   0.444   1.246 -0.0341 -0.2857  0.1429
47152W        W55952   0.260   4.573  10.476  0.1667 -0.1122 -0.0195
47153W        W55953   6.865   0.148  22.790  0.1802  0.1616  0.3825
47154W        W55954  22.935   1.959  33.836 -0.3770  0.1368  0.0890
47155W        W55955  15.383   4.965  33.306 -0.0870 -0.1420 -0.0211
47156W        W55956  15.194   1.536  31.022 -0.1435  0.1676  0.2453
47157W        W55957  23.403   2.664  33.680  0.0515  0.0751 -0.4289
47158W        W55958  22.797   4.761   1.423 -0.1538 -0.1405  0.0483
47159W        W55959  21.872   5.750  20.059  0.0822  0.0189 -0.2823
47160W        W55960  13.986   6.512  34.435  0.1271 -0.0143 -0.0510
47161W        W55961  12.131   6.342  32.929  0.0078 -0.0202  0.0216
47162W        W55962  22.179   5.959   9.879 -0.1300  0.0134 -0.2944
47163W        W55963   8.212   5.274  31.267  0.0418 -0.0952 -0.0616
47164W        W55964  23.264   2.111  25.115 -0.1976  0.0705 -0.0670
47165W        W55965  23.645   4.888  29.164 -0.1138  0.0943 -0.0813
47166W        W55966   5.820   6.040   7.561  0.1113  0.0071  0.1980
47167W        W55967  11.349   5.026  35.030  0.1885  0.0316  0.1369
47168W        W55968  12.032   1.212  35.633  0.0053  0.0550  0.3561
47169W        W55969  20.114   4.687   3.448  0.0143 -0.0414 -0.0360
47170W        W55970  17.805   3.105  27.938 -0.0287  0.0307  0.1847
47171W        W55971  10.142   3.670  23.667 -0.2868 -0.0254 -0.0339
47172W        W55972  16.322   4.153  21.289 -0.2674  0.0536 -0.3307
47173W        W55973  22.982   2.011  32.984  0.0388 -0.0845  0.1404
47174W        W55974  11.102   0.401  20.550  0.1031 -0.0773  0.1597
47175W        W55975   3.923   6.585  11.133  0.1645  0.2531 -0.0860
47176W        W55976   4.278   3.476  26.107  0.2243 -0.1381 -0.1314
47177W        W55977  19.965   4.785   9.943 -0.0342  0.0890  0.0640
47178W        W55978  19.145   1.700  26.946 -0.0644 -0.3405 -0.2289
47179W        W55979  23.326   0.766  32.013 -0.2378  0.1082  0.1175
47180W        W55980   3.925   2.404  25.825 -0.1893 -0.2041 -0.1895
47181W        W55981  12.461   5.326   2.563 -0.0953 -0.1593  0.3056
47182W        W55982  10.225   3.409  24.396 -0.0397 -0.0140 -0.1896
47183W        W55983   4.598   3.354   7.936  0.1501  0.2404 -0.0451
47184W        W55984  22.236   3.174  20.813  0.3210 -0.0905  0.2722
47185W        W55985  22.175   5.062  15.756 -0.0959  0.0233 -0.2497
47186W        W55986   4.683   5.347  25.306 -0.2580 -0.0502 -0.0114
47187W        W55987  21.567   2.929  13.061 -0.0273 -0.0985  0.0860
47188W        W55988  18.010   1.778  11.820  0.1137  0.4097  0.1465
47189W        W55989  11.054   3.918   0.438  0.1603 -0.0202 -0.2755
47190W        W55990  20.248   1.158  14.789  0.0392 -0.0419  0.2082
47191W        W55991   9.513   5.303  13.818 -0.0538  0.1051  0.2190
47192W        W55992   0.904   3.440  31.077  0.1483  0.0517  0.2449
47193W        W55993  15.462   5.743   8.942  0.0862  0.2008  0.0047
47194W        W55994  16.906   3.674  10.537  0.3423 -0.3517 -0.1008
47195W        W55995   7.636   5.388  12.174 -0.1434 -0.0784  0.2024
47196W        W55996  20.525   1.792  24.868  0.3339 -0.1781  0.0018
47197W        W55997   2.736   3.019  34.794 -0.0597  0.3106  0.1795
47198W        W55998  24.969   4.882   7.258 -0.1086 -0.0349 -0.0526
47199W        W55999   1.909   0.667   1.581  0.0846  0.2127 -0.3154
47200W        W56000   0.737   3.072  31.358  0.0628  0.2075 -0.0137
47201W        W56001   9.986   5.115   5.111 -0.0635 -0.1493 -0.1478
47202W        W56002   5.373   1.282  32.321 -0.3392  0.0092  0.2502
47203W        W56003  18.752   0.374   2.225  0.1940 -0.2555  0.2121
47204W        W56004   1.348   6.527  25.427 -0.0533 -0.2731 -0.2264
47205W        W56005  25.534   1.316  33.256  0.4340 -0.2269  0.1988
47206W        W56006   8.924   1.263   0.410 -0.0391 -0.2736  0.1242
47207W        W56007  11.668   5.264  21.315  0.2178 -0.1231 -0.0827
47208W        W56008  21.329   5.754  10.184  0.0959  0.1349  0.0261
47209W        W56009  15.972   0.775   2.280 -0.1235 -0.0044 -0.0564
47210W        W56010  25.882   4.159  26.364  0.1630  0.3274 -0.1119
47211W        W56011  17.462   5.771  29.283 -0.1026 -0.0057 -0.3657
47212W        W56012   6.804   2.831  21.115  0.0480  0.0354 -0.1988
47213W        W56013   4.549   4.135  36.021 -0.2339 -0.0153  0.2587
47214W        W56014   7.254   2.197  23.511  0.2735 -0.0356 -0.0880
47215W        W56015   2.033   5.363  27.677 -0.0199  0.1273  0.6485
47216W        W56016  24.980   6.281   8.708  0.1016  0.1162  0.0840
47217W        W56017   8.564   0.402  35.190 -0.0950  0.3539  0.2873
47218W        W56018  24.111   5.483   7.172  0.1996  0.1561  0.1773
47219W        W56019  26.010   1.535  12.391  0.1154 -0.1191  0.0161
47220W        W56020  13.332   6.222  23.583 -0.1154  0.0220 -0.0723
47221W        W56021  11.965   1.854  31.768 -0.0977 -0.1549  0.0443
47222W        W56022   4.248   3.450  14.083  0.0370 -0.4065  0.1091
47223W        W56023   4.400   3.594   6.535  0.2497  0.2099 -0.3668
47224W        W56024   9.377   4.479  15.087 -0.0035 -0.1955  0.0614
47225W        W56025  18.356   6.423  31.796  0.0567 -0.2177  0.3671
47226W        W56026  25.430   4.411  27.889 -0.2616 -0.3452  0.3708
47227W        W56027  14.228   3.322  28.483 -0.1130  0.0076 -0.0298
47228W        W56028  12.009   5.308   1.290 -0.0179 -0.4106 -0.2637
47229W        W56029  11.675   6.218  20.452  0.0685  0.0830 -0.0763
47230W        W56030  15.306   3.939  14.079  0.0501 -0.4094 -0.2027
47231W        W56031  15.515   6.529  25.215 -0.1334  0.1054 -0.1329
47232W        W56032  21.865   5.743  12.327 -0.2789 -0.0620  0.3999
47233W        W56033  16.684   5.156  11.687  0.1812 -0.3275  0.2198
47234W        W56034  23.573   1.083   8.116  0.0304  0.1800  0.1071
47235W        W56035   5.609   3.556   5.906  0.0667  0.1266  0.1035
47236W        W56036   0.529   1.310  12.546  0.0948  0.0504 -0.2156
47237W        W56037  18.074   2.089   7.699 -0.0434 -0.0302  0.1779
47238W        W56038  24.200   5.553  24.960  0.1449 -0.1469  0.1241
47239W        W56039  18.850   1.014   5.730  0.1599  0.2245 -0.2325
47240W        W56040  25.347   4.813  13.570  0.1311  0.1925 -0.3299
47241W        W56041  18.373   0.037  30.463 -0.0444 -0.3846  0.0308
47242W        W56042  22.175   0.619  24.265  0.0954  0.1668  0.1803
47243W        W56043  19.134   6.258   6.779  0.1089 -0.0511 -0.2808
47244W        W56044  23.379   4.518  34.084  0.1633  0.0358 -0.0253
47245W        W56045  24.592   5.675   3.858  0.0323 -0.0254 -0.2176
47246W        W56046   1.344   2.252  34.031  0.0742  0.0128 -0.4386
47247W        W56047  23.165   4.679  35.803 -0.2264 -0.4488 -0.0558
47248W        W56048  11.765   2.566   4.836  0.0760  0.0572  0.0323
47249W        W56049   6.791   5.858   5.601  0.0838 -0.1866 -0.0683
47250W        W56050  11.975   3.857  10.583 -0.2882  0.0940  0.2275
47251W        W56051  23.804   2.658  33.388  0.2468 -0.0099 -0.0442
47252W        W56052  16.076   2.902   4.410 -0.2069 -0.2644 -0.0763
47253W        W56053   8.261   5.342  36.146 -0.0661 -0.2707  0.1208
47254W        W56054   8.382   6.436   2.308 -0.1983 -0.0597  0.1797
47255W        W56055  25.690   4.769  24.167  0.2211  0.0934 -0.1153
47256W        W56056   0.685   2.633   2.423 -0.0851  0.2780 -0.0696
47257W        W56057  11.325   1.426  33.338 -0.0089 -0.2451  0.1862
47258W        W56058  11.692   5.965  35.939 -0.0160  0.2930 -0.0935
47259W        W56059   0.716   1.347  21.002 -0.2798 -0.1845  0.2530
47260W        W56060  22.025   3.592   8.041  0.0198 -0.1930  0.2178
47261W        W56061  10.519   1.122  15.486 -0.0484 -0.0589 -0.1610
47262W        W56062   2.280   0.677   0.045  0.1614  0.3907  0.2925
47263W        W56063  23.444   5.883  25.109 -0.0557 -0.0211  0.1231
47264W        W56064  17.175   2.687   2.993  0.0129  0.0725 -0.1867
47265W        W56065  16.942   2.715   1.964  0.2251  0.0551 -0.0790
47266W        W56066  18.966   6.553   7.482  0.0922  0.3411 -0.2500
47267W        W56067  18.612   2.435   2.566  0.1078  0.1561  0.4085
47268W        W56068  23.904   1.845  27.741 -0.1225  0.3047 -0.3104
47269W        W56069  15.360   5.243  27.161  0.0198  0.1972  0.0198
47270W        W56070  19.966   1.856  30.581 -0.0454  0.0652 -0.0666
47271W        W56071  24.000   4.485   0.470 -0.0348 -0.2148  0.1738
47272W        W56072   4.782   2.841   2.238 -0.1259 -0.2718 -0.3282
47273W        W56073  15.137   0.396   1.366  0.1548  0.1024  0.0225
47274W        W56074  20.053   4.265   7.670 -0.2817 -0.0396 -0.2108
47275W        W56075  11.047   2.480  11.516 -0.2922  0.1025  0.1500
47276W        W56076  10.337   5.961  33.703 -0.1971  0.3007  0.1689
47277W        W56077   4.856   2.931  13.512 -0.0504  0.1291 -0.0760
47278W        W56078   9.354   3.323  24.470  0.2051 -0.1036 -0.3704
47279W        W56079  12.583   5.212  30.486 -0.0116  0.3001  0.1098
47280W        W56080   4.634   1.306  28.182  0.0836  0.1600  0.3001
47281W        W56081   1.723   3.827  13.019 -0.2663 -0.0698 -0.0759
47282W        W56082  18.755   0.445  32.983  0.2247 -0.1914  0.2322
47283W        W56083  17.425   2.714  28.080  0.1867  0.1048  0.0104
47284W        W56084  20.826   0.319  13.635 -0.0773 -0.1254 -0.1490
47285W        W56085  13.165   0.287   7.462  0.0338  0.0781 -0.0026
47286W        W56086  20.719   2.762  24.249 -0.0103  0.3381 -0.3014
47287W        W56087  16.077   5.966   5.151 -0.0050  0.0595 -0.0286
47288W        W56088  16.867   6.275   4.799 -0.1992 -0.2125  0.2135
47289W        W56089  15.680   0.512   6.447  0.0494  0.0196 -0.4633
47290W        W56090  19.073   3.035  26.882 -0.2986  0.0052  0.1649
47291W        W56091  10.378   3.121  29.723 -0.0393  0.2138  0.1924
47292W        W56092  21.899   3.014  21.515 -0.4198  0.0281  0.0988
47293W        W56093   2.134   1.619  30.762 -0.2187 -0.1737 -0.0913
47294W        W56094   1.309   5.819  27.013 -0.1239  0.2700 -0.2470
47295W        W56095  21.329   4.969   3.646  0.0290 -0.0715  0.1413
47296W        W56096  17.375   4.252  32.367 -0.0042 -0.0380  0.3843
47297W        W56097  15.131   6.373   4.732  0.1064  0.4333  0.0263
47298W        W56098   3.639   6.194  13.366  0.1486 -0.0675 -0.2094
47299W        W56099  12.117   6.322  10.705 -0.0674 -0.0417 -0.2792
47300W        W56100  14.620   1.236   3.785 -0.1521 -0.2654  0.0223
47301W        W56101   2.164   4.064  27.182  0.2455 -0.1225  0.1229
47302W        W56102  10.398   1.278  26.067 -0.0772  0.1174 -0.0101
47303W        W56103   4.828   5.953  28.689  0.1965  0.2656  0.0119
47304W        W56104  24.204   6.546  30.374 -0.0746 -0.3831  0.0385
47305W        W56105  11.202   3.342  13.968 -0.0653 -0.2117 -0.3068
47306W        W56106  19.038   5.218  28.006 -0.0069  0.0486  0.1065
47307W        W56107  25.662   3.599   0.976  0.3621  0.0013  0.1019
47308W        W56108  14.230   3.752  35.986  0.0449 -0.0432 -0.2910
47309W        W56109   1.411   4.329  22.472  0.0641  0.0763  0.2113
47310W        W56110   0.375   5.427   2.674 -0.1059 -0.0482  0.0728
47311W        W56111  18.176   5.671   2.442  0.0453  0.0754  0.0247
47312W        W56112  13.032   3.377   4.610  0.0709  0.0397  0.0242
47313W        W56113  12.522   0.012  32.725 -0.0691 -0.0317 -0.2820
47314W        W56114  19.130   3.263  22.345 -0.0196  0.0494  0.0368
47315W        W56115  12.513   1.269  27.435 -0.1471 -0.1771  0.3048
47316W        W56116  10.425   0.564   0.369  0.0675  0.0583 -0.1833
47317W        W56117  25.428   0.074   1.280  0.3318 -0.3391 -0.1506
47318W        W56118  16.529   6.433   8.723  0.2603  0.0153  0.0393
47319W        W56119  12.687   5.843  13.453  0.1487  0.1155 -0.0204
47320W        W56120  25.857   1.357  28.025 -0.0544  0.0298  0.0736
47321W        W56121  13.434   5.682   0.037  0.0692  0.1545  0.0086
47322W        W56122   3.299   1.672   7.828  0.0763  0.1931 -0.0179
47323W        W56123   8.992   4.299   2.227  0.0297 -0.3415 -0.4255
47324W        W56124  12.886   2.977  26.005 -0.2726 -0.0978  0.0651
47325W        W56125  16.378   0.120   1.078  0.0235  0.0214 -0.3012
47326W        W56126  14.888   3.742   0.924  0.0596 -0.1367 -0.3026
47327W        W56127   8.929   2.743  24.231  0.0958 -0.1140 -0.2684
47328W        W56128  18.524   6.193   6.605  0.2554  0.0860 -0.0222
47329W        W56129   9.238   3.602  35.054 -0.0710  0.1236  0.2743
47330W        W56130  18.483   1.366  29.054 -0.1189 -0.1244 -0.2066
47331W        W56131  13.218   6.362  13.423  0.1174 -0.0195 -0.2479
47332W        W56132   6.566   1.525  11.972  0.0697 -0.3326 -0.0576
47333W        W56133  25.579   0.095  33.200 -0.0389 -0.0029 -0.0354
47334W        W56134  15.716   3.854  22.493 -0.3989  0.1066  0.0351
47335W        W56135  14.021   2.374  25.638 -0.0139  0.1681 -0.2169
47336W        W56136   3.340   4.701  28.998 -0.0685 -0.0080 -0.0256
47337W        W56137  20.530   6.341  27.232 -0.0288  0.0349  0.1599
47338W        W56138  19.133   2.326   7.677  0.1857  0.1001  0.0980
47339W        W56139  11.295   4.674  32.047  0.0896  0.1027  0.2962
47340W        W56140  25.177   2.041  22.523 -0.0319  0.1081  0.0370
47341W        W56141  24.423   3.602   3.619 -0.0685 -0.1716 -0.0037
47342W        W56142   5.070   0.776  22.718  0.2160  0.1540 -0.0620
47343W        W56143   8.699   1.314  12.877  0.1187  0.2505 -0.2660
47344W        W56144   1.639   0.752   6.558  0.3395  0.1625  0.1131
47345W        W56145   5.387   4.372  31.010  0.0355 -0.0630 -0.2157
47346W        W56146  18.975   2.175   2.735 -0.1110 -0.3875  0.0759
47347W        W56147   8.524   6.571  35.396 -0.0599  0.0790 -0.0692
47348W        W56148   1.509   1.844   1.718  0.1256  0.1464 -0.0821
47349W        W56149   1.305   5.806  13.072 -0.1385  0.1148  0.2563
47350W        W56150   0.474   5.170  24.107 -0.0166  0.3123 -0.0138
47351W        W56151  25.871   1.919  29.331 -0.1776  0.0325  0.1128
47352W        W56152  23.170   4.141  20.391 -0.1444 -0.0251 -0.1644
47353W        W56153   4.904   6.205  33.260  0.0829  0.0478  0.2950
47354W        W56154  16.329   4.159  28.931  0.2141 -0.0147  0.1009
47355W        W56155  19.937   0.198   4.150 -0.0090  0.0246 -0.0092
47356W        W56156  17.561   1.982  13.617  0.1716  0.0653  0.1662
47357W        W56157   9.580   5.930  34.455  0.1319 -0.1286  0.0991
47358W        W56158   6.986   2.507  21.966 -0.1770 -0.1076 -0.0285
47359W        W56159  15.723   1.800   0.758  0.1053  0.0963  0.0652
47360W        W56160  13.942   3.119  34.693 -0.0277  0.4124 -0.1320
47361W        W56161   3.238   0.372  10.813 -0.0147  0.3569 -0.1079
47362W        W56162  13.422   1.386  27.608  0.0468 -0.0198  0.3121
47363W        W56163   8.221   5.602  34.313  0.1287 -0.0274  0.0938
47364W        W56164  10.013   4.985   9.592 -0.0926 -0.2728 -0.0840
47365W        W56165  24.797   0.128  31.661  0.2442  0.2430 -0.0140
47366W        W56166  12.750   5.707  27.345  0.2815  0.2498  0.2827
47367W        W56167   5.855   4.646  24.140 -0.0588  0.2855 -0.1956
47368W        W56168  19.847   6.599  30.530  0.3323 -0.1642  0.0011
47369W        W56169   0.210   4.528  27.348 -0.0820 -0.1528 -0.0797
47370W        W56170  23.554   2.163  29.910 -0.2537  0.0888 -0.0782
47371W        W56171   2.936   4.583  13.387  0.2314 -0.2048  0.3414
47372W        W56172   7.889   3.995   1.722 -0.1704 -0.1504  0.1834
47373W        W56173  14.280   0.733   6.674 -0.1463 -0.0502  0.1519
47374W        W56174  17.400   5.857  20.506  0.2772 -0.2593 -0.3577
47375W        W56175   8.521   4.723  15.558  0.0047 -0.0422 -0.1978
47376W        W56176   3.262   3.856   5.775  0.0718  0.3166  0.0339
47377W        W56177   0.244   3.077  34.581  0.0792 -0.1572  0.0848
47378W        W56178  25.494   1.364   4.214  0.2656  0.0176  0.0028
47379W        W56179   5.981   2.033  13.530 -0.3138 -0.1260 -0.0995
47380W        W56180  22.609   4.210   3.184  0.1810  0.1051 -0.3299
47381W        W56181  20.276   3.971   8.584  0.1973 -0.1112  0.0874
47382W        W56182   9.998   1.777  10.059  0.1574  0.0353  0.1776
47383W        W56183  22.946   0.092   9.416 -0.3081 -0.1176 -0.3811
47384W        W56184  16.115   1.778  26.238  0.2614  0.2289 -0.1949
47385W        W56185  14.340   0.445  25.198  0.0737  0.0193  0.0176
47386W        W56186  21.061   3.935  30.184  0.3092 -0.3109  0.0264
47387W        W56187   4.575   2.331  30.013  0.0724 -0.0762  0.0721
47388W        W56188  12.656   5.298   0.264 -0.1400  0.0588  0.0390
47389W        W56189  14.597   2.774  11.661  0.0695  0.1981 -0.0705
47390W        W56190  10.739   2.219  27.520 -0.1511  0.0208 -0.2183
47391W        W56191   6.623   5.389  32.880 -0.0271  0.0418 -0.2836
47392W        W56192  10.790   6.077   7.047  0.1288 -0.1540 -0.2776
47393W        W56193  25.957   6.337  11.836 -0.4902  0.1929 -0.2101
47394W        W56194  14.411   1.205  28.490 -0.2119  0.0684  0.1882
47395W        W56195  13.506   2.426  29.509  0.0174 -0.0782  0.0039
47396W        W56196  17.541   4.866   3.243  0.0759  0.0140 -0.3626
47397W        W56197  26.386   1.423   6.353  0.1049 -0.0964 -0.3901
47398W        W56198  17.486   0.132  32.839  0.1306 -0.1858 -0.2096
47399W        W56199   2.807   2.426  22.107 -0.4062  0.1763  0.1392
47400W        W56200   8.380   1.888  12.420  0.1065 -0.1309 -0.1239
47401W        W56201   9.839   0.144  23.059  0.0343  0.0581  0.3708
47402W        W56202  23.178   6.526  30.514  0.0448  0.2587 -0.0580
47403W        W56203   2.368   4.081  34.899 -0.0005  0.0161  0.0447
47404W        W56204  11.928   1.678   4.972 -0.1050  0.1288 -0.1783
47405W        W56205  13.348   3.267   8.378 -0.0070  0.1966 -0.1389
47406W        W56206   4.682   6.235  31.478 -0.1933 -0.3113 -0.2874
47407W        W56207   6.262   3.741  33.077  0.2068 -0.1167  0.2763
47408W        W56208  20.856   1.538  36.036 -0.1746 -0.2775  0.0486
47409W        W56209  11.365   2.399   7.287  0.4253  0.2257  0.0429
47410W        W56210  21.261   4.609   4.891 -0.2755  0.1290  0.0686
47411W        W56211  19.134   1.028  10.913  0.3580  0.0381  0.0666
47412W        W56212  10.397   3.657   9.638 -0.0013  0.1325 -0.1061
47413W        W56213  17.684   2.761  11.757  0.0503  0.2748  0.1998
47414W        W56214  11.438   0.695   1.025 -0.1273  0.1143  0.3259
47415W        W56215   1.646   2.117  11.880  0.0042  0.1249 -0.0516
47416W        W56216  24.400   5.752  28.685 -0.2798  0.2653 -0.0970
47417W        W56217   1.110   2.816  32.311 -0.3009  0.1515 -0.0484
47418W        W56218   8.185   3.628   9.715 -0.3131  0.3171  0.3046
47419W        W56219  25.025   1.818   1.722  0.3233 -0.3449 -0.0486
47420W        W56220  21.013   1.438  24.288  0.0301 -0.1410  0.0391
47421W        W56221   6.155   0.754  32.725 -0.1029  0.2235 -0.4193
47422W        W56222  25.059   2.582  25.711  0.0447  0.0186 -0.1869
47423W        W56223   6.811   3.951   5.812 -0.0748 -0.2295 -0.0430
47424W        W56224  17.995   0.646  10.923 -0.1034  0.1407  0.0976
47425W        W56225  20.211   2.613  12.125  0.2467 -0.3720  0.3016
47426W        W56226   1.740   2.875  29.448  0.3521  0.0090  0.0959
47427W        W56227  10.815   2.257   0.637 -0.0807 -0.2149  0.2580
47428W        W56228  13.744   2.042  13.866  0.0228 -0.1555 -0.0028
47429W        W56229   8.136   3.094   4.259  0.0819 -0.0784 -0.3961
47430W        W56230  23.264   2.834   5.524 -0.4297  0.1017 -0.1235
47431W        W56231  22.309   5.634  28.446 -0.1496  0.1272 -0.1465
47432W        W56232  20.424   4.223  26.494 -0.2989 -0.0181 -0.0530
47433W        W56233  20.225   1.093  21.671 -0.0286  0.1036 -0.0260
47434W        W56234  15.699   2.051   6.161  0.2201 -0.2001 -0.0918
47435W        W56235   7.784   6.557  26.404  0.1555 -0.2758 -0.0333
47436W        W56236   2.308   6.194  10.278  0.0828 -0.1362  0.4223
47437W        W56237   5.337   1.385  23.021  0.0171  0.1967  0.3902
47438W        W56238   9.300   2.427  25.494 -0.2053 -0.1697 -0.1877
47439W        W56239   2.253   1.605  25.410 -0.1783  0.3009  0.2061
47440W        W56240  18.539   3.744  30.355  0.0956 -0.0792 -0.2020
47441W        W56241  20.296   0.929   0.276  0.0151 -0.2032  0.1876
47442W        W56242  19.748   3.572  27.688 -0.2069  0.2562  0.0766
47443W        W56243   5.597   5.169  25.239 -0.3007 -0.2277  0.3119
47444W        W56244   4.113   2.317   7.027  0.1867 -0.1584 -0.2350
47445W        W56245  15.017   5.207  22.715 -0.2097 -0.0352 -0.0560
47446W        W56246  14.581   1.861   1.180 -0.2997  0.0484  0.0364
47447W        W56247  24.590   4.725   2.703  0.0756  0.0272  0.2629
47448W        W56248   5.618   4.744  33.316 -0.2469  0.2753 -0.1523
47449W        W56249   3.810   2.862  32.116 -0.0575 -0.2496 -0.2444
47450W        W56250  15.066   3.898  31.725 -0.1461 -0.1997 -0.2607
47451W        W56251   2.704   0.484   9.497 -0.0088  0.1226 -0.3498
47452W        W56252  14.357   1.097  21.633 -0.0116  0.0301  0.2103
47453W        W56253   3.804   1.409  30.999 -0.2893  0.0141 -0.0342
47454W        W56254  17.274   2.447  25.641  0.1767  0.0019  0.1979
47455W        W56255  20.433   2.198   5.678  0.0253 -0.0473 -0.0602
47456W        W56256   2.215   5.433  10.039 -0.1281  0.1523 -0.0954
47457W        W56257   2.089   0.947  21.394 -0.2690 -0.0923 -0.0684
47458W        W56258  14.460   3.982   8.767 -0.0479 -0.0358  0.0877
47459W        W56259   7.103   1.052  35.597 -0.0046 -0.0467 -0.3025
47460W        W56260   1.416   3.723   2.785  0.0309  0.3834 -0.0787
47461W        W56261  26.314   5.909   3.084  0.0376 -0.2463  0.1918
47462W        W56262  15.135   2.851   8.649  0.0945 -0.1333 -0.4303
47463W        W56263  14.266   3.777  33.346 -0.0236 -0.2859 -0.2638
47464W        W56264  14.650   5.025  24.007  0.0266  0.0537  0.0678
47465W        W56265  16.439   0.055  12.541 -0.0820 -0.4586 -0.1050
47466W        W56266  16.220   1.646  22.319 -0.0171 -0.1094  0.1750
47467W        W56267  18.802   2.497  24.441  0.0702 -0.1888  0.1774
47468W        W56268  10.363   6.582  30.231  0.1253  0.3358 -0.1008
47469W        W56269   9.376   5.095  24.593 -0.1241  0.1160  0.0787
47470W        W56270   2.315   0.799   7.795 -0.1136  0.0702  0.2220
47471W        W56271  18.555   1.249  29.940  0.0471  0.1495  0.2398
47472W        W56272  15.354   1.522   3.552  0.0561  0.0916  0.3633
47473W        W56273  23.509   0.415  29.865  0.1921  0.0348 -0.0421
47474W        W56274  12.642   6.126  34.109  0.1373  0.1034  0.0476
47475W        W56275   6.353   4.916   5.026  0.0600 -0.1339 -0.0179
47476W        W56276   8.582   2.865  21.558  0.0898  0.0950 -0.3493
47477W        W56277   6.636   5.301   8.646  0.4074  0.4262 -0.3505
47478W        W56278  25.943   1.090  33.000 -0.1233 -0.2656 -0.1270
47479W        W56279  11.701   5.241  33.684 -0.0503  0.1694 -0.0238
47480W        W56280   4.504   0.193  24.476 -0.0904 -0.2700  0.0845
47481W        W56281  14.066   1.353   9.687  0.2527  0.2490 -0.0588
47482W        W56282   8.888   3.568  27.300 -0.0268 -0.0183 -0.3231
47483W        W56283  10.913   6.537   6.350  0.0004  0.2740 -0.1429
47484W        W56284  26.326   0.747  10.280 -0.2815  0.0870  0.0850
47485W        W56285   7.975   6.349  11.839 -0.2377 -0.0533 -0.2065
47486W        W56286  18.032   6.541   7.789  0.1505  0.1464  0.1251
47487W        W56287  10.097   5.708   2.619  0.2040 -0.0061 -0.2096
47488W        W56288  19.680   5.343  12.162 -0.3360  0.2602  0.1283
47489W        W56289  22.956   3.091   5.148  0.2146  0.2282 -0.2952
47490W        W56290  12.702   3.872  16.376  0.1042  0.1908  0.2229
47491W        W56291  22.254   4.085   0.423  0.0188  0.0356  0.0217
47492W        W56292   0.340   1.604  26.934  0.0276  0.1830 -0.0321
47493W        W56293  18.907   5.742   2.617  0.0073 -0.0300 -0.0599
47494W        W56294   6.983   0.999  28.980  0.2066  0.0235  0.2951
47495W        W56295  11.414   5.920  13.497  0.2528  0.0872 -0.4007
47496W        W56296   0.793   6.074   1.005  0.1092  0.1036  0.0757
47497W        W56297  15.371   4.389   0.169 -0.2153 -0.0318 -0.0792
47498W        W56298   7.755   2.832  11.799  0.3843 -0.1001 -0.0364
47499W        W56299   6.901   4.123  30.778  0.1021  0.0096  0.1460
47500W        W56300  25.092   5.701  25.260  0.0629  0.1633 -0.1971
47501W        W56301   7.300   4.087   5.914  0.1568 -0.1327  0.1861
47502W        W56302  24.668   2.999  29.137  0.2646 -0.0473 -0.2142
47503W        W56303   5.127   6.491  13.710 -0.0034  0.2736  0.0650
47504W        W56304  11.666   0.328   2.240  0.2001  0.3305  0.1225
47505W        W56305  10.146   6.589  27.078  0.1886  0.1413 -0.1094
47506W        W56306  16.653   6.374  11.190 -0.2625 -0.3266  0.2848
47507W        W56307   2.605   3.305  12.722  0.2540 -0.0987  0.2692
47508W        W56308   7.312   2.906  28.299  0.0535 -0.2189  0.0101
47509W        W56309   0.984   4.197  22.141 -0.0162 -0.2261 -0.2142
47510W        W56310  20.019   3.494   2.785 -0.0894  0.1377 -0.0943
47511W        W56311  13.568   1.549  29.623 -0.1375  0.2958 -0.3407
47512W        W56312   0.044   6.557   9.404  0.0548  0.3107  0.3085
47513W        W56313  19.474   2.923  11.597  0.4154 -0.3526 -0.2935
47514W        W56314  19.367   4.539  35.989  0.1112 -0.0485 -0.2781
47515W        W56315  24.215   3.711   0.112 -0.1652 -0.2741 -0.1691
47516W        W56316   5.164   0.322  25.857 -0.3280  0.2445 -0.1860
47517W        W56317   7.382   0.784   3.484  0.1118  0.2915 -0.2808
47518W        W56318  21.521   4.611  29.589 -0.0088 -0.0994 -0.2573
47519W        W56319   8.954   4.577  23.606  0.2876 -0.1848  0.0630
47520W        W56320   8.378   3.453  14.134 -0.3895 -0.1980 -0.2616
47521W        W56321   8.909   4.238   5.220  0.2842  0.1814 -0.1802
47522W        W56322  18.380   1.254  25.045  0.3246 -0.0813 -0.0912
47523W        W56323   8.354   1.103   9.420  0.4508  0.1858  0.1305
47524W        W56324   5.313   2.852  36.046 -0.2068  0.0676 -0.2676
47525W        W56325   2.454   3.428  14.226  0.1172 -0.0183 -0.0766
47526W        W56326  17.786   3.618   8.559  0.3341 -0.0110  0.1502
47527W        W56327   5.934   0.777  10.363 -0.1611  0.0014  0.2088
47528W        W56328  19.457   2.676   8.801  0.0580  0.0539  0.0146
47529W        W56329  12.689   0.931   5.240 -0.3059 -0.1108  0.3636
47530W        W56330   3.350   1.633  34.227  0.0436  0.3976 -0.0303
47531W        W56331   3.115   5.869   8.024  0.2321 -0.0422  0.1242
47532W        W56332  14.836   2.795  27.591 -0.1786  0.0315 -0.4935
47533W        W56333  23.592   0.594  35.267  0.0138  0.0281  0.0375
47534W        W56334  20.778   5.210  35.942  0.1360 -0.4589  0.1036
47535W        W56335  11.237   5.725   2.853 -0.0316 -0.3518  0.1064
47536W        W56336  11.390   2.080  32.870  0.1369  0.0851  0.1302
47537W        W56337  15.377   4.729   9.573 -0.1242 -0.1805 -0.3019
47538W        W56338  20.959   5.912  36.163  0.1949  0.2616  0.1602
47539W        W56339  14.324   3.798   5.482 -0.0531 -0.1172  0.1618
47540W        W56340  23.017   5.897  12.974 -0.0384 -0.1792  0.0382
47541W        W56341  15.732   3.148  31.339  0.0810  0.0379 -0.1826
47542W        W56342  16.804   0.561   1.933  0.0594 -0.1545 -0.0833
47543W        W56343   5.453   3.434   3.258  0.0555  0.2130  0.2811
47544W        W56344  14.384   5.626   5.760 -0.1273  0.2296 -0.0447
47545W        W56345  20.903   1.180   3.914 -0.0591 -0.2419 -0.0718
47546W        W56346   6.950   3.174  12.252 -0.3876 -0.1052 -0.2997
47547W        W56347  19.435   1.137  13.211  0.0965  0.0505  0.0767
47548W        W56348  13.014   3.606   8.387  0.0330  0.1860 -0.0202
47549W        W56349  25.939   6.338  23.663 -0.1482 -0.1557  0.0060
47550W        W56350  21.316   3.969   6.692  0.0271  0.1528 -0.0377
47551W        W56351  16.066   4.948   7.299 -0.1515 -0.0298  0.4128
47552W        W56352  11.084   0.854   6.743 -0.0080  0.3404 -0.3002
47553W        W56353   3.384   3.716  28.119 -0.1872  0.0345  0.0251
47554W        W56354   5.446   4.681  10.843  0.1293 -0.0490 -0.0886
47555W        W56355  23.618   5.002  13.270 -0.2905 -0.1659 -0.0770
47556W        W56356   5.370   5.737  35.073  0.4227  0.0663 -0.0304
47557W        W56357   1.117   2.183  26.222 -0.1984  0.1677 -0.0031
47558W        W56358  10.918   3.462   5.146  0.0306  0.0621  0.0323
47559W        W56359  13.846   0.032   0.738 -0.0039 -0.0564 -0.0825
47560W        W56360   9.758   4.136  35.346 -0.1513 -0.0598 -0.0517
47561W        W56361   7.175   4.436  34.905 -0.2490  0.0062  0.0878
47562W        W56362  20.795   0.975  15.634  0.1486  0.0746 -0.0177
47563W        W56363  23.599   0.753   8.734  0.1925 -0.0175 -0.2623
47564W        W56364  23.125   6.507  23.103 -0.0532  0.0938  0.1545
47565W        W56365  15.337   2.632   2.633 -0.2913  0.1288  0.0806
47566W        W56366  11.901   0.925   1.226 -0.1986  0.2064 -0.1793
47567W        W56367   4.196   4.652  24.667 -0.0804  0.2111 -0.1110
47568W        W56368  24.190   0.532  11.055 -0.0850  0.1679 -0.1395
47569W        W56369  16.842   4.619   4.519  0.0218  0.1453 -0.0475
47570W        W56370  21.875   2.829  14.341  0.0682  0.0506  0.1925
47571W        W56371  16.359   4.913  32.711 -0.4443  0.0095 -0.0984
47572W        W56372   1.772   5.307   6.345  0.1265 -0.3260 -0.0665
47573W        W56373  23.240   1.811  29.133 -0.0156 -0.1704 -0.0786
47574W        W56374  15.918   6.466   7.000 -0.1269 -0.1661  0.0318
47575W        W56375   7.268   6.603   7.498 -0.2017 -0.1560 -0.2358
47576W        W56376   8.545   3.522  28.088 -0.0254 -0.1991  0.0471
47577W        W56377   9.301   3.708  13.688 -0.0360 -0.1201 -0.2167
47578W        W56378   2.988   2.145  20.467 -0.2054  0.1872 -0.3185
47579W        W56379   8.464   4.854  24.328 -0.0506 -0.0452 -0.1306
47580W        W56380  22.977   6.270  35.974 -0.1043 -0.1493 -0.0717
47581W        W56381   1.415   1.590  13.402  0.0416 -0.0203  0.0954
47582W        W56382   5.487   5.966  19.965  0.0867 -0.1514  0.2084
47583W        W56383  16.849   5.560  15.275  0.1359  0.0991 -0.2116
47584W        W56384  24.086   2.807   6.141  0.1595 -0.1585 -0.1945
47585W        W56385  21.664   4.261  26.523 -0.1692 -0.1225  0.1606
47586W        W56386   7.038   3.670   2.743  0.0956 -0.0349  0.0940
47587W        W56387  10.086   3.334  28.151  0.6095  0.1291  0.5353
47588W        W56388  21.437   5.999  10.948  0.3921  0.0836 -0.1225
47589W        W56389  13.573   1.334  36.035  0.1000  0.0617 -0.3255
47590W        W56390  11.715   1.601  24.047  0.0301 -0.1563 -0.0704
47591W        W56391  19.247   0.032   9.870 -0.1393  0.0582  0.0004
47592W        W56392   7.727   2.592   5.491 -0.2914 -0.0322  0.3316
47593W        W56393  21.155   0.695   9.165  0.0521 -0.2550  0.1519
47594W        W56394  10.817   2.772  10.227  0.0936 -0.0113 -0.0242
47595W        W56395   6.041   1.650   8.394  0.0247 -0.2247 -0.1727
47596W        W56396  15.975   0.660  29.424  0.4656  0.3127  0.2204
47597W        W56397  18.721   2.696  34.929 -0.1602 -0.1922  0.1540
47598W        W56398   1.429   2.888  27.609  0.1094 -0.3157  0.0030
47599W        W56399   9.750   5.956  26.372 -0.3251 -0.1633 -0.1216
47600W        W56400  16.564   3.538  33.194  0.2115 -0.3801 -0.2610
47601W        W56401  18.633   0.229   2.654 -0.0536  0.1309 -0.2913
47602W        W56402   0.162   5.731  29.106 -0.2547 -0.2302  0.0029
47603W        W56403   4.648   4.184   6.172 -0.0914  0.1831  0.3844
47604W        W56404   6.304   5.617  31.899  0.0986 -0.2751  0.2989
47605W        W56405  20.323   5.042   9.620 -0.3051  0.0379  0.1250
47606W        W56406   6.573   6.190  10.064 -0.0607  0.4681  0.0815
47607W        W56407   6.184   4.737  30.784  0.1006  0.0091  0.0442
47608W        W56408  13.119   5.853  26.822 -0.0135  0.1700  0.0326
47609W        W56409  26.191   3.381  30.471  0.0353 -0.0176 -0.1467
47610W        W56410   1.987   4.127   2.313 -0.1543  0.1052 -0.0303
47611W        W56411  17.548   2.751   0.325 -0.0804  0.1155 -0.1449
47612W        W56412  14.013   4.793  24.227 -0.0248 -0.0101 -0.0499
47613W        W56413  26.325   5.717   3.559 -0.0279  0.2432  0.2897
47614W        W56414  12.650   0.955  25.080 -0.0250  0.0736  0.1234
47615W        W56415   8.728   2.595  34.083  0.0771  0.0101  0.0576
47616W        W56416   0.997   4.635   2.760 -0.2325  0.3695  0.2398
47617W        W56417  14.552   1.982  12.514  0.1609 -0.0395 -0.3092
47618W        W56418  13.652   3.646  12.411  0.1703  0.0915 -0.3670
47619W        W56419   0.988   6.221  25.195 -0.1849 -0.2303  0.0563
47620W        W56420   2.012   2.576   4.895  0.1498  0.1285 -0.1249
47621W        W56421  23.517   5.825  13.990 -0.0997 -0.0709 -0.2203
47622W        W56422  19.586   2.597  28.043 -0.1027 -0.0518  0.1976
47623W        W56423  13.066   1.553  29.729 -0.0338  0.0914 -0.0789
47624W        W56424  11.050   3.271  13.458  0.2048  0.1518  0.0177
47625W        W56425  18.941   5.873  20.459 -0.1614 -0.0063  0.2891
47626W        W56426  11.195   1.969   0.646  0.3978 -0.1974  0.3245
47627W        W56427  21.764   6.366  22.405 -0.3269  0.0216 -0.0889
47628W        W56428   1.393   0.476   0.255 -0.0747  0.1308  0.4158
47629W        W56429  17.387   6.089  24.311 -0.0294  0.4285  0.2146
47630W        W56430  17.904   4.364  21.052  0.1373 -0.0130  0.3742
47631W        W56431   0.846   3.038  21.254  0.1487  0.1011  0.2767
47632W        W56432   4.924   0.355  14.381  0.0401 -0.1065 -0.3871
47633W        W56433  11.440   6.404  28.008  0.0865  0.0484  0.0569
47634W        W56434  10.286   6.335  33.378 -0.1045  0.1199  0.0549
47635W        W56435  18.852   3.909   2.938 -0.0705  0.0303 -0.0693
47636W        W56436  14.968   6.202  25.843 -0.1156 -0.1957  0.0435
47637W        W56437   7.611   0.743   3.014 -0.0751 -0.3035  0.3155
47638W        W56438  23.804   5.011   9.667  0.0680 -0.1700 -0.3991
47639W        W56439   7.304   0.613  31.697 -0.0156 -0.0908 -0.0053
47640W        W56440  20.303   3.111   9.341 -0.0833  0.0817 -0.1344
47641W        W56441  15.140   3.628   7.296  0.0380 -0.1886  0.1952
47642W        W56442   5.581   3.453   1.976  0.1963  0.0386  0.1180
47643W        W56443  12.496   0.346  14.116  0.1182 -0.2258  0.3067
47644W        W56444  21.593   4.550   1.149 -0.0855  0.0471 -0.0477
47645W        W56445  13.552   2.842  28.537  0.2854  0.1489  0.3675
47646W        W56446   8.911   1.195  21.005 -0.1537 -0.0721  0.1024
47647W        W56447  23.163   0.895   9.997 -0.2714 -0.0123  0.1140
47648W        W56448  24.067   1.872   5.463  0.0759 -0.1386  0.2320
47649W        W56449  10.341   0.319  33.957 -0.0683  0.0002 -0.0461
47650W        W56450   1.513   0.537  30.304  0.1531  0.0637  0.1696
47651W        W56451   2.590   4.304   4.465 -0.1420 -0.0594  0.0649
47652W        W56452   4.945   4.463  27.462  0.2249  0.2977 -0.3432
47653W        W56453  22.086   3.263  29.960 -0.1526 -0.0858  0.0583
47654W        W56454  19.250   3.266   2.309  0.0319  0.0609 -0.0663
47655W        W56455   9.654   5.449  10.185  0.1826  0.0555 -0.0950
47656W        W56456  14.834   4.541  11.702 -0.0547 -0.0262  0.2422
47657W        W56457  25.347   3.151   5.136 -0.1658  0.0346  0.0629
47658W        W56458  12.118   0.069   0.882  0.0433  0.0154 -0.1005
47659W        W56459   2.729   1.022  23.933 -0.0219 -0.3867  0.2489
47660W        W56460  25.915   0.475  24.778  0.0516 -0.2591 -0.0502
47661W        W56461  20.905   5.179  10.630  0.1299  0.1142  0.1898
47662W        W56462   4.041   2.993  21.925  0.1156 -0.0505 -0.1378
47663W        W56463  20.324   3.120   2.129  0.0336 -0.0603  0.1561
47664W        W56464  11.006   2.130  11.867  0.1827 -0.1451 -0.0315
47665W        W56465  10.695   2.440   1.390  0.0682  0.1249  0.0167
47666W        W56466   4.252   4.215  12.622 -0.1524  0.0834  0.0522
47667W        W56467  19.394   2.973  26.486 -0.0521  0.0026  0.1798
47668W        W56468  17.211   3.182  32.318  0.3430 -0.2232  0.0633
47669W        W56469  12.315   6.372   0.384  0.2966  0.1480 -0.0850
47670W        W56470  14.545   4.121   9.309  0.2175 -0.0521 -0.0472
47671W        W56471  18.527   5.077  10.509  0.1049 -0.0207  0.0638
47672W        W56472   9.389   5.891  31.620 -0.0514  0.3676 -0.0735
47673W        W56473  22.371   3.706   8.383  0.1938  0.2137 -0.0899
47674W        W56474  22.921   5.909  29.156 -0.0593  0.2767  0.1746
47675W        W56475  13.491   4.269  22.655  0.3017 -0.3841  0.0856
47676W        W56476   7.724   6.531  11.410 -0.1710 -0.2393 -0.0817
47677W        W56477  11.741   4.338   4.536  0.1027 -0.0461 -0.2839
47678W        W56478   0.487   1.284  33.933 -0.1761  0.1320  0.3637
47679W        W56479  20.050   1.490  23.681  0.2014  0.1293 -0.1019
47680W        W56480  22.248   1.061   4.371  0.0715  0.0925  0.1721
47681W        W56481  10.288   0.107  10.335  0.3777  0.1837  0.0552
47682W        W56482  11.861   2.878  25.667 -0.1820  0.2410 -0.0235
47683W        W56483  14.094   2.963   9.311  0.4662 -0.0821  0.0631
47684W        W56484   8.569   1.258   3.137 -0.0259 -0.0606  0.0022
47685W        W56485  14.852   3.571   5.526 -0.0673 -0.1318  0.2899
47686W        W56486  16.459   3.935  30.671  0.0518 -0.0732 -0.1668
47687W        W56487  18.229   1.363   8.325  0.2152  0.0820 -0.0785
47688W        W56488   2.145   2.510  32.444 -0.1984  0.1344 -0.0397
47689W        W56489  25.333   6.369   5.648  0.0180  0.3954  0.2336
47690W        W56490   1.925   2.633  15.813  0.0279 -0.0421  0.2505
47691W        W56491   3.919   6.560  31.882 -0.1070 -0.0924  0.2404
47692W        W56492   4.920   3.868  10.676  0.0549 -0.3244 -0.2641
47693W        W56493   8.494   0.568  20.989 -0.2519 -0.2496  0.3309
47694W        W56494   7.818   5.250  21.132  0.1288  0.1988 -0.0195
47695W        W56495   2.136   1.969  35.957  0.2889  0.1313  0.0298
47696W        W56496  14.642   5.377  25.971  0.0140  0.0769 -0.1171
47697W        W56497  14.759   6.449   6.467 -0.0981  0.1660  0.1460
47698W        W56498  10.850   3.902  31.193  0.0862 -0.1435 -0.0458
47699W        W56499  16.581   0.531  30.959  0.0997 -0.0230  0.1014
47700W        W56500  13.867   5.309  30.579 -0.0996  0.1707  0.1424
47701W        W56501  15.716   2.255  34.512 -0.1082  0.2431 -0.0963
47702W        W56502  26.355   1.931   6.468  0.2338  0.1083  0.0939
47703ION     NA56503  17.034   4.287  11.883 -0.3016 -0.1766  0.0834
47704ION     NA56504  11.520   3.475  27.470 -0.0623 -0.2350 -0.0616
47705ION     NA56505  16.425   0.213  35.517 -0.1962 -0.1976 -0.0433
47706ION     NA56506   8.116   4.938  30.999 -0.4477  0.2955  0.4219
47707ION     NA56507   4.843   3.693   1.225 -0.0282  0.1817  0.1328
47708ION     NA56508  19.488   1.001  27.071  0.1279  0.0908 -0.3023
47709ION     NA56509   4.113   1.492   6.813  0.2670  0.5003 -0.3930
47710ION     NA56510  24.194   5.659   3.486  0.1451 -0.0439 -0.0478
47711ION     NA56511  17.211   6.076  26.327  0.1636 -0.1170 -0.0347
47712ION     NA56512  23.192   1.811  27.462  0.0260  0.1608 -0.3276
47713ION     NA56513  14.932   0.058  33.507  0.0091  0.1217  0.2638
47714ION     NA56514   5.194   2.082  23.629 -0.2706  0.0862 -0.2425
47715ION     NA56515  13.230   1.204  28.962 -0.3663  0.0250  0.0156
47716ION     NA56516  20.317   3.277  33.505  0.7057 -0.1030  0.0051
47717ION     NA56517   4.120   5.711   6.338  0.4400  0.3747 -0.1893
47718ION     NA56518   3.690   1.805   7.743 -0.2991 -0.3161  0.4966
47719ION     NA56519  16.699   0.580  30.248  0.0409 -0.0864 -0.2769
47720ION     NA56520  15.878   2.556  27.547 -0.4623 -0.3017  0.0671
47721ION     NA56521   9.867   2.371  11.214 -0.0477 -0.3162 -0.0735
47722ION     NA56522   3.861   5.948  14.886  0.0054 -0.4504  0.0664
47723ION     NA56523   6.400   5.599   2.864  0.0929 -0.6721  0.1161
47724ION     NA56524  21.197   3.647  11.180  0.0139 -0.0626  0.2413
47725ION     NA56525   7.316   0.226  27.548 -0.0524 -0.2966  0.0619
47726ION     NA56526  23.420   0.662  11.579 -0.3845 -0.5421  0.0499
47727ION     NA56527   2.169   3.874  22.753 -0.0699  0.2487  0.0199
47728ION     NA56528  13.477   0.458  13.237  0.1452 -0.1634 -0.0244
47729ION     NA56529  15.482   4.745  28.380  0.2183 -0.0963  0.2175
47730ION     NA56530  24.725   5.880  30.259  0.0772  0.0922 -0.2072
47731ION     NA56531  22.791   1.104  28.013  0.0404 -0.4556 -0.5826
47732ION     NA56532  21.260   4.318  31.191  0.2514  0.6892  0.2203
47733ION     NA56533  16.461   5.866  24.215 -0.0813 -0.0832  0.1772
47734ION     NA56534   5.669   0.351   1.051  0.2472 -0.1240 -0.1864
47735ION     NA56535  14.392   5.121  31.818 -0.3377  0.0248 -0.2372
47736ION     NA56536   7.731   0.958  11.820 -0.3562 -0.4311  0.1544
47737ION     NA56537  21.749   1.440  24.865 -0.0086  0.2121  0.0531
47738ION     NA56538   5.552   6.125  26.012 -0.0291  0.1344 -0.2746
47739ION     NA56539   7.801   2.511  23.771  0.1059  0.2904  0.1281
47740ION     NA56540   3.302   2.671   5.204  0.5111 -0.0041 -0.3283
47741ION     NA56541  24.431   5.396  23.590 -0.0555  0.0475 -0.1407
47742ION     NA56542  11.194   5.249  27.284  0.1175 -0.1082  0.3353
47743ION     NA56543  18.066   5.710   5.399  0.0572  0.0795  0.0473
47744ION     NA56544  25.685   2.602  35.094 -0.0909 -0.0414 -0.0311
47745ION     NA56545   6.634   6.608  33.157  0.1205 -0.1432  0.1105
47746ION     NA56546  18.514   6.089  23.751 -0.1951 -0.0696 -0.2537
47747ION     NA56547   8.694   2.087  21.785  0.4612  0.1030 -0.0027
47748ION     NA56548  24.250   6.601  32.035 -0.0015 -0.8718  0.3949
47749ION     NA56549   0.624   3.202   5.683 -0.3144 -0.4965 -0.5303
47750ION     NA56550  12.753   0.216   6.897  0.4035  0.2445 -0.4337
47751ION     NA56551  14.327   5.062   6.978  0.2562  0.0444 -0.1547
47752ION     NA56552   4.325   4.164  21.417 -0.0967 -0.0077  0.1903
47753ION     NA56553   2.018   5.896  30.349 -0.5341  0.0449  0.0846
47754ION     NA56554  16.455   3.113  25.402  0.1308  0.1267 -0.0377
47755ION     NA56555  10.116   5.612   6.232  0.4400  0.6106 -0.3814
47756ION     NA56556  19.440   0.103  25.929  0.2041 -0.1816 -0.0248
47757ION     NA56557  12.352   0.269   2.248  0.2490 -0.3012  0.1207
47758ION     NA56558   9.170   3.521   3.614  0.2073 -0.4348 -0.3710
47759ION     NA56559  24.454   2.468  13.784  0.0008 -0.1948 -0.2118
47760ION     NA56560  11.552   2.889  12.321  0.1613 -0.1697  0.1250
47761ION     NA56561  12.935   3.407  32.684 -0.1215 -0.0846 -0.2398
47762ION     NA56562   2.577   2.471  13.872 -0.1232 -0.0634 -0.3590
47763ION     NA56563  11.296   1.614   4.591  0.1097 -0.1208  0.0310
47764ION     NA56564   7.308   6.236  28.720  0.2201 -0.0160 -0.1202
47765ION     NA56565  25.836   4.107   9.057  0.0019 -0.1671  0.1228
47766ION     NA56566  19.802   3.669   5.951 -0.1678  0.5783  0.1325
47767ION     NA56567  25.909   5.781   2.776 -0.1951 -0.1410  0.3484
47768ION     NA56568  19.966   1.364  10.663 -0.0801 -0.6986  0.1682
47769ION     NA56569   0.942   5.276  11.289  0.1563  0.1693  0.4808
47770ION     NA56570  24.732   0.811  13.456  0.1636 -0.2330  0.2951
47771ION     NA56571   7.804   0.940  33.923  0.3875 -0.2871  0.4718
47772ION     NA56572  13.244   6.298   2.708  0.0674 -0.1827 -0.3779
47773ION     NA56573  17.420   2.114   0.514 -0.2976 -0.1465 -0.5462
47774ION     NA56574  21.036   6.089   2.000 -0.1430 -0.1662 -0.0608
47775ION     NA56575  15.511   4.378  10.476  0.0282  0.1812  0.3587
47776ION     NA56576  24.916   3.851   5.121  0.0325  0.2092  0.1348
47777ION     NA56577   7.371   6.105  31.087  0.0103 -0.2396 -0.3821
47778ION     NA56578   1.662   2.767  27.302 -0.3405 -0.2138 -0.3088
47779ION     NA56579  24.597   5.984  34.925  0.2376  0.0121  0.1242
47780ION     NA56580  15.907   1.603  35.458  0.1343 -0.2254  0.1908
47781ION     NA56581  11.785   2.403   7.493 -0.0218 -0.2022 -0.3737
47782ION     NA56582  13.262   0.796   2.774  0.1066 -0.0244  0.0680
47783ION     NA56583  23.463   2.265  30.322  0.5020  0.1063 -0.0841
47784ION     NA56584   8.014   0.660  22.640 -0.3275 -0.3773 -0.0781
47785ION     NA56585  16.929   6.302  28.160  0.2005 -0.0295  0.2826
47786ION     NA56586  21.760   2.331   2.347  0.1506 -0.1973 -0.2415
47787ION     NA56587  22.121   3.160  35.668  0.0575 -0.2943  0.0702
47788ION     NA56588  14.992   4.172  30.973  0.1994 -0.0206 -0.3356
47789ION     NA56589  21.624   6.059  14.812 -0.4193  0.5290  0.2178
47790ION     NA56590   3.750   1.007  20.713 -0.2470  0.0003  0.0844
47791ION     NA56591  21.592   5.118  13.617  0.5769 -0.5901 -0.0894
47792ION     NA56592   6.174   2.329  14.191  0.1171 -0.1805 -0.2704
47793ION     NA56593   9.804   1.081  30.365 -0.0694 -0.0665 -0.0780
47794ION     NA56594   1.349   6.569   3.799 -0.0391  0.2317 -0.1787
47795ION     NA56595  22.028   0.992   8.824  0.0774 -0.0553 -0.0022
47796ION     NA56596  16.518   4.756   8.916 -0.0089  0.0494 -0.4051
47797ION     NA56597  23.321   1.680   3.910 -0.0109  0.2232 -0.1690
47798ION     NA56598  18.032   4.113  21.385 -0.6899 -0.0922 -0.1631
47799ION     NA56599   6.901   4.734  24.983  0.0190  0.6550  0.2677
47800ION     NA56600   0.575   3.315   4.943  0.2089 -0.3897  0.0023
47801ION     NA56601   0.296   4.968   8.415  0.3121  0.0025 -0.0648
47802ION     NA56602  14.822   5.546  29.796 -0.2676  0.0500 -0.0270
47803ION     NA56603  12.769   0.076  28.032 -0.5295  0.0408 -0.1700
47804ION     NA56604  17.085   3.984  26.690  0.2084  0.3841  0.1660
47805ION     NA56605   0.691   4.495  35.132 -0.2269 -0.2009 -0.2357
47806ION     NA56606  26.297   1.200  25.611  0.1338 -0.1255  0.1060
47807ION     NA56607   1.784   1.307  32.965 -0.6580  0.2933  0.2323
47808ION     NA56608   1.881   0.736  23.843  0.2602  0.1186  0.0592
47809ION     NA56609  15.462   1.586   2.216 -0.1599  0.3526 -0.2216
47810ION     NA56610  25.266   6.258  34.008  0.2105 -0.1478 -0.1335
47811ION     NA56611  20.391   3.728  30.533  0.1538 -0.1371  0.3604
47812ION     NA56612   2.232   0.496  22.699 -0.1132  0.1560 -0.3160
47813ION     NA56613  22.704   3.356  23.747 -0.0746  0.1370  0.0115
47814ION     NA56614  12.893   6.453  21.312 -0.1175  0.1180  0.0742
47815ION     NA56615   5.549   4.998   4.424  0.2281  0.0669  0.0162
47816ION     NA56616   5.921   2.248  27.952  0.0921  0.3162  0.2999
47817ION     NA56617  15.505   1.920   8.698  0.0750 -0.0882  0.1205
47818ION     NA56618   1.601   5.248  13.992  0.1594  0.3871  0.0119
47819ION     NA56619   5.695   1.060  34.948 -0.0620 -0.0270  0.2182
47820ION     NA56620   5.130   3.070   7.126 -0.0025  0.2308  0.2064
47821ION     NA56621  20.765   2.311  23.106  0.3712 -0.0054  0.1444
47822ION     NA56622   0.178   3.529  34.678 -0.0396  0.0579  0.0312
47823ION     NA56623  20.424   2.830   9.972 -0.2767 -0.5632 -0.1062
47824ION     NA56624   0.501   1.593  31.992 -0.4428 -0.1920 -0.4810
47825ION     NA56625  12.584   2.711   0.583 -0.0518 -0.0337  0.2717
47826ION     NA56626   9.749   1.476  10.229  0.0606  0.1180 -0.5360
47827ION     NA56627  20.785   3.154   2.201  0.2168  0.0376 -0.0775
47828ION     NA56628  23.347   0.655  25.541  0.1813 -0.1318  0.0506
47829ION     NA56629  18.275   1.727  30.603 -0.2267  0.4072  0.0353
47830ION     NA56630  16.171   4.039  26.256 -0.4241 -0.0008  0.3622
47831ION     NA56631  24.856   5.779  23.161  0.0997  0.0309  0.1662
47832ION     NA56632  18.125   5.917  36.037 -0.0718 -0.0431  0.1677
47833ION     NA56633   7.231   1.279  13.620  0.0902  0.2115 -0.1328
47834ION     NA56634  13.184   1.795   9.649 -0.1828 -0.0965  0.2892
47835ION     NA56635  22.007   1.487  33.794 -0.3333 -0.5867  0.1635
47836ION     NA56636  12.175   4.114  12.015 -0.1203  0.0951  0.1520
47837ION     NA56637   8.506   4.505  23.636  0.1556  0.2443  0.0048
47838ION     NA56638  18.901   3.960  11.053  0.4290 -0.2582  0.3142
47839ION     NA56639   9.162   1.113   8.654  0.0759 -0.4842  0.2789
47840ION     NA56640  22.630   2.409   3.484  0.4071 -0.1687 -0.1635
47841ION     NA56641   5.491   1.642  14.866 -0.3765 -0.0584 -0.0439
47842ION     NA56642   7.101   3.508  25.486 -0.2498 -0.0881  0.3202
47843ION     NA56643   8.176   0.481  35.021 -0.0969  0.0532  0.2267
47844ION     NA56644  20.784   5.098  13.602  0.1051  0.0482 -0.2715
47845ION     NA56645  22.984   3.118   5.582  0.2282 -0.1362 -0.3306
47846ION     NA56646  16.436   5.305   1.581 -0.2706  0.4579  0.0844
47847ION     NA56647  10.225   4.034   2.681 -0.0169  0.1184  0.0377
47848ION     CL56648   0.419   1.418   9.550  0.1002  0.3008 -0.1958
47849ION     CL56649  16.723   4.464  27.176  0.1668 -0.0715  0.4786
47850ION     CL56650   0.359   1.552  10.946  0.0885 -0.1392  0.0262
47851ION     CL56651   0.798   2.881  26.930 -0.2021  0.2862  0.3085
47852ION     CL56652   3.513   2.724  24.530  0.1734 -0.4116  0.1599
47853ION     CL56653   8.625   6.264  12.353  0.1581 -0.4192 -0.1646
47854ION     CL56654  22.795   0.149  12.522  0.1683 -0.0285 -0.3628
47855ION     CL56655  13.767   5.492  12.444  0.0905  0.0501  0.3928
47856ION     CL56656  13.421   0.480   7.719 -0.1373  0.1890  0.4420
47857ION     CL56657  25.252   0.989  33.135 -0.1235 -0.1438  0.0736
47858ION     CL56658  12.262   0.955  24.064 -0.2604  0.1175 -0.1386
47859ION     CL56659   9.967   0.756  10.770  0.0204  0.0928  0.1083
47860ION     CL56660  11.381   5.538  27.360  0.2270 -0.1065 -0.1569
47861ION     CL56661  13.459   0.543  35.459 -0.1081 -0.4347  0.0773
47862ION     CL56662  15.490   1.204   3.326 -0.1514  0.6634  0.0280
47863ION     CL56663  15.424   4.360   1.392 -0.1505 -0.1678  0.1237
47864ION     CL56664  18.413   5.804  36.159  0.2292 -0.1282 -0.2235
47865ION     CL56665  12.814   2.300  32.977 -0.0103 -0.2979  0.0204
47866ION     CL56666   7.185   1.894  32.159  0.2591  0.2982 -0.0453
47867ION     CL56667  15.406   6.391  25.645  0.4022  0.0011 -0.3931
47868ION     CL56668  24.955   6.418  23.697 -0.0413 -0.0241  0.0647
47869ION     CL56669   2.163   5.312  33.720  0.1032  0.1937  0.0032
47870ION     CL56670  21.435   4.880  13.457 -0.2930  0.3051 -0.0833
47871ION     CL56671   1.344   0.525   9.335  0.6219  0.5560 -0.1634
47872ION     CL56672  12.944   6.479   7.935 -0.1497  0.2367  0.3464
47873ION     CL56673  26.087   1.821  33.189  0.1274 -0.2052  0.2193
47874ION     CL56674   8.906   6.477  22.717 -0.0881 -0.1424  0.2936
47875ION     CL56675  20.809   5.692  34.596 -0.1932  0.2051 -0.0579
47876ION     CL56676   3.125   4.059  14.791 -0.2208  0.1704 -0.1832
47877ION     CL56677   7.342   3.660  31.985  0.3673 -0.3085 -0.1032
47878ION     CL56678  23.786   4.700  12.454  0.5360 -0.4687 -0.0840
47879ION     CL56679  13.027   5.988   2.711  0.1101  0.4065  0.1074
47880ION     CL56680  13.054   1.997  34.244  0.2122  0.1449 -0.2938
47881ION     CL56681   9.306   5.069  26.563  0.0633 -0.4006 -0.1415
47882ION     CL56682  12.118   3.422  26.982 -0.2221 -0.0571  0.0928
47883ION     CL56683  14.402   1.985   0.792  0.0398 -0.3083  0.0127
47884ION     CL56684  21.962   5.656  26.433  0.0861 -0.5568 -0.3375
47885ION     CL56685  20.099   1.960   7.836 -0.3433  0.2143 -0.0967
47886ION     CL56686  17.711   2.495   4.166 -0.0581 -0.0629  0.1844
47887ION     CL56687   7.217   1.615  13.650  0.1018 -0.0460 -0.2508
47888ION     CL56688   9.097   1.450   4.415 -0.1814 -0.2492  0.0243
47889ION     CL56689  26.188   3.892   8.678 -0.1545 -0.1747  0.0727
47890ION     CL56690   2.587   2.985   1.350 -0.2659  0.4168 -0.1673
47891ION     CL56691   9.142   4.725  29.924 -0.0240 -0.3180 -0.1543
47892ION     CL56692  14.573   2.409  10.488 -0.0635  0.0392 -0.2148
47893ION     CL56693   2.221   4.129   9.505  0.0931 -0.3368 -0.2717
47894ION     CL56694   6.056   3.718  30.610  0.4312 -0.3000  0.0919
47895ION     CL56695  11.761   2.489  15.064 -0.1339 -0.2283  0.5165
47896ION     CL56696  11.684   0.846   3.027  0.2598  0.2075 -0.1627
47897ION     CL56697  25.811   5.620   5.148 -0.3520  0.0011 -0.1619
47898ION     CL56698  11.801   4.056   4.855  0.0603 -0.2517 -0.2533
47899ION     CL56699   6.174   3.532  21.792 -0.1426  0.1600 -0.0640
47900ION     CL56700  17.760   6.006  12.495 -0.1731  0.0385  0.0648
47901ION     CL56701  16.187   4.667  10.051  0.1586  0.0105 -0.0640
47902ION     CL56702  13.808   4.569   1.661  0.3488  0.2520 -0.2284
47903ION     CL56703  26.108   4.319   4.946 -0.2645 -0.0217  0.5421
47904ION     CL56704  24.659   2.148   6.596  0.0388 -0.2379 -0.2528
47905ION     CL56705  17.894   0.841  24.058 -0.2674  0.0245  0.0713
47906ION     CL56706  22.963   0.658  30.436 -0.3365  0.2561 -0.3488
47907ION     CL56707   6.440   1.895  28.315 -0.3067  0.0949 -0.1012
47908ION     CL56708   5.621   2.682   3.438  0.0608 -0.0736 -0.0517
47909ION     CL56709   9.190   1.220  25.314  0.3560 -0.1247 -0.2471
47910ION     CL56710   8.685   6.154   3.572 -0.2914  0.2000  0.3948
47911ION     CL56711   8.713   2.523  13.154  0.4000 -0.2895  0.2818
47912ION     CL56712  15.719   5.874   3.834  0.0567  0.3888 -0.0560
47913ION     CL56713  22.283   1.708  24.664 -0.1023 -0.1292  0.5231
47914ION     CL56714   6.888   0.597  32.969 -0.0840 -0.0529 -0.3121
47915ION     CL56715   2.472   2.407   5.844 -0.3086  0.1857 -0.0101
47916ION     CL56716  17.945   5.390  28.517  0.1112 -0.1286 -0.0283
47917ION     CL56717   9.736   3.764  23.862  0.1312  0.1227 -0.2376
47918ION     CL56718   0.642   4.699   6.915 -0.2032  0.0228  0.3290
47919ION     CL56719  16.626   3.426   0.981 -0.4645  0.1879  0.0407
47920ION     CL56720   7.035   5.591  31.354 -0.1872  0.1457 -0.4856
47921ION     CL56721   5.016   5.636   4.239 -0.2946  0.3440 -0.2438
47922ION     CL56722  25.976   5.839   7.978 -0.3097 -0.0427  0.2190
47923ION     CL56723  15.859   1.288  13.585  0.4229  0.2515  0.0177
47924ION     CL56724   4.629   2.887   7.901 -0.1491  0.4243  0.2007
47925ION     CL56725   7.814   3.155   1.379 -0.0997 -0.1417 -0.0399
47926ION     CL56726   1.351   1.933   9.670  0.1584 -0.2701 -0.0498
47927ION     CL56727   3.540   5.606   2.729 -0.5889 -0.4466  0.1763
47928ION     CL56728   6.870   4.952  13.925  0.1717  0.2409 -0.1611
47929ION     CL56729  11.720   1.976   9.369  0.1378 -0.1996 -0.4551
47930ION     CL56730  11.332   0.492  14.241 -0.2932  0.0943 -0.1460
47931ION     CL56731  15.239   2.995  25.318  0.0980  0.3948 -0.0403
47932ION     CL56732  14.762   2.254   7.203 -0.1348 -0.0758 -0.0216
47933ION     CL56733   2.274   6.338  23.747 -0.2559 -0.1269  0.0525
47934ION     CL56734  16.229   4.706  25.806 -0.1479 -0.5171 -0.3123
47935ION     CL56735   0.294   2.761  22.757  0.2349  0.1514 -0.1374
47936ION     CL56736  19.629   6.087  22.933  0.2547  0.3437  0.1920
47937ION     CL56737  17.158   3.046   4.421 -0.4347 -0.1976  0.7097
47938ION     CL56738   3.619   5.890  22.026 -0.0376  0.0749 -0.2208
47939ION     CL56739   1.736   0.621  35.577  0.2594  0.1420  0.0421
47940ION     CL56740  12.352   5.893  14.195 -0.5715 -0.1198  0.4131
47941ION     CL56741  17.836   3.067   4.113 -0.2113  0.2789  0.2510
47942ION     CL56742   9.381   4.663  12.936  0.1010  0.0176  0.1988
47943ION     CL56743  11.314   3.455  28.318  0.2354  0.1067 -0.0389
47944ION     CL56744  12.059   5.871   3.562  0.0071 -0.3013  0.5331
47945ION     CL56745   2.285   3.275  36.041 -0.3558  0.1859  0.4951
47946ION     CL56746   3.876   2.013  11.210  0.3676  0.3819 -0.0463
47947ION     CL56747  12.189   6.333  15.444 -0.0095 -0.2314  0.3357
47948ION     CL56748  17.690   6.080   2.251 -0.4954 -0.2934 -0.1147
47949ION     CL56749   2.795   5.282  13.816  0.1228 -0.2997  0.1314
47950ION     CL56750   7.596   2.280  14.954 -0.0896 -0.1416  0.1530
47951ION     CL56751  10.853   6.134  23.024 -0.1696  0.2845  0.3357
47952ION     CL56752  18.159   4.449  25.332 -0.3240  0.2563  0.4277
47953ION     CL56753  25.485   5.284   0.286  0.2280 -0.3678  0.0312
47954ION     CL56754  23.777   3.315  32.249  0.1602 -0.1458  0.1033
47955ION     CL56755  17.278   1.773  31.645 -0.2206  0.4910 -0.0339
47956ION     CL56756   9.546   2.987  32.046  0.7018 -0.0735  0.1058
47957ION     CL56757   4.549   2.455   6.665 -0.2734  0.0262 -0.1411
47958ION     CL56758   7.069   2.828   0.137 -0.2366 -0.1085  0.0106
47959ION     CL56759  20.095   0.735  21.979 -0.2456  0.2901 -0.1310
47960ION     CL56760  12.322   1.001   1.974 -0.1141  0.0209  0.1216
47961ION     CL56761   1.300   5.198  20.736  0.0115 -0.0804 -0.1451
47962ION     CL56762   4.009   2.328  34.687  0.0497 -0.0349 -0.0501
47963ION     CL56763   4.859   3.448  12.273  0.2654 -0.2525 -0.3820
47964ION     CL56764  10.386   1.558  33.110 -0.0424  0.2906 -0.1687
47965ION     CL56765  20.489   1.723  34.095 -0.1097  0.1632  0.0466
47966ION     CL56766  13.682   2.051  11.672  0.5064  0.0265  0.2401
47967ION     CL56767  26.278   0.880   2.622  0.0655  0.0985 -0.2656
47968ION     CL56768   5.822   5.787  34.417 -0.2189 -0.1565 -0.0999
47969ION     CL56769  19.300   0.772  27.249  0.2717  0.2812 -0.1701
47970ION     CL56770  17.999   4.258  34.705  0.2422 -0.1722  0.0814
47971ION     CL56771  10.161   4.152  31.505  0.1920 -0.1891  0.1495
47972ION     CL56772  24.288   1.467   1.051  0.0324  0.1118 -0.2918
47973ION     CL56773  12.215   2.857  14.012 -0.0496 -0.0829 -0.0526
47974ION     CL56774  14.352   3.978  21.554 -0.1150  0.1560 -0.0855
47975ION     CL56775  12.641   0.002  21.565  0.3245  0.3695  0.2888
47976ION     CL56776   3.082   6.035  30.916  0.1243  0.0859 -0.2424
47977ION     CL56777   8.933   6.002   8.046  0.2839  0.3303  0.1333
47978ION     CL56778   6.707   4.330   7.569  0.0621 -0.0474 -0.2245
47979ION     CL56779  25.164   1.369  13.485  0.0008 -0.1646  0.1575
47980ION     CL56780  13.698   4.111  27.407  0.0479  0.1369 -0.0443
47981ION     CL56781   8.853   6.576  13.455 -0.2351 -0.1745  0.0833
47982ION     CL56782   5.278   4.815   4.352 -0.4900 -0.2207  0.1447
47983ION     CL56783   3.737   5.277  14.052  0.6048 -0.2956 -0.1296
47984ION     CL56784   5.067   5.805  22.356 -0.3049  0.0142 -0.2712
47985ION     CL56785  23.570   1.296  33.490 -0.0343  0.0752  0.2879
47986ION     CL56786  22.361   4.972  14.313 -0.0337 -0.4151 -0.0691
47987ION     CL56787  18.981   4.716  10.637 -0.1371  0.0543  0.1941
47988ION     CL56788  25.750   0.688  34.157 -0.1777 -0.0852 -0.1956
47989ION     CL56789  18.136   5.154  34.046 -0.0010  0.1416 -0.2556
47990ION     CL56790  14.149   5.724  24.763  0.1068 -0.3367  0.0390
47991ION     CL56791  23.343   2.758   1.259 -0.3338 -0.4670 -0.3403
47992ION     CL56792  22.758   2.502  25.849  0.0766 -0.2998 -0.1334
  26.43340   6.60835  36.18667
